INSANE! Membrane UpperLeaflet>loPI:POPI:DPPI:PYPI:ERGO=20.0:5.0:3.0:2.0:10.0 LowerLeaflet>PSPI:POPI:POPS:YOPS:POPE:YOPE:POPC:YOPC:ERGO=6.0:14.0:21.0:9.0:9.0:21.0:12.0:48.0:60.0
48947
    1loPI    C1    1  12.235   9.059   9.998  0.0831 -0.1056 -0.1084
    1loPI    C2    2  11.953   9.299  10.149  0.2432  0.0981 -0.1274
    1loPI    C3    3  11.853   9.010   9.891  0.0482  0.1426 -0.1033
    1loPI   PO4    4  12.430   9.220   9.813 -0.2316  0.1368  0.1525
    1loPI   GL1    5  12.659   9.095   9.537  0.0095  0.0665  0.3447
    1loPI   GL2    6  12.812   9.403   9.402 -0.0625 -0.1310  0.2774
    1loPI   C1A    7  12.321   9.460   9.273  0.0499 -0.0224  0.4876
    1loPI   C2A    8  12.236   9.449   8.818  0.0006 -0.0228 -0.2518
    1loPI   C3A    9  12.274   9.404   8.356  0.1839  0.3373 -0.1233
    1loPI   C4A   10  12.359   9.414   7.829 -0.2415  0.1510 -0.0649
    1loPI   C5A   11  12.637   9.371   7.466  0.0205 -0.2330 -0.2224
    1loPI   C6A   12  13.009   9.141   7.350 -0.0020 -0.0771  0.0680
    1loPI   C1B   13  12.703   9.220   8.992  0.0550 -0.2130 -0.3212
    1loPI   C2B   14  12.692   9.238   8.581 -0.0239  0.1624 -0.0722
    1loPI   C3B   15  12.739   9.222   8.229 -0.0488  0.0791 -0.1716
    1loPI   C4B   16  12.851   9.107   7.830 -0.6239  0.2823 -0.0684
    2loPI    C1   17  14.974  11.204  10.091 -0.1963 -0.1357 -0.1287
    2loPI    C2   18  14.868  11.023  10.432  0.2166  0.1374  0.1553
    2loPI    C3   19  14.955  11.413  10.432  0.1160  0.1654 -0.2899
    2loPI   PO4   20  14.761  11.101   9.920 -0.3444 -0.0168 -0.0083
    2loPI   GL1   21  14.711  11.062   9.526 -0.0666 -0.0408  0.1821
    2loPI   GL2   22  14.735  10.741   9.536 -0.0664  0.2032  0.1794
    2loPI   C1A   23  14.905  10.837   9.094 -0.3188  0.1017  0.0885
    2loPI   C2A   24  14.934  10.585   8.759 -0.1897 -0.2670  0.1712
    2loPI   C3A   25  15.104  10.595   8.342  0.0539  0.0232 -0.0241
    2loPI   C4A   26  14.864  10.807   7.974  0.0525  0.0666 -0.1847
    2loPI   C5A   27  14.807  11.240   8.118  0.2655 -0.1820 -0.2907
    2loPI   C6A   28  14.811  11.651   8.198 -0.1903 -0.0271  0.0166
    2loPI   C1B   29  14.680  10.428   9.176 -0.1039  0.2785 -0.2813
    2loPI   C2B   30  14.705  10.147   8.800 -0.0793  0.0611 -0.3804
    2loPI   C3B   31  14.699  10.135   8.327 -0.3782 -0.0296 -0.0328
    2loPI   C4B   32  14.679  10.356   7.891 -0.3042 -0.1559 -0.0984
    3loPI    C1   33   7.029   8.534  10.098  0.0621  0.0333  0.2489
    3loPI    C2   34   6.750   8.752   9.912  0.2966  0.0443 -0.1005
    3loPI    C3   35   6.947   8.905  10.224  0.0204  0.0922  0.0535
    3loPI   PO4   36   7.251   8.462   9.844 -0.1198  0.1499 -0.0612
    3loPI   GL1   37   7.454   8.050   9.706 -0.1328 -0.1316 -0.3625
    3loPI   GL2   38   7.308   8.353   9.403  0.1296 -0.4701 -0.1888
    3loPI   C1A   39   7.811   8.201   9.534  0.0734  0.1168 -0.2859
    3loPI   C2A   40   8.094   8.245   9.217  0.0531 -0.0333 -0.1680
    3loPI   C3A   41   8.173   8.303   8.740 -0.1664 -0.0231  0.0819
    3loPI   C4A   42   8.029   8.333   8.340 -0.0821 -0.1769  0.0315
    3loPI   C5A   43   7.799   8.382   7.997 -0.2091 -0.1207 -0.4063
    3loPI   C6A   44   7.481   8.253   7.746 -0.1035  0.0489  0.0420
    3loPI   C1B   45   7.300   8.776   9.060 -0.2738 -0.1400  0.2435
    3loPI   C2B   46   7.336   8.902   8.696 -0.1754  0.0593  0.0016
    3loPI   C3B   47   7.189   8.942   8.252 -0.0825 -0.1114  0.3005
    3loPI   C4B   48   7.267   8.547   8.093  0.1218 -0.0218  0.0957
    4loPI    C1   49  17.591   9.889  10.123 -0.0403  0.3302  0.0921
    4loPI    C2   50  17.609   9.675  10.461 -0.0156  0.0813 -0.0641
    4loPI    C3   51  17.545  10.070  10.477  0.1354  0.0962  0.2378
    4loPI   PO4   52  17.798   9.849   9.972  0.1238  0.0959 -0.4382
    4loPI   GL1   53  17.959   9.552   9.632 -0.0311 -0.0319  0.3274
    4loPI   GL2   54  18.280   9.692   9.693 -0.1903  0.0227  0.1225
    4loPI   C1A   55  18.189   9.484   9.268 -0.0101 -0.2271  0.0152
    4loPI   C2A   56  18.226   9.268   8.982 -0.1223 -0.0085  0.1770
    4loPI   C3A   57  18.016   9.046   8.720 -0.0473  0.1815 -0.1799
    4loPI   C4A   58  17.566   9.071   8.574 -0.1658  0.0358 -0.0719
    4loPI   C5A   59  17.250   9.231   8.338 -0.3204  0.1571  0.2839
    4loPI   C6A   60  16.899   9.471   8.380  0.4000 -0.0407  0.0383
    4loPI   C1B   61  18.621   9.644   9.477  0.1464 -0.0155  0.1431
    4loPI   C2B   62  18.712   9.382   9.077  0.3183 -0.2450 -0.2637
    4loPI   C3B   63  18.660   9.547   8.626  0.2460  0.0071 -0.0186
    4loPI   C4B   64  18.696   9.756   8.175  0.3656  0.2030 -0.3528
    5loPI    C1   65  13.077   6.371  10.426 -0.0601 -0.1212 -0.1309
    5loPI    C2   66  12.955   6.087  10.680  0.0297  0.0127  0.0652
    5loPI    C3   67  12.733   6.415  10.625  0.1136  0.0817  0.1339
    5loPI   PO4   68  13.110   6.265  10.171 -0.1911 -0.1343  0.0184
    5loPI   GL1   69  13.223   6.119   9.707  0.1810  0.0849  0.0308
    5loPI   GL2   70  13.290   6.444   9.676 -0.1250 -0.1465 -0.0858
    5loPI   C1A   71  13.263   5.964   9.302  0.3657 -0.1123 -0.1471
    5loPI   C2A   72  12.987   6.025   8.990  0.0145 -0.1893 -0.1417
    5loPI   C3A   73  12.806   5.998   8.623  0.1169  0.2552  0.2650
    5loPI   C4A   74  12.897   5.987   8.071  0.0784 -0.2804 -0.1169
    5loPI   C5A   75  13.085   6.141   7.785 -0.3880 -0.0158 -0.3395
    5loPI   C6A   76  12.999   6.212   7.462 -0.1176 -0.1817  0.3034
    5loPI   C1B   77  13.312   6.578   9.290  0.1719 -0.0429 -0.1882
    5loPI   C2B   78  13.376   6.387   8.964  0.2349  0.0283  0.2835
    5loPI   C3B   79  13.317   6.126   8.581  0.0564 -0.1956 -0.1110
    5loPI   C4B   80  13.264   5.838   8.302  0.0047  0.0869  0.1002
    6loPI    C1   81   7.586  17.940  10.350  0.0028 -0.0353  0.0059
    6loPI    C2   82   7.711  18.026  10.720 -0.1166 -0.0606  0.0528
    6loPI    C3   83   7.976  17.923  10.438  0.0158  0.3257  0.0306
    6loPI   PO4   84   7.388  18.069  10.330  0.0952  0.3309  0.1308
    6loPI   GL1   85   7.310  18.243   9.956  0.0633 -0.0236 -0.2495
    6loPI   GL2   86   7.683  18.428  10.007  0.1614  0.1900  0.1632
    6loPI   C1A   87   7.212  18.151   9.552 -0.1950  0.1254  0.2835
    6loPI   C2A   88   7.045  17.943   9.178 -0.0668 -0.1237 -0.0612
    6loPI   C3A   89   6.928  17.905   8.825  0.1494  0.1386  0.2250
    6loPI   C4A   90   6.909  17.697   8.361 -0.0120 -0.0669  0.4085
    6loPI   C5A   91   7.082  17.426   8.064  0.0131 -0.1534 -0.0995
    6loPI   C6A   92   7.419  17.294   7.787  0.0916 -0.3276 -0.2274
    6loPI   C1B   93   7.744  18.381   9.610  0.1926 -0.2005 -0.1662
    6loPI   C2B   94   7.638  17.953   9.275 -0.3026 -0.1931  0.0319
    6loPI   C3B   95   7.459  17.737   8.929  0.4392  0.0877  0.1676
    6loPI   C4B   96   7.337  17.562   8.585 -0.0666  0.0344 -0.0165
    7loPI    C1   97   9.613  13.496  10.484  0.2286 -0.0114 -0.1031
    7loPI    C2   98   9.726  13.124  10.393  0.3011 -0.0553  0.1581
    7loPI    C3   99   9.465  13.187  10.690 -0.1534  0.0651 -0.2539
    7loPI   PO4  100   9.619  13.589  10.287 -0.0123 -0.2040 -0.3268
    7loPI   GL1  101   9.342  13.658  10.019  0.3166  0.1754 -0.1872
    7loPI   GL2  102   9.474  13.645   9.760 -0.0655  0.1315 -0.2643
    7loPI   C1A  103   8.976  13.498   9.769 -0.0175 -0.1881 -0.0873
    7loPI   C2A  104   8.925  13.556   9.366 -0.2340 -0.1516 -0.3355
    7loPI   C3A  105   8.778  13.499   9.030  0.0605 -0.0145 -0.0762
    7loPI   C4A  106   8.777  13.647   8.690  0.1695  0.0294  0.0506
    7loPI   C5A  107   8.632  13.924   8.326  0.3996 -0.0916 -0.0629
    7loPI   C6A  108   8.547  13.993   7.857  0.2162  0.0797 -0.1269
    7loPI   C1B  109   9.409  13.618   9.404  0.1566  0.1295  0.0649
    7loPI   C2B  110   9.380  13.609   8.951 -0.0389 -0.0208 -0.0714
    7loPI   C3B  111   9.230  13.573   8.550 -0.2687 -0.2602 -0.2141
    7loPI   C4B  112   9.434  13.773   8.366  0.1775  0.1108 -0.2678
    8loPI    C1  113  17.436  10.546  10.322  0.3438  0.0207 -0.2302
    8loPI    C2  114  17.415  10.921  10.460 -0.1265  0.0015 -0.2329
    8loPI    C3  115  17.452  10.616  10.716 -0.2020  0.0202 -0.1992
    8loPI   PO4  116  17.210  10.633  10.078  0.1384  0.3979  0.2085
    8loPI   GL1  117  17.209  10.698   9.601 -0.0032  0.1388  0.1221
    8loPI   GL2  118  17.298  11.018   9.589  0.3210 -0.1014 -0.0727
    8loPI   C1A  119  17.130  10.391   9.281  0.0661 -0.4348 -0.2314
    8loPI   C2A  120  16.979  10.430   8.930  0.1858 -0.0846 -0.1154
    8loPI   C3A  121  16.641  10.685   8.716  0.0963  0.2035 -0.0586
    8loPI   C4A  122  16.347  10.920   8.460  0.3291 -0.0326  0.0664
    8loPI   C5A  123  16.051  11.205   8.331  0.1755 -0.3057 -0.2966
    8loPI   C6A  124  15.817  11.150   7.939  0.4209  0.2339 -0.2016
    8loPI   C1B  125  17.576  10.824   9.250  0.3869  0.0979  0.1148
    8loPI   C2B  126  17.426  10.604   8.896  0.1612  0.2804 -0.0753
    8loPI   C3B  127  17.233  10.588   8.526  0.0862 -0.1122  0.1852
    8loPI   C4B  128  17.370  10.816   8.178 -0.0113 -0.0547 -0.0716
    9loPI    C1  129  17.087  15.420  10.766 -0.0494  0.0556  0.0236
    9loPI    C2  130  17.146  15.614  11.110 -0.1242  0.0511  0.0390
    9loPI    C3  131  16.991  15.245  11.112  0.0343 -0.0164  0.0109
    9loPI   PO4  132  17.031  15.688  10.519 -0.0085  0.2329  0.0437
    9loPI   GL1  133  17.114  16.017  10.342 -0.2053 -0.0212  0.1354
    9loPI   GL2  134  17.175  16.280  10.263  0.0609 -0.1741 -0.1941
    9loPI   C1A  135  17.030  15.862   9.828  0.0402 -0.2913 -0.1769
    9loPI   C2A  136  17.246  15.780   9.466  0.1084  0.2825  0.2372
    9loPI   C3A  137  17.442  15.794   9.082  0.1987 -0.0996 -0.1256
    9loPI   C4A  138  17.431  15.817   8.755 -0.1033  0.0432 -0.0193
    9loPI   C5A  139  17.301  15.990   8.405  0.1327  0.2206 -0.2660
    9loPI   C6A  140  17.311  16.000   7.920  0.1742 -0.1649  0.2040
    9loPI   C1B  141  17.073  16.391   9.843  0.2410  0.0346 -0.0405
    9loPI   C2B  142  17.070  16.329   9.358 -0.1792 -0.4490 -0.1378
    9loPI   C3B  143  16.963  16.445   8.929  0.3295  0.1537  0.0994
    9loPI   C4B  144  17.265  16.495   8.567  0.0754 -0.0632 -0.0650
   10loPI    C1  145  14.172   9.517   9.971 -0.1627  0.0755  0.1611
   10loPI    C2  146  13.789   9.464  10.073 -0.1527 -0.0928  0.1153
   10loPI    C3  147  14.076   9.429  10.349 -0.1574 -0.1392  0.1142
   10loPI   PO4  148  14.176   9.786   9.877 -0.3426 -0.2281 -0.2526
   10loPI   GL1  149  14.049  10.033   9.532 -0.1337 -0.0002  0.2747
   10loPI   GL2  150  13.963  10.263   9.501 -0.5500  0.1479 -0.1740
   10loPI   C1A  151  14.207  10.115   9.066 -0.3541  0.2722 -0.1164
   10loPI   C2A  152  14.284  10.330   8.609  0.2466  0.0823 -0.0675
   10loPI   C3A  153  14.090  10.523   8.249  0.1343  0.0385  0.2591
   10loPI   C4A  154  14.101  10.585   7.722 -0.3175  0.0633 -0.1653
   10loPI   C5A  155  14.156  10.702   7.255 -0.1921 -0.0773  0.0286
   10loPI   C6A  156  13.993  10.738   6.755 -0.0343  0.0640 -0.0533
   10loPI   C1B  157  14.059  10.593   9.027  0.3078  0.0979  0.0478
   10loPI   C2B  158  14.015  10.880   8.619  0.0225 -0.0303 -0.3676
   10loPI   C3B  159  13.821  11.213   8.405  0.2031 -0.1510 -0.0070
   10loPI   C4B  160  13.652  11.316   7.975  0.2630  0.1454  0.3123
   11loPI    C1  161  15.593   3.457  10.827 -0.1785 -0.1232  0.0589
   11loPI    C2  162  15.619   3.599  11.200 -0.0970  0.0589 -0.0149
   11loPI    C3  163  15.724   3.221  11.122 -0.1266  0.0162  0.1483
   11loPI   PO4  164  15.789   3.684  10.679  0.0428 -0.2040  0.2974
   11loPI   GL1  165  15.661   3.870  10.235  0.0206 -0.2729  0.0722
   11loPI   GL2  166  15.290   4.100  10.250  0.0299 -0.0694  0.1058
   11loPI   C1A  167  16.022   3.923   9.944 -0.3929 -0.2319 -0.2260
   11loPI   C2A  168  16.442   4.070   9.595  0.0927  0.0980  0.0514
   11loPI   C3A  169  16.599   3.883   9.270 -0.0691 -0.0562  0.0752
   11loPI   C4A  170  16.793   3.564   9.034 -0.1446  0.2409 -0.5487
   11loPI   C5A  171  16.506   3.277   8.783 -0.3185 -0.0068  0.2074
   11loPI   C6A  172  16.124   3.247   8.530  0.0811 -0.2565 -0.1188
   11loPI   C1B  173  15.166   3.990   9.842 -0.0042  0.0297  0.3299
   11loPI   C2B  174  15.276   3.746   9.439 -0.2456  0.1518 -0.2691
   11loPI   C3B  175  15.282   3.453   9.001  0.2261  0.2569  0.3982
   11loPI   C4B  176  15.111   3.457   8.680  0.2440  0.2390  0.0634
   12loPI    C1  177   2.453   6.905  10.206  0.1889 -0.0862  0.0656
   12loPI    C2  178   2.294   6.763  10.544 -0.0791 -0.1593 -0.0881
   12loPI    C3  179   2.380   6.513  10.244 -0.0314 -0.0689 -0.1499
   12loPI   PO4  180   2.277   7.153  10.110 -0.0017  0.0120  0.0661
   12loPI   GL1  181   1.919   7.226   9.853 -0.0985 -0.1998 -0.0549
   12loPI   GL2  182   2.037   6.986   9.724  0.0563  0.0146  0.2018
   12loPI   C1A  183   2.038   7.469   9.523  0.0389 -0.1650 -0.1318
   12loPI   C2A  184   2.212   7.459   9.085  0.2944 -0.0453  0.0057
   12loPI   C3A  185   2.223   7.420   8.753  0.0136 -0.0247  0.0526
   12loPI   C4A  186   2.319   7.560   8.284  0.1247 -0.2286  0.2869
   12loPI   C5A  187   2.192   7.603   7.938  0.2436  0.0824 -0.1447
   12loPI   C6A  188   2.131   7.382   7.598 -0.3286 -0.0214 -0.4939
   12loPI   C1B  189   1.987   7.043   9.254  0.2364  0.1514  0.0221
   12loPI   C2B  190   1.970   7.024   8.846 -0.1634 -0.1617  0.0512
   12loPI   C3B  191   1.974   7.068   8.415  0.0339  0.1343 -0.1780
   12loPI   C4B  192   1.869   7.151   8.006 -0.3811  0.2048  0.0305
   13loPI    C1  193   3.731   6.967  10.346 -0.1809  0.2336  0.1243
   13loPI    C2  194   4.065   7.122  10.501  0.0144 -0.0053 -0.0503
   13loPI    C3  195   3.712   7.294  10.577  0.1675  0.2143  0.1855
   13loPI   PO4  196   3.745   6.900  10.034 -0.4788 -0.0994  0.4025
   13loPI   GL1  197   3.609   7.181   9.680 -0.1425  0.1364 -0.2257
   13loPI   GL2  198   3.389   7.021   9.626 -0.2127  0.2851  0.0207
   13loPI   C1A  199   3.724   7.364   9.319  0.1258  0.0713 -0.1532
   13loPI   C2A  200   3.678   7.469   8.960  0.1724  0.2263  0.0322
   13loPI   C3A  201   3.815   7.289   8.659 -0.2182 -0.0732 -0.1302
   13loPI   C4A  202   4.023   7.124   8.203 -0.0776  0.0136 -0.1073
   13loPI   C5A  203   4.022   7.401   7.820 -0.0558 -0.0358  0.0924
   13loPI   C6A  204   4.118   7.439   7.326 -0.1658 -0.1632 -0.1385
   13loPI   C1B  205   3.397   6.907   9.160 -0.0821 -0.0172 -0.0712
   13loPI   C2B  206   3.445   6.991   8.829  0.1217  0.0252  0.0129
   13loPI   C3B  207   3.289   7.240   8.510  0.1626 -0.0107  0.2425
   13loPI   C4B  208   2.885   7.338   8.257 -0.1802  0.0293  0.0076
   14loPI    C1  209  10.863   5.274  10.313  0.0171 -0.1245 -0.0274
   14loPI    C2  210  10.557   5.484  10.463  0.2595  0.2777 -0.0821
   14loPI    C3  211  10.499   5.109  10.338 -0.1325  0.2287  0.2248
   14loPI   PO4  212  10.920   5.363  10.127 -0.0943  0.0058  0.1652
   14loPI   GL1  213  10.906   5.497   9.665 -0.0066 -0.1018  0.1307
   14loPI   GL2  214  11.007   5.183   9.637  0.1037  0.1033  0.0785
   14loPI   C1A  215  10.860   5.690   9.310 -0.1083 -0.2123  0.3380
   14loPI   C2A  216  11.032   5.766   8.969 -0.2359  0.0021 -0.2931
   14loPI   C3A  217  10.983   5.781   8.582 -0.1973 -0.2697 -0.1657
   14loPI   C4A  218  11.041   5.808   8.138 -0.1697  0.0461 -0.2860
   14loPI   C5A  219  11.396   5.647   7.886 -0.1321  0.3088 -0.1257
   14loPI   C6A  220  11.721   5.376   7.778 -0.0047  0.2022 -0.0453
   14loPI   C1B  221  10.981   5.153   9.253 -0.0335  0.3641  0.0943
   14loPI   C2B  222  11.167   5.287   8.847 -0.3532 -0.1227  0.3431
   14loPI   C3B  223  11.201   5.393   8.427  0.0108 -0.0895  0.0879
   14loPI   C4B  224  10.989   5.320   8.056  0.0492  0.2625  0.2476
   15loPI    C1  225   4.031  18.222  10.512 -0.0336 -0.3488 -0.0143
   15loPI    C2  226   3.695  18.108  10.696 -0.2318  0.1423 -0.0572
   15loPI    C3  227   3.848  18.471  10.765  0.1144  0.0449 -0.2844
   15loPI   PO4  228   3.959  18.253  10.258 -0.3122 -0.0481  0.0997
   15loPI   GL1  229   4.063  18.533   9.969  0.1565  0.1403 -0.1032
   15loPI   GL2  230   4.213  18.859   9.898  0.0867 -0.2228 -0.2040
   15loPI   C1A  231   4.001  18.486   9.524 -0.2752 -0.0116  0.2825
   15loPI   C2A  232   3.980  18.443   9.094  0.1689  0.1705  0.3209
   15loPI   C3A  233   3.858  18.658   8.805  0.1404  0.1979  0.2140
   15loPI   C4A  234   3.776  19.024   8.537  0.1018 -0.1699 -0.1264
   15loPI   C5A  235   3.909  19.122   8.126 -0.0474  0.2224  0.1608
   15loPI   C6A  236   4.243  19.509   7.991 -0.1630  0.2227  0.2470
   15loPI   C1B  237   4.223  18.919   9.471 -0.2430 -0.2207  0.4838
   15loPI   C2B  238   3.916  19.000   9.239 -0.1059 -0.0784 -0.1221
   15loPI   C3B  239   3.969  19.330   8.834  0.1014  0.1974 -0.0023
   15loPI   C4B  240   4.292  19.201   8.467  0.3896  0.1187 -0.1929
   16loPI    C1  241  16.142   5.651  10.286 -0.0699  0.3231  0.0964
   16loPI    C2  242  15.745   5.634  10.241 -0.0177 -0.0707 -0.2932
   16loPI    C3  243  15.929   5.388  10.498  0.0056 -0.1130 -0.3503
   16loPI   PO4  244  16.218   5.646   9.951 -0.1336  0.2238 -0.1424
   16loPI   GL1  245  16.209   5.466   9.637  0.1571 -0.1293  0.1263
   16loPI   GL2  246  16.181   5.739   9.470 -0.0935 -0.0048  0.1471
   16loPI   C1A  247  15.773   5.403   9.391  0.2557  0.0298 -0.1927
   16loPI   C2A  248  15.639   5.426   8.992 -0.0796 -0.0635  0.1278
   16loPI   C3A  249  15.399   5.525   8.578 -0.0496  0.1515 -0.2632
   16loPI   C4A  250  15.213   5.690   8.204  0.0160  0.1633 -0.0049
   16loPI   C5A  251  14.961   6.021   7.975 -0.2684 -0.0976  0.0220
   16loPI   C6A  252  14.572   6.067   7.831 -0.3139  0.1036  0.1826
   16loPI   C1B  253  16.245   5.487   9.055 -0.1910 -0.1762 -0.0911
   16loPI   C2B  254  16.355   5.120   8.741  0.0965 -0.2834  0.0527
   16loPI   C3B  255  16.332   4.814   8.413 -0.0102  0.2265 -0.3417
   16loPI   C4B  256  16.477   4.921   8.050  0.0449  0.2362  0.2227
   17loPI    C1  257  14.083  15.565  10.254 -0.0182  0.0960 -0.0363
   17loPI    C2  258  13.925  15.900  10.102 -0.1340  0.0333 -0.0547
   17loPI    C3  259  13.790  15.542   9.982 -0.1209 -0.0181  0.0824
   17loPI   PO4  260  14.358  15.608  10.276 -0.0876  0.1328  0.1031
   17loPI   GL1  261  14.514  15.626   9.932 -0.1458  0.2075  0.2687
   17loPI   GL2  262  14.232  15.710   9.762  0.0853  0.0038 -0.0460
   17loPI   C1A  263  14.627  15.545   9.457  0.0255  0.1744  0.3248
   17loPI   C2A  264  14.741  15.391   9.023 -0.0455  0.3072 -0.2763
   17loPI   C3A  265  15.156  15.421   8.883 -0.2523  0.1641 -0.2093
   17loPI   C4A  266  15.481  15.629   8.689  0.1105 -0.0704 -0.2529
   17loPI   C5A  267  15.741  15.993   8.599 -0.0212  0.1018 -0.2283
   17loPI   C6A  268  15.618  16.379   8.577 -0.0874  0.1167 -0.3475
   17loPI   C1B  269  14.139  15.907   9.498  0.0502 -0.5188  0.1578
   17loPI   C2B  270  14.185  15.967   9.037 -0.3612  0.0684 -0.0723
   17loPI   C3B  271  14.076  15.915   8.602 -0.0239  0.0364  0.0147
   17loPI   C4B  272  14.151  16.155   8.271  0.2801  0.0802 -0.0476
   18loPI    C1  273   7.672   5.180  10.212  0.0764 -0.1845 -0.1574
   18loPI    C2  274   8.049   5.047  10.207  0.1553  0.0253  0.0203
   18loPI    C3  275   7.940   5.328  10.469 -0.1064  0.0235 -0.0835
   18loPI   PO4  276   7.625   5.184   9.961 -0.1046  0.1921  0.1570
   18loPI   GL1  277   7.802   5.246   9.570  0.0556  0.3422 -0.1898
   18loPI   GL2  278   7.850   5.491   9.429 -0.1499  0.1754 -0.1088
   18loPI   C1A  279   7.625   4.980   9.240  0.3346  0.1532 -0.1484
   18loPI   C2A  280   7.798   4.926   8.797 -0.1637  0.0248 -0.0752
   18loPI   C3A  281   8.011   4.766   8.364 -0.1664  0.0519  0.0326
   18loPI   C4A  282   8.112   4.798   7.979  0.0435 -0.0113 -0.3290
   18loPI   C5A  283   8.104   4.582   7.698  0.2063  0.1671  0.0807
   18loPI   C6A  284   8.252   4.233   7.366 -0.0401  0.2659 -0.0599
   18loPI   C1B  285   8.045   5.664   9.086 -0.1920  0.1515  0.4186
   18loPI   C2B  286   7.878   5.903   8.750  0.0183  0.1808  0.0702
   18loPI   C3B  287   7.512   5.845   8.665 -0.0467 -0.0910 -0.0076
   18loPI   C4B  288   7.266   5.831   8.373 -0.3556 -0.0611  0.0689
   19loPI    C1  289  14.597   1.259  10.158 -0.0873 -0.2263  0.2390
   19loPI    C2  290  14.229   1.374  10.052  0.0546  0.1415  0.1303
   19loPI    C3  291  14.351   1.000   9.978 -0.1865  0.1092 -0.1201
   19loPI   PO4  292  14.752   1.422  10.032  0.0914 -0.0567  0.0357
   19loPI   GL1  293  14.723   1.344   9.666 -0.1980  0.3080  0.1767
   19loPI   GL2  294  15.021   1.499   9.599  0.2046 -0.1608 -0.0513
   19loPI   C1A  295  14.570   1.238   9.283  0.0065 -0.1240  0.0305
   19loPI   C2A  296  14.173   1.217   9.024 -0.0485 -0.0918  0.2983
   19loPI   C3A  297  14.160   1.088   8.583  0.1830 -0.0759 -0.1502
   19loPI   C4A  298  14.349   1.216   8.140 -0.1143 -0.1063 -0.0744
   19loPI   C5A  299  14.219   1.535   7.962  0.0672 -0.0699  0.1871
   19loPI   C6A  300  14.149   1.883   8.093 -0.3481 -0.1366  0.1917
   19loPI   C1B  301  14.993   1.542   9.268 -0.1579 -0.1666  0.4157
   19loPI   C2B  302  14.976   1.460   8.831  0.2848 -0.0114  0.3235
   19loPI   C3B  303  15.054   1.540   8.420  0.0050 -0.0492 -0.2243
   19loPI   C4B  304  14.955   1.708   7.985  0.0043  0.0756  0.0062
   20loPI    C1  305   1.997   3.772  10.444 -0.2761  0.0791  0.0488
   20loPI    C2  306   1.784   3.785  10.782 -0.2591 -0.0678  0.0654
   20loPI    C3  307   2.178   3.853  10.791 -0.1985 -0.4077  0.1287
   20loPI   PO4  308   1.809   3.670  10.219 -0.0810 -0.0644 -0.1258
   20loPI   GL1  309   1.739   3.747   9.833  0.1427 -0.2148  0.1235
   20loPI   GL2  310   1.645   3.457   9.670  0.0974 -0.2305  0.1080
   20loPI   C1A  311   1.480   3.944   9.522  0.0697 -0.0070  0.3085
   20loPI   C2A  312   1.381   4.002   9.116  0.2451 -0.1064 -0.0262
   20loPI   C3A  313   1.374   4.339   8.740  0.3408 -0.0314 -0.0646
   20loPI   C4A  314   1.764   4.558   8.549 -0.3873 -0.0929 -0.1018
   20loPI   C5A  315   2.123   4.838   8.301 -0.0221  0.2842 -0.2897
   20loPI   C6A  316   2.296   5.051   8.081  0.2040 -0.0422 -0.2863
   20loPI   C1B  317   1.702   3.443   9.267 -0.0601 -0.2358  0.2216
   20loPI   C2B  318   1.670   3.631   8.910  0.0256  0.1330 -0.0841
   20loPI   C3B  319   1.502   3.827   8.668  0.2003  0.1755 -0.0391
   20loPI   C4B  320   1.135   3.919   8.536 -0.3833  0.0377  0.2718
   21loPI    C1  321  12.171   8.550  10.413  0.0254 -0.0732  0.3135
   21loPI    C2  322  12.153   8.942  10.489 -0.0397 -0.0586  0.2233
   21loPI    C3  323  12.484   8.736  10.579  0.0319  0.0365  0.1797
   21loPI   PO4  324  12.162   8.552  10.105 -0.0417  0.4471  0.0364
   21loPI   GL1  325  12.352   8.237   9.804 -0.0201 -0.2258  0.2378
   21loPI   GL2  326  12.250   8.108   9.550  0.2034 -0.0680  0.0581
   21loPI   C1A  327  12.606   8.339   9.330  0.2807 -0.2132 -0.1084
   21loPI   C2A  328  12.793   8.224   8.899  0.2500  0.3402 -0.1681
   21loPI   C3A  329  13.006   8.251   8.482  0.0732 -0.3085  0.3420
   21loPI   C4A  330  13.082   8.366   8.104 -0.1952  0.2559  0.0685
   21loPI   C5A  331  12.797   8.544   7.785  0.1588  0.2502  0.1229
   21loPI   C6A  332  12.422   8.833   7.955  0.2901  0.0151  0.1518
   21loPI   C1B  333  12.126   8.235   9.168 -0.0096 -0.0601 -0.0060
   21loPI   C2B  334  12.147   8.236   8.836  0.2333  0.0268  0.0663
   21loPI   C3B  335  12.439   8.363   8.620  0.2873  0.1798  0.1194
   21loPI   C4B  336  12.425   8.381   8.111  0.1374  0.1100  0.2652
   22loPI    C1  337   0.777  16.118  10.648  0.0291 -0.0047  0.2053
   22loPI    C2  338   0.853  15.726  10.656  0.2042  0.0246  0.0430
   22loPI    C3  339   1.102  15.981  10.838  0.1705  0.0725  0.0218
   22loPI   PO4  340   0.516  16.116  10.513  0.2989 -0.0979 -0.2168
   22loPI   GL1  341   0.476  16.300  10.134  0.2044  0.1189 -0.0197
   22loPI   GL2  342   0.540  16.567  10.204 -0.0934  0.1191  0.1594
   22loPI   C1A  343   0.466  16.064   9.751 -0.0293  0.1876 -0.0304
   22loPI   C2A  344   0.345  16.014   9.387  0.1224 -0.1900  0.2605
   22loPI   C3A  345   0.087  16.217   9.079  0.1041 -0.1201 -0.0210
   22loPI   C4A  346  -0.066  16.306   8.627  0.0341 -0.0328 -0.0540
   22loPI   C5A  347   0.202  16.689   8.437  0.0570  0.1914  0.1289
   22loPI   C6A  348   0.361  17.014   8.240 -0.4099  0.1751  0.0605
   22loPI   C1B  349   0.211  16.578   9.783 -0.1826  0.0168 -0.1268
   22loPI   C2B  350   0.091  16.667   9.434 -0.0285 -0.1221  0.1110
   22loPI   C3B  351   0.132  16.787   9.057 -0.1432  0.1465 -0.0297
   22loPI   C4B  352   0.427  17.100   8.713  0.1613 -0.0440 -0.1782
   23loPI    C1  353  16.748  17.822  10.677  0.0260  0.0595 -0.0728
   23loPI    C2  354  16.722  18.144  10.913 -0.2977  0.1231 -0.1889
   23loPI    C3  355  16.974  17.846  11.006 -0.1936  0.2869  0.0645
   23loPI   PO4  356  16.818  17.882  10.468  0.2793  0.2169  0.1481
   23loPI   GL1  357  16.724  17.957  10.089 -0.3807 -0.4370  0.3251
   23loPI   GL2  358  16.767  18.199   9.824 -0.1352 -0.2421  0.3318
   23loPI   C1A  359  16.383  17.791   9.768 -0.0995  0.0708 -0.2931
   23loPI   C2A  360  16.317  17.578   9.339 -0.0951  0.2386 -0.0777
   23loPI   C3A  361  16.072  17.377   9.049 -0.2101  0.0338 -0.1729
   23loPI   C4A  362  16.020  17.135   8.804  0.1946  0.1367 -0.2047
   23loPI   C5A  363  15.771  16.861   8.504 -0.1189 -0.0458  0.1699
   23loPI   C6A  364  15.353  16.895   8.503  0.1098 -0.2198  0.2563
   23loPI   C1B  365  16.625  18.053   9.419 -0.2298  0.2315 -0.0477
   23loPI   C2B  366  16.569  17.904   9.004 -0.1258  0.4392 -0.1692
   23loPI   C3B  367  16.420  17.736   8.807 -0.1876 -0.4642 -0.2766
   23loPI   C4B  368  16.141  18.010   8.647 -0.0800 -0.0643  0.1476
   24loPI    C1  369  11.696   8.504  10.254 -0.3347  0.3813 -0.0684
   24loPI    C2  370  11.694   8.858  10.441  0.1197  0.1650  0.3710
   24loPI    C3  371  11.623   8.522  10.647 -0.0953 -0.0236  0.0010
   24loPI   PO4  372  11.584   8.587   9.986  0.1106 -0.1504 -0.2173
   24loPI   GL1  373  11.814   8.518   9.676 -0.0951 -0.1034 -0.0604
   24loPI   GL2  374  11.777   8.253   9.521  0.0060  0.1618  0.3253
   24loPI   C1A  375  11.705   8.641   9.253 -0.0507 -0.0147 -0.0373
   24loPI   C2A  376  11.732   8.542   8.822 -0.0050  0.2494 -0.0792
   24loPI   C3A  377  11.920   8.462   8.471  0.1171  0.1314 -0.0756
   24loPI   C4A  378  12.080   8.081   8.339  0.0356  0.1452  0.1416
   24loPI   C5A  379  12.200   7.893   7.962  0.0615  0.3268 -0.2579
   24loPI   C6A  380  12.295   8.202   7.656 -0.1400 -0.1133  0.0444
   24loPI   C1B  381  11.635   8.042   9.114  0.0627  0.0436 -0.1583
   24loPI   C2B  382  11.593   8.036   8.657 -0.1199  0.0141  0.2263
   24loPI   C3B  383  11.696   7.714   8.252 -0.4445 -0.3409 -0.2388
   24loPI   C4B  384  11.782   7.476   7.906 -0.0724  0.1646 -0.1099
   25loPI    C1  385   6.193   7.671  10.006 -0.0301 -0.0742  0.0261
   25loPI    C2  386   6.245   7.905  10.326 -0.1618 -0.0091  0.0005
   25loPI    C3  387   6.053   7.556  10.363 -0.0624 -0.0624  0.0172
   25loPI   PO4  388   6.106   7.841   9.792 -0.2179 -0.1407  0.2006
   25loPI   GL1  389   6.143   7.668   9.499 -0.3203 -0.1561 -0.0040
   25loPI   GL2  390   5.789   7.629   9.462  0.1977  0.0038  0.0832
   25loPI   C1A  391   6.251   7.487   9.077 -0.2778 -0.2860  0.3079
   25loPI   C2A  392   6.467   7.514   8.762  0.0990  0.2552  0.0691
   25loPI   C3A  393   6.442   7.704   8.350  0.1449 -0.3660  0.1919
   25loPI   C4A  394   6.564   7.958   8.148 -0.1357 -0.0026 -0.2880
   25loPI   C5A  395   6.683   8.295   7.949 -0.2578 -0.1335 -0.0555
   25loPI   C6A  396   6.810   8.680   7.788 -0.2096  0.0257 -0.1129
   25loPI   C1B  397   5.739   7.531   9.168  0.0229  0.0304 -0.0717
   25loPI   C2B  398   5.918   7.556   8.700  0.4590 -0.1750  0.0517
   25loPI   C3B  399   6.016   7.381   8.290  0.2575 -0.0185 -0.2332
   25loPI   C4B  400   6.260   7.515   7.946  0.0054 -0.3119 -0.0130
   26loPI    C1  401  15.676   7.113  10.306  0.0666 -0.0008  0.0302
   26loPI    C2  402  15.594   6.755  10.464  0.2976 -0.0887 -0.0445
   26loPI    C3  403  15.967   6.899  10.478  0.2131  0.1343 -0.0465
   26loPI   PO4  404  15.594   7.058  10.047  0.1085  0.0836  0.0361
   26loPI   GL1  405  15.797   6.854   9.672 -0.0858 -0.1731  0.0533
   26loPI   GL2  406  16.083   6.776   9.654 -0.1873  0.2341  0.1301
   26loPI   C1A  407  15.570   6.793   9.312  0.1739  0.4264  0.0648
   26loPI   C2A  408  15.562   6.865   8.854  0.2501  0.3542 -0.0726
   26loPI   C3A  409  15.510   6.742   8.461  0.1849 -0.0993  0.2208
   26loPI   C4A  410  15.739   6.548   8.155  0.1737 -0.1303  0.0120
   26loPI   C5A  411  15.993   6.171   7.962 -0.4242 -0.2417  0.1397
   26loPI   C6A  412  16.212   5.861   7.787  0.3226 -0.0753  0.3383
   26loPI   C1B  413  16.055   6.653   9.205  0.1147 -0.2907 -0.1961
   26loPI   C2B  414  15.961   6.581   8.735 -0.0490  0.3347  0.1583
   26loPI   C3B  415  16.027   6.300   8.434  0.3415 -0.1856  0.1348
   26loPI   C4B  416  16.231   5.884   8.314  0.1141  0.0946  0.0904
   27loPI    C1  417   7.059  16.274  10.192 -0.2498 -0.1382 -0.0034
   27loPI    C2  418   7.022  16.403  10.569  0.0414  0.0358 -0.0310
   27loPI    C3  419   7.291  16.571  10.326 -0.2622  0.0424 -0.3707
   27loPI   PO4  420   6.830  16.212  10.135  0.1409 -0.1097 -0.3179
   27loPI   GL1  421   6.520  16.310   9.883  0.0116  0.2396 -0.3303
   27loPI   GL2  422   6.803  16.457   9.705 -0.1064  0.1499 -0.3752
   27loPI   C1A  423   6.280  16.269   9.529 -0.0696  0.2709  0.0561
   27loPI   C2A  424   6.106  16.396   9.143  0.2690  0.2507  0.2176
   27loPI   C3A  425   5.979  16.343   8.697 -0.0005  0.2748  0.1549
   27loPI   C4A  426   5.713  16.386   8.360  0.0395 -0.0382 -0.1732
   27loPI   C5A  427   5.310  16.626   8.172  0.3440 -0.2386 -0.1392
   27loPI   C6A  428   4.928  16.789   8.073  0.3393  0.0364 -0.1286
   27loPI   C1B  429   6.685  16.552   9.354 -0.0381 -0.0905  0.1341
   27loPI   C2B  430   6.561  16.633   8.950  0.0312  0.2307  0.2228
   27loPI   C3B  431   6.448  16.582   8.546 -0.2289 -0.0941  0.0445
   27loPI   C4B  432   6.167  16.459   8.190 -0.1321  0.0347 -0.4335
   28loPI    C1  433   9.950   6.179  10.362  0.2786  0.0827  0.0320
   28loPI    C2  434   9.947   6.505  10.594  0.0495  0.0341  0.0996
   28loPI    C3  435  10.270   6.270  10.584  0.0725  0.0533  0.3464
   28loPI   PO4  436   9.832   6.289  10.115 -0.1160  0.1146 -0.0139
   28loPI   GL1  437   9.930   6.369   9.727 -0.1059  0.1124  0.2338
   28loPI   GL2  438  10.260   6.316   9.614 -0.3351  0.0493 -0.2197
   28loPI   C1A  439   9.926   6.353   9.242 -0.0201  0.2282  0.4010
   28loPI   C2A  440  10.188   6.383   8.947 -0.2125 -0.0120 -0.0272
   28loPI   C3A  441  10.229   6.412   8.537 -0.0076 -0.1092 -0.3552
   28loPI   C4A  442  10.573   6.345   8.346  0.0664  0.4021  0.0852
   28loPI   C5A  443  10.755   6.534   7.944 -0.4795 -0.3078 -0.1805
   28loPI   C6A  444  10.988   6.592   7.669 -0.2654 -0.4004  0.1534
   28loPI   C1B  445  10.553   6.545   9.393  0.2417 -0.1970  0.0610
   28loPI   C2B  446  10.627   6.525   8.937 -0.0129  0.3005 -0.1888
   28loPI   C3B  447  10.823   6.747   8.503 -0.0531 -0.1732 -0.0987
   28loPI   C4B  448  10.942   7.051   8.267  0.2475 -0.1569  0.2495
   29loPI    C1  449   6.315  14.591  10.763  0.3286 -0.2008 -0.2505
   29loPI    C2  450   6.623  14.838  10.832 -0.0121  0.1443  0.0870
   29loPI    C3  451   6.564  14.521  11.069  0.1455  0.0110 -0.0492
   29loPI   PO4  452   6.273  14.526  10.524  0.3418 -0.0926  0.1927
   29loPI   GL1  453   6.277  14.658  10.120 -0.0145  0.0794 -0.2164
   29loPI   GL2  454   6.059  14.464   9.961 -0.0436 -0.0162  0.3249
   29loPI   C1A  455   6.570  14.857   9.802 -0.0552 -0.2137  0.2029
   29loPI   C2A  456   6.598  14.998   9.421  0.0367 -0.2447 -0.0061
   29loPI   C3A  457   6.657  14.989   8.980 -0.1328  0.1960  0.0494
   29loPI   C4A  458   6.537  14.997   8.614  0.3056  0.1795 -0.1347
   29loPI   C5A  459   6.521  15.008   8.202  0.1270  0.0705 -0.1124
   29loPI   C6A  460   6.599  15.074   7.777  0.0128  0.1771 -0.0467
   29loPI   C1B  461   6.076  14.786   9.681 -0.0619 -0.0820 -0.1709
   29loPI   C2B  462   5.924  14.772   9.301 -0.1362  0.1343 -0.0285
   29loPI   C3B  463   6.020  14.724   8.818 -0.0774 -0.0796  0.1033
   29loPI   C4B  464   6.085  14.798   8.343 -0.2747 -0.2868 -0.0794
   30loPI    C1  465  11.522  11.389   9.989 -0.1246  0.0257  0.1186
   30loPI    C2  466  11.266  11.529  10.261 -0.1356  0.0514  0.0950
   30loPI    C3  467  11.657  11.599  10.301 -0.1296 -0.0095  0.1444
   30loPI   PO4  468  11.405  11.068   9.999 -0.1884 -0.1650 -0.0978
   30loPI   GL1  469  11.510  10.927   9.690  0.2944  0.2424 -0.0102
   30loPI   GL2  470  11.844  10.912   9.677 -0.0627 -0.0283  0.0427
   30loPI   C1A  471  11.438  11.027   9.286 -0.3428 -0.1300  0.2404
   30loPI   C2A  472  11.539  11.086   8.857  0.0303 -0.1864  0.0156
   30loPI   C3A  473  11.480  11.032   8.449 -0.0275  0.0444  0.0072
   30loPI   C4A  474  11.393  10.767   8.100 -0.2280 -0.1717 -0.1256
   30loPI   C5A  475  11.323  10.302   7.943  0.1885 -0.3031 -0.2938
   30loPI   C6A  476  11.165  10.142   7.657  0.2551 -0.3116 -0.0295
   30loPI   C1B  477  11.902  10.782   9.231  0.0552 -0.2580  0.0205
   30loPI   C2B  478  11.926  10.744   8.739 -0.2922  0.1146 -0.0117
   30loPI   C3B  479  12.004  10.978   8.500  0.0253 -0.0616  0.3637
   30loPI   C4B  480  12.269  11.267   8.273  0.0783  0.2097  0.1384
   31loPI    C1  481   3.169   9.151  10.372 -0.0767 -0.0113 -0.0901
   31loPI    C2  482   3.517   9.001  10.500 -0.0483  0.0494 -0.0958
   31loPI    C3  483   3.208   9.030  10.752 -0.0090  0.1180 -0.0551
   31loPI   PO4  484   3.138   8.996  10.123  0.0281  0.2032 -0.1140
   31loPI   GL1  485   2.782   8.827   9.937  0.0497  0.1684  0.1413
   31loPI   GL2  486   2.541   8.574   9.822  0.0079 -0.2341  0.2524
   31loPI   C1A  487   2.847   9.141   9.545  0.0426 -0.1262  0.1865
   31loPI   C2A  488   2.793   9.179   9.182  0.0999 -0.3267  0.2560
   31loPI   C3A  489   2.598   9.309   8.789 -0.4225 -0.3906 -0.0121
   31loPI   C4A  490   2.331   9.495   8.510  0.2975  0.3175  0.2916
   31loPI   C5A  491   2.089   9.557   8.197 -0.2035  0.3542 -0.3938
   31loPI   C6A  492   2.181   9.926   7.981  0.0959 -0.1585  0.0738
   31loPI   C1B  493   2.557   8.709   9.380 -0.0783  0.1507 -0.1334
   31loPI   C2B  494   2.494   8.793   9.011 -0.1501 -0.4033 -0.1134
   31loPI   C3B  495   2.657   8.835   8.621  0.0556 -0.0404 -0.0404
   31loPI   C4B  496   2.706   8.735   8.285 -0.0024 -0.2314 -0.4892
   32loPI    C1  497  17.654   8.247  10.358 -0.1548  0.0778 -0.1887
   32loPI    C2  498  17.419   7.925  10.387  0.0029 -0.0098  0.1641
   32loPI    C3  499  17.422   8.198  10.680  0.0928  0.1610  0.0059
   32loPI   PO4  500  17.769   8.212  10.133 -0.0558  0.3090 -0.0996
   32loPI   GL1  501  17.952   8.112   9.741  0.2332 -0.2386  0.1447
   32loPI   GL2  502  18.210   7.907   9.722 -0.0188 -0.0869 -0.0110
   32loPI   C1A  503  17.734   7.890   9.458 -0.0923 -0.0117 -0.0687
   32loPI   C2A  504  17.627   7.739   9.128 -0.1234 -0.1528 -0.1783
   32loPI   C3A  505  17.440   7.722   8.794  0.2583  0.2384  0.0526
   32loPI   C4A  506  17.164   7.963   8.576 -0.2346  0.1625  0.2571
   32loPI   C5A  507  17.149   8.009   8.175  0.3350  0.1403 -0.3076
   32loPI   C6A  508  17.321   8.060   7.905 -0.1473 -0.1128 -0.1542
   32loPI   C1B  509  18.246   7.915   9.308 -0.0260  0.0134 -0.2377
   32loPI   C2B  510  18.382   7.965   8.869  0.1394  0.0313  0.0846
   32loPI   C3B  511  18.600   8.051   8.514  0.2876 -0.0698  0.1155
   32loPI   C4B  512  18.766   8.093   8.123  0.2834  0.1156 -0.0029
   33loPI    C1  513  13.243   2.998  10.094 -0.4449 -0.2342  0.0674
   33loPI    C2  514  13.137   3.147  10.450 -0.1525 -0.1503  0.1221
   33loPI    C3  515  13.286   2.776  10.424  0.3309  0.0330  0.1679
   33loPI   PO4  516  13.386   3.166   9.981  0.1548 -0.0130  0.2266
   33loPI   GL1  517  13.595   3.165   9.605  0.2949 -0.1384  0.0503
   33loPI   GL2  518  13.846   3.342   9.929 -0.1344 -0.3677 -0.2702
   33loPI   C1A  519  13.422   3.066   9.236  0.1936  0.1212  0.1045
   33loPI   C2A  520  13.392   2.992   8.815 -0.0995 -0.1368  0.0031
   33loPI   C3A  521  13.474   3.154   8.486 -0.0186 -0.3014  0.1798
   33loPI   C4A  522  13.588   3.493   8.065  0.1693  0.0032 -0.2024
   33loPI   C5A  523  13.576   3.905   7.943 -0.0771  0.1123  0.1020
   33loPI   C6A  524  13.319   4.260   7.627  0.0787  0.2819 -0.0127
   33loPI   C1B  525  13.946   3.526   9.502  0.0929  0.1403 -0.2915
   33loPI   C2B  526  13.960   3.886   9.246  0.0320  0.1576  0.0216
   33loPI   C3B  527  13.905   4.076   8.962 -0.2755  0.3077 -0.0557
   33loPI   C4B  528  13.873   4.488   8.747  0.1265  0.4669 -0.0678
   34loPI    C1  529   7.123  15.876  10.579 -0.0698  0.1015  0.3748
   34loPI    C2  530   6.942  15.649  10.854  0.0082 -0.3056  0.0978
   34loPI    C3  531   7.329  15.741  10.894 -0.0316 -0.1916  0.2276
   34loPI   PO4  532   7.009  15.721  10.325  0.1825  0.0328 -0.3783
   34loPI   GL1  533   7.061  15.821   9.930  0.0565 -0.3968 -0.1087
   34loPI   GL2  534   6.985  15.597   9.802 -0.1180  0.5536 -0.1830
   34loPI   C1A  535   7.170  16.089   9.634 -0.0439 -0.0662  0.3478
   34loPI   C2A  536   7.008  16.167   9.244 -0.0038  0.2140  0.0089
   34loPI   C3A  537   6.998  16.314   8.817  0.2023  0.1770  0.2747
   34loPI   C4A  538   6.944  16.315   8.400  0.0600 -0.0455 -0.0036
   34loPI   C5A  539   6.902  16.175   7.999  0.0447  0.2174 -0.0464
   34loPI   C6A  540   6.755  15.800   7.784  0.0780  0.2011  0.2403
   34loPI   C1B  541   7.064  15.683   9.345  0.2450  0.2376 -0.0758
   34loPI   C2B  542   7.080  15.635   8.863  0.0333  0.1040 -0.0720
   34loPI   C3B  543   7.051  15.789   8.476 -0.0198  0.3236 -0.0704
   34loPI   C4B  544   7.231  15.841   7.993 -0.1029  0.1333 -0.0730
   35loPI    C1  545   4.904   5.942  10.199  0.1028  0.1838 -0.2203
   35loPI    C2  546   5.254   5.753  10.161 -0.0320 -0.1761  0.2386
   35loPI    C3  547   5.148   5.908  10.514 -0.2261  0.1596  0.0378
   35loPI   PO4  548   4.874   6.038  10.026 -0.1207 -0.1874 -0.1999
   35loPI   GL1  549   4.961   6.083   9.572 -0.2834  0.2022  0.1405
   35loPI   GL2  550   5.021   5.770   9.574  0.0810  0.1928 -0.3336
   35loPI   C1A  551   4.981   5.933   9.138 -0.0532  0.0797 -0.0834
   35loPI   C2A  552   5.357   5.794   8.847  0.0456  0.1184  0.3071
   35loPI   C3A  553   5.381   5.583   8.572 -0.2356  0.0973 -0.0220
   35loPI   C4A  554   5.097   5.315   8.351  0.1779 -0.1764 -0.0638
   35loPI   C5A  555   4.803   5.028   8.291  0.0858  0.2481 -0.1160
   35loPI   C6A  556   4.393   4.822   8.276 -0.0183  0.1423  0.0003
   35loPI   C1B  557   4.614   5.679   9.583  0.0197  0.2038 -0.1196
   35loPI   C2B  558   4.333   5.627   9.230 -0.1045 -0.1813 -0.0738
   35loPI   C3B  559   4.323   5.756   8.714 -0.2232 -0.2322 -0.1528
   35loPI   C4B  560   4.086   5.827   8.320  0.2108  0.2267  0.1655
   36loPI    C1  561  10.054   6.724  10.159  0.0070 -0.3733  0.0339
   36loPI    C2  562  10.440   6.816  10.210 -0.0329 -0.1739 -0.0191
   36loPI    C3  563  10.338   6.459  10.061  0.1349 -0.1865 -0.1059
   36loPI   PO4  564   9.890   7.006  10.046 -0.0026  0.0977  0.0352
   36loPI   GL1  565   9.513   7.045   9.904  0.1348  0.1868  0.3165
   36loPI   GL2  566   9.596   6.718   9.829  0.1975  0.0072 -0.0917
   36loPI   C1A  567   9.612   7.250   9.527  0.1964  0.1484  0.0384
   36loPI   C2A  568   9.516   7.200   9.021 -0.2508 -0.1162  0.1642
   36loPI   C3A  569   9.637   7.420   8.566 -0.1330 -0.0498  0.4990
   36loPI   C4A  570   9.825   7.606   8.166 -0.0183 -0.2243 -0.0389
   36loPI   C5A  571   9.987   7.507   7.706 -0.1629 -0.0301 -0.2092
   36loPI   C6A  572  10.157   7.658   7.344 -0.0855 -0.4669 -0.0509
   36loPI   C1B  573   9.847   6.814   9.409 -0.0568  0.1236 -0.1544
   36loPI   C2B  574   9.832   6.847   8.944 -0.2152  0.0678  0.2591
   36loPI   C3B  575   9.590   6.919   8.554 -0.1086  0.1290  0.2387
   36loPI   C4B  576   9.361   6.844   8.168 -0.3049 -0.0396 -0.0967
   37loPI    C1  577  17.640  14.825  10.402 -0.3919 -0.0065 -0.1181
   37loPI    C2  578  17.770  14.767  10.776  0.0082  0.2411 -0.2121
   37loPI    C3  579  17.411  14.629  10.664 -0.0799  0.0920  0.2363
   37loPI   PO4  580  17.807  14.680  10.265 -0.1515  0.0201 -0.1939
   37loPI   GL1  581  17.842  14.596   9.805  0.1099 -0.1882  0.1399
   37loPI   GL2  582  17.653  14.320   9.848  0.2199  0.2833  0.1586
   37loPI   C1A  583  17.839  14.544   9.406  0.1811  0.3052  0.3766
   37loPI   C2A  584  17.684  14.349   9.012 -0.2316  0.0660  0.0121
   37loPI   C3A  585  17.633  14.118   8.708  0.0440 -0.2133 -0.1424
   37loPI   C4A  586  17.782  13.827   8.362 -0.0566  0.2575  0.2590
   37loPI   C5A  587  17.881  13.657   7.874 -0.0442  0.0475  0.0891
   37loPI   C6A  588  17.976  13.564   7.369 -0.0399 -0.1299 -0.3850
   37loPI   C1B  589  17.696  14.026   9.487  0.0563  0.0113 -0.3556
   37loPI   C2B  590  18.002  13.735   9.239 -0.0883 -0.0578  0.2168
   37loPI   C3B  591  18.398  13.705   9.326 -0.2472 -0.0867  0.0061
   37loPI   C4B  592  18.760  13.478   9.436  0.1091  0.3558 -0.0805
   38loPI    C1  593   9.726   1.948  10.214  0.2395 -0.1518  0.1211
   38loPI    C2  594   9.383   1.756  10.288  0.2361 -0.1884  0.0134
   38loPI    C3  595   9.594   1.913  10.589 -0.0349  0.1091  0.0525
   38loPI   PO4  596   9.822   1.814   9.981 -0.0901 -0.1870 -0.0655
   38loPI   GL1  597   9.881   1.917   9.518 -0.2501  0.2361 -0.3412
   38loPI   GL2  598   9.739   1.640   9.484 -0.1910 -0.2078 -0.5195
   38loPI   C1A  599   9.670   1.949   9.151  0.1670  0.0705 -0.0053
   38loPI   C2A  600   9.686   1.781   8.720  0.0877 -0.0048 -0.1545
   38loPI   C3A  601   9.691   1.799   8.338  0.1840  0.3028 -0.0461
   38loPI   C4A  602   9.872   1.787   7.909  0.0682  0.1858  0.0443
   38loPI   C5A  603  10.033   1.713   7.585 -0.0017 -0.0960  0.1639
   38loPI   C6A  604  10.514   1.863   7.586  0.1726  0.0277 -0.1700
   38loPI   C1B  605   9.622   1.419   9.100  0.2631 -0.3960  0.0539
   38loPI   C2B  606   9.595   1.074   8.829  0.1592 -0.3650 -0.0983
   38loPI   C3B  607   9.369   0.937   8.530 -0.0057  0.0415 -0.0700
   38loPI   C4B  608   9.303   0.533   8.256 -0.1674  0.1449  0.0387
   39loPI    C1  609   5.827  14.225  10.567  0.0439 -0.0026  0.1966
   39loPI    C2  610   5.875  13.828  10.582 -0.1293 -0.0206  0.3140
   39loPI    C3  611   6.135  14.069  10.768  0.1852 -0.0600 -0.0607
   39loPI   PO4  612   5.739  14.217  10.229  0.1974  0.1640 -0.1107
   39loPI   GL1  613   5.465  14.315   9.886 -0.0603 -0.0119  0.0004
   39loPI   GL2  614   5.588  14.650  10.001  0.1149  0.2247  0.2654
   39loPI   C1A  615   5.746  14.353   9.461 -0.1261 -0.2615  0.1477
   39loPI   C2A  616   5.767  14.341   9.043 -0.0290 -0.1436  0.1349
   39loPI   C3A  617   5.438  14.428   8.725  0.3538  0.1923 -0.1541
   39loPI   C4A  618   5.154  14.608   8.505 -0.0409 -0.3908  0.0269
   39loPI   C5A  619   4.731  14.647   8.288  0.2398 -0.0708  0.0442
   39loPI   C6A  620   4.379  14.427   8.475  0.1231  0.1335 -0.2389
   39loPI   C1B  621   5.534  14.777   9.649  0.3299 -0.0636 -0.1503
   39loPI   C2B  622   5.375  14.821   9.258 -0.0906  0.1264 -0.1072
   39loPI   C3B  623   5.252  14.942   8.860  0.0995  0.2663 -0.0928
   39loPI   C4B  624   5.280  15.195   8.429 -0.2492  0.1724 -0.2126
   40loPI    C1  625  12.607   5.736  10.629 -0.0519 -0.0133 -0.0983
   40loPI    C2  626  12.250   5.598  10.745 -0.0211  0.0830  0.1149
   40loPI    C3  627  12.583   5.399  10.844 -0.0050  0.0782  0.0517
   40loPI   PO4  628  12.481   5.819  10.366 -0.0204  0.1438 -0.0999
   40loPI   GL1  629  12.522   5.739  10.031  0.0773 -0.3228 -0.0426
   40loPI   GL2  630  12.775   5.902   9.805  0.0172  0.2887 -0.0676
   40loPI   C1A  631  12.303   6.017   9.607 -0.2296 -0.5071  0.1846
   40loPI   C2A  632  12.006   5.946   9.189 -0.1893 -0.2352 -0.2758
   40loPI   C3A  633  11.921   6.212   8.860  0.2041 -0.0500 -0.2226
   40loPI   C4A  634  11.739   6.445   8.695 -0.0149 -0.2350  0.1434
   40loPI   C5A  635  11.570   6.660   8.327 -0.2348 -0.1220 -0.0887
   40loPI   C6A  636  11.272   6.719   8.066  0.0350  0.0988 -0.0982
   40loPI   C1B  637  12.697   5.806   9.460  0.1283  0.5079  0.2723
   40loPI   C2B  638  12.560   5.721   9.012 -0.1884 -0.0747  0.0288
   40loPI   C3B  639  12.304   5.892   8.674  0.0882  0.1714 -0.0800
   40loPI   C4B  640  11.934   5.795   8.536  0.0989 -0.3681 -0.3559
   41loPI    C1  641   4.507   7.843  10.274 -0.0503 -0.0592  0.1621
   41loPI    C2  642   4.644   8.127  10.027 -0.0464 -0.1237  0.0901
   41loPI    C3  643   4.835   8.050  10.370 -0.1349  0.0663  0.1830
   41loPI   PO4  644   4.458   7.647  10.059  0.0676  0.1597  0.0036
   41loPI   GL1  645   4.426   7.692   9.610  0.2065  0.0754  0.3985
   41loPI   GL2  646   4.693   7.428   9.653  0.0620 -0.3539 -0.0315
   41loPI   C1A  647   4.585   7.903   9.303 -0.1322  0.2042  0.1684
   41loPI   C2A  648   4.674   7.912   8.957 -0.2388  0.1520 -0.0716
   41loPI   C3A  649   4.688   7.796   8.542  0.4109  0.1053 -0.1238
   41loPI   C4A  650   4.783   7.558   8.089 -0.2751  0.1034  0.1524
   41loPI   C5A  651   4.533   7.404   7.756  0.1885 -0.3396  0.2017
   41loPI   C6A  652   4.522   7.155   7.378  0.0002  0.0208 -0.1243
   41loPI   C1B  653   4.819   7.466   9.305 -0.0049 -0.4378  0.2696
   41loPI   C2B  654   4.783   7.360   8.848 -0.0350 -0.1422  0.0625
   41loPI   C3B  655   4.604   7.267   8.508  0.0214  0.1296 -0.1153
   41loPI   C4B  656   4.528   7.124   8.227 -0.3548 -0.0415 -0.1364
   42loPI    C1  657  14.001   9.009  10.123  0.0498 -0.0149  0.0463
   42loPI    C2  658  13.753   8.695  10.111  0.1995 -0.1335  0.0139
   42loPI    C3  659  13.693   8.988  10.377  0.0199 -0.1562 -0.0004
   42loPI   PO4  660  14.029   9.032   9.850 -0.3008 -0.0256  0.0879
   42loPI   GL1  661  13.931   9.088   9.447 -0.2144  0.2549  0.1437
   42loPI   GL2  662  13.680   9.119   9.373  0.1006 -0.0719 -0.0228
   42loPI   C1A  663  14.165   9.146   9.108 -0.0185 -0.3111  0.0490
   42loPI   C2A  664  14.216   9.304   8.723  0.1928 -0.0668 -0.0082
   42loPI   C3A  665  14.104   9.325   8.211 -0.0131  0.2950 -0.1578
   42loPI   C4A  666  14.110   9.141   7.794 -0.0571  0.2899  0.0729
   42loPI   C5A  667  14.383   8.915   7.619 -0.0408  0.2654 -0.2954
   42loPI   C6A  668  14.641   8.477   7.468 -0.2081 -0.0560  0.0921
   42loPI   C1B  669  13.668   9.179   8.937  0.0849  0.0578  0.0472
   42loPI   C2B  670  13.575   9.126   8.505  0.3559 -0.0560 -0.0415
   42loPI   C3B  671  13.592   9.071   8.006 -0.1636 -0.2497 -0.0585
   42loPI   C4B  672  13.289   8.814   7.699  0.3021  0.1326  0.2368
   43loPI    C1  673   1.631  14.556  10.941 -0.0815  0.0091 -0.1414
   43loPI    C2  674   1.384  14.851  11.049 -0.1078  0.1023 -0.4460
   43loPI    C3  675   1.319  14.478  11.179 -0.2652  0.1703 -0.3254
   43loPI   PO4  676   1.615  14.572  10.636  0.1937 -0.1331 -0.2545
   43loPI   GL1  677   1.463  14.705  10.153  0.0767 -0.2520 -0.1755
   43loPI   GL2  678   1.569  15.094  10.201  0.0638 -0.1822  0.0706
   43loPI   C1A  679   1.509  14.490   9.824 -0.2327  0.0440 -0.0209
   43loPI   C2A  680   1.705  14.399   9.420 -0.5519 -0.1284  0.0295
   43loPI   C3A  681   1.797  14.589   9.050 -0.2330 -0.2305 -0.2793
   43loPI   C4A  682   1.814  14.383   8.727  0.3164 -0.2064  0.1435
   43loPI   C5A  683   1.867  14.093   8.357 -0.3563  0.1226  0.3538
   43loPI   C6A  684   2.038  13.628   8.413  0.0233  0.1246  0.0631
   43loPI   C1B  685   1.370  15.163   9.827 -0.0120  0.0226 -0.0510
   43loPI   C2B  686   1.514  15.442   9.480 -0.0758  0.1525  0.2258
   43loPI   C3B  687   1.674  15.411   9.145 -0.0400 -0.2296  0.2069
   43loPI   C4B  688   1.575  15.564   8.868  0.0002  0.2526  0.1100
   44loPI    C1  689  17.603   3.549  10.672  0.1868  0.2554  0.1517
   44loPI    C2  690  17.895   3.305  10.794  0.1472  0.1754  0.0872
   44loPI    C3  691  17.765   3.597  11.035  0.0805  0.0292  0.2309
   44loPI   PO4  692  17.661   3.700  10.432 -0.1350  0.1838 -0.2111
   44loPI   GL1  693  17.453   3.793  10.071 -0.0693  0.0084 -0.1259
   44loPI   GL2  694  17.258   3.629   9.957  0.0788  0.3220  0.1896
   44loPI   C1A  695  17.562   3.918   9.642 -0.0214  0.0358  0.0694
   44loPI   C2A  696  17.391   3.603   9.389  0.0581 -0.1556 -0.0013
   44loPI   C3A  697  17.346   3.547   8.888  0.0052 -0.2599  0.1840
   44loPI   C4A  698  17.351   3.736   8.422 -0.0414 -0.1702  0.2156
   44loPI   C5A  699  17.320   3.812   7.965  0.1357  0.0354  0.0352
   44loPI   C6A  700  17.260   4.163   7.980  0.3299 -0.4410 -0.4198
   44loPI   C1B  701  16.891   3.606   9.673  0.1540  0.1178 -0.2121
   44loPI   C2B  702  16.740   3.235   9.468 -0.2639 -0.1492 -0.1049
   44loPI   C3B  703  16.585   3.048   9.191  0.1355 -0.1684 -0.0226
   44loPI   C4B  704  16.121   2.957   8.961  0.2831  0.2332 -0.1526
   45loPI    C1  705   4.626   6.967  10.025  0.3569 -0.1027 -0.0431
   45loPI    C2  706   4.929   6.871  10.268 -0.0221 -0.2712  0.3780
   45loPI    C3  707   4.576   6.979  10.422 -0.1174  0.1403 -0.1029
   45loPI   PO4  708   4.657   6.967   9.785  0.1159 -0.0187  0.0554
   45loPI   GL1  709   4.637   7.004   9.288  0.0139  0.1828 -0.5362
   45loPI   GL2  710   4.994   7.003   9.380 -0.0743  0.0395 -0.3863
   45loPI   C1A  711   4.471   6.925   8.887 -0.0527 -0.1310 -0.3454
   45loPI   C2A  712   4.288   6.814   8.523 -0.0288 -0.0811  0.0381
   45loPI   C3A  713   4.000   6.652   8.134 -0.2589  0.0537  0.0261
   45loPI   C4A  714   3.997   6.441   7.656 -0.0905  0.0059  0.2536
   45loPI   C5A  715   3.804   6.257   7.252  0.0377 -0.1666 -0.1608
   45loPI   C6A  716   3.673   5.972   7.048  0.1470  0.0409  0.2546
   45loPI   C1B  717   5.228   7.206   9.014 -0.3590  0.1024 -0.0079
   45loPI   C2B  718   5.468   7.286   8.772 -0.0752  0.0317 -0.1104
   45loPI   C3B  719   5.568   7.210   8.347 -0.4906 -0.0309 -0.2200
   45loPI   C4B  720   5.331   7.497   8.036 -0.0682 -0.1465 -0.3537
   46loPI    C1  721   6.069   5.226  10.122 -0.0245 -0.0347 -0.2479
   46loPI    C2  722   5.987   5.302  10.506 -0.0717 -0.4034 -0.1812
   46loPI    C3  723   5.765   5.467  10.218  0.0145 -0.0598 -0.0555
   46loPI   PO4  724   6.159   5.013  10.072 -0.1044 -0.1894  0.0021
   46loPI   GL1  725   6.276   4.918   9.654 -0.1670 -0.2421  0.4552
   46loPI   GL2  726   6.015   4.789   9.546 -0.1057  0.1232  0.1484
   46loPI   C1A  727   6.446   4.679   9.250  0.2618 -0.0799  0.1323
   46loPI   C2A  728   6.296   4.649   8.875  0.2060 -0.2210 -0.2101
   46loPI   C3A  729   5.884   4.617   8.628 -0.3830  0.1151 -0.0687
   46loPI   C4A  730   5.653   4.810   8.388  0.0836 -0.0230  0.0839
   46loPI   C5A  731   5.480   5.084   8.133  0.1771  0.2819 -0.2088
   46loPI   C6A  732   5.146   5.144   7.900 -0.1448 -0.1025 -0.0091
   46loPI   C1B  733   5.885   4.834   9.165 -0.0777  0.0243  0.1255
   46loPI   C2B  734   5.620   4.921   8.856  0.0488 -0.0975 -0.0829
   46loPI   C3B  735   5.276   4.680   8.695 -0.0410  0.0029  0.2801
   46loPI   C4B  736   5.226   4.580   8.281  0.0002 -0.1517  0.1139
   47loPI    C1  737  12.765   8.213  10.374  0.2389 -0.1844 -0.0628
   47loPI    C2  738  13.145   8.153  10.482  0.2889  0.0747 -0.0894
   47loPI    C3  739  12.992   8.523  10.484  0.0520 -0.0213 -0.1296
   47loPI   PO4  740  12.789   8.043  10.139  0.0795 -0.0721 -0.1622
   47loPI   GL1  741  12.855   8.072   9.742 -0.2312  0.1430  0.1179
   47loPI   GL2  742  12.780   7.877   9.547 -0.0857 -0.0213  0.1210
   47loPI   C1A  743  13.049   8.238   9.395 -0.1386 -0.1193  0.0128
   47loPI   C2A  744  13.300   8.030   9.096  0.0488 -0.2293  0.2521
   47loPI   C3A  745  13.500   8.055   8.641  0.0077 -0.3497  0.1705
   47loPI   C4A  746  13.607   8.042   8.245  0.0788 -0.1702 -0.1274
   47loPI   C5A  747  13.389   7.919   7.937 -0.2473 -0.3068 -0.4011
   47loPI   C6A  748  13.109   7.718   7.631  0.3135  0.2221 -0.1683
   47loPI   C1B  749  12.546   7.809   9.190 -0.0183  0.0725  0.0328
   47loPI   C2B  750  12.430   7.843   8.826 -0.2184  0.0887 -0.0977
   47loPI   C3B  751  12.550   7.853   8.389  0.1282  0.4821 -0.1879
   47loPI   C4B  752  12.767   7.782   8.013 -0.3787  0.1847 -0.2150
   48loPI    C1  753  10.545  17.916  10.451 -0.2847  0.2201  0.0611
   48loPI    C2  754  10.587  17.880  10.847 -0.1975  0.0960  0.0411
   48loPI    C3  755  10.328  17.647  10.651  0.0966 -0.1722 -0.0376
   48loPI   PO4  756  10.499  18.120  10.366 -0.2292  0.1105  0.0269
   48loPI   GL1  757  10.506  18.308  10.041  0.1558 -0.1601  0.2783
   48loPI   GL2  758  10.763  18.238   9.814  0.1916 -0.2085  0.2176
   48loPI   C1A  759  10.255  18.234   9.720  0.1710  0.2177 -0.1689
   48loPI   C2A  760  10.237  18.045   9.295  0.0150  0.2308 -0.0080
   48loPI   C3A  761  10.191  17.838   8.952 -0.0791 -0.1173  0.0922
   48loPI   C4A  762  10.230  17.713   8.536 -0.2839 -0.1824  0.2556
   48loPI   C5A  763  10.314  17.508   8.228  0.0262  0.0619  0.1950
   48loPI   C6A  764  10.177  17.127   8.004 -0.1216  0.1365 -0.1486
   48loPI   C1B  765  10.851  18.246   9.382 -0.2583  0.1502  0.1244
   48loPI   C2B  766  10.837  18.272   8.925  0.3007  0.3044 -0.0549
   48loPI   C3B  767  10.784  18.475   8.387 -0.2664 -0.1821 -0.0094
   48loPI   C4B  768  10.580  18.569   7.949  0.1972 -0.0265  0.1430
   49loPI    C1  769  15.907  18.163  10.579  0.2573  0.1558 -0.1986
   49loPI    C2  770  16.139  18.322  10.864  0.0353  0.1890 -0.0335
   49loPI    C3  771  16.184  17.938  10.761  0.0321  0.1424  0.1359
   49loPI   PO4  772  15.935  18.325  10.353 -0.1146  0.4017  0.2108
   49loPI   GL1  773  15.742  18.489   9.997  0.3682 -0.1062 -0.3314
   49loPI   GL2  774  15.512  18.424   9.851  0.0888 -0.1347 -0.0766
   49loPI   C1A  775  15.871  18.635   9.564  0.0357 -0.0119 -0.0258
   49loPI   C2A  776  15.773  18.530   9.207  0.1611  0.0673 -0.4049
   49loPI   C3A  777  15.790  18.452   8.693  0.2423 -0.1166  0.0480
   49loPI   C4A  778  15.839  18.148   8.291  0.1686 -0.0498 -0.0967
   49loPI   C5A  779  16.007  18.031   7.927 -0.1062  0.2261  0.1118
   49loPI   C6A  780  16.477  18.005   7.827 -0.1338 -0.1809 -0.0721
   49loPI   C1B  781  15.190  18.513   9.573 -0.1880  0.0113  0.0193
   49loPI   C2B  782  15.105  18.393   9.255 -0.1920 -0.2745 -0.1494
   49loPI   C3B  783  15.231  18.565   8.847 -0.0689  0.0886  0.6197
   49loPI   C4B  784  15.405  18.946   8.613 -0.1170  0.2960  0.0494
   50loPI    C1  785   6.192   4.255  10.370  0.2271  0.0013  0.1928
   50loPI    C2  786   6.204   4.270  10.769  0.2794  0.1106  0.1876
   50loPI    C3  787   6.491   4.447  10.554  0.1637  0.1918  0.0993
   50loPI   PO4  788   6.105   4.001  10.318 -0.4236  0.0156 -0.0707
   50loPI   GL1  789   6.304   3.700  10.085 -0.2028  0.0201  0.3612
   50loPI   GL2  790   6.502   3.584  10.003 -0.1971 -0.0664 -0.2623
   50loPI   C1A  791   6.296   3.823   9.600 -0.0738  0.0111  0.0803
   50loPI   C2A  792   6.304   3.802   9.179  0.2016  0.1883 -0.1486
   50loPI   C3A  793   6.514   3.687   8.811 -0.1696  0.0477 -0.0402
   50loPI   C4A  794   6.497   3.742   8.342 -0.1753 -0.0528 -0.1223
   50loPI   C5A  795   6.664   3.493   7.970 -0.0785  0.2425 -0.0912
   50loPI   C6A  796   7.003   3.045   8.029 -0.1340  0.0287 -0.0975
   50loPI   C1B  797   6.516   3.338   9.587  0.1852  0.1259 -0.0507
   50loPI   C2B  798   6.512   3.183   9.072  0.0066  0.0379 -0.2035
   50loPI   C3B  799   6.445   3.195   8.706  0.2841  0.2905 -0.1277
   50loPI   C4B  800   6.374   3.137   8.284 -0.0019 -0.2612 -0.0588
   51loPI    C1  801  15.918  15.311  10.290  0.1395  0.0345  0.1239
   51loPI    C2  802  16.053  14.964  10.144 -0.0884 -0.0170  0.0322
   51loPI    C3  803  15.804  14.966  10.457  0.1008  0.0761  0.1838
   51loPI   PO4  804  15.862  15.479  10.048  0.0532  0.4460 -0.1906
   51loPI   GL1  805  15.902  15.747   9.824 -0.0710  0.0144  0.3047
   51loPI   GL2  806  16.136  15.910   9.748 -0.2819  0.2251  0.2864
   51loPI   C1A  807  15.775  16.010   9.411 -0.0014 -0.2544  0.4515
   51loPI   C2A  808  15.850  16.229   9.032 -0.0822  0.0747 -0.0975
   51loPI   C3A  809  16.054  16.469   8.712  0.1302 -0.1983  0.0957
   51loPI   C4A  810  16.010  16.460   8.289 -0.0875  0.0122 -0.0647
   51loPI   C5A  811  15.577  16.493   8.124 -0.0715 -0.0641  0.1539
   51loPI   C6A  812  15.215  16.258   7.909 -0.0425 -0.2422 -0.2668
   51loPI   C1B  813  16.274  15.767   9.400  0.0492 -0.2595  0.1930
   51loPI   C2B  814  16.457  15.650   8.952 -0.0816  0.4335  0.1299
   51loPI   C3B  815  16.599  15.673   8.484 -0.2391  0.1990  0.0924
   51loPI   C4B  816  16.889  15.797   8.064 -0.0622  0.2352 -0.1520
   52loPI    C1  817  12.977  12.787   9.910  0.0091 -0.0150 -0.0419
   52loPI    C2  818  12.951  12.810  10.309 -0.1868  0.0724 -0.0585
   52loPI    C3  819  13.281  12.937  10.123 -0.0893  0.0189  0.0763
   52loPI   PO4  820  12.963  12.553   9.848  0.0217 -0.3138 -0.0431
   52loPI   GL1  821  12.682  12.509   9.497  0.1265  0.0332  0.1391
   52loPI   GL2  822  12.393  12.176   9.408 -0.0112 -0.1531  0.0612
   52loPI   C1A  823  12.691  12.496   9.007 -0.2144 -0.1925  0.0302
   52loPI   C2A  824  12.922  12.439   8.676 -0.1846 -0.0475  0.3241
   52loPI   C3A  825  13.265  12.333   8.373 -0.1345  0.0096  0.2378
   52loPI   C4A  826  13.534  12.251   7.983 -0.2243  0.0490  0.2409
   52loPI   C5A  827  13.883  12.144   7.895 -0.0545  0.0384  0.0028
   52loPI   C6A  828  14.138  11.784   7.616 -0.0149  0.0823 -0.0586
   52loPI   C1B  829  12.369  12.135   8.904  0.3016  0.2467  0.0465
   52loPI   C2B  830  12.523  12.175   8.594  0.0374  0.2457 -0.0716
   52loPI   C3B  831  12.493  12.131   8.224 -0.0192  0.1811 -0.0964
   52loPI   C4B  832  12.518  12.435   7.904 -0.3343 -0.1611  0.1464
   53loPI    C1  833   4.288   1.800  10.315  0.0814 -0.0938 -0.0120
   53loPI    C2  834   3.934   1.669  10.183  0.1165 -0.0567 -0.1447
   53loPI    C3  835   3.993   1.726  10.575 -0.0882  0.1255 -0.1384
   53loPI   PO4  836   4.323   2.097  10.153 -0.1499  0.2415 -0.0096
   53loPI   GL1  837   4.216   2.223   9.880  0.2261 -0.1191 -0.0698
   53loPI   GL2  838   3.978   1.951   9.795  0.2056  0.0354  0.0126
   53loPI   C1A  839   4.265   2.134   9.413  0.2785 -0.2809  0.0624
   53loPI   C2A  840   4.328   2.372   9.020 -0.2635  0.1202 -0.0066
   53loPI   C3A  841   4.331   2.549   8.608 -0.1048 -0.2404 -0.0615
   53loPI   C4A  842   4.350   3.036   8.424  0.0493 -0.1392 -0.2335
   53loPI   C5A  843   4.631   3.343   8.273  0.2903 -0.0954 -0.2527
   53loPI   C6A  844   5.046   3.374   8.383 -0.0726 -0.0488  0.1268
   53loPI   C1B  845   3.970   1.731   9.265  0.1991  0.0098 -0.1204
   53loPI   C2B  846   3.831   1.576   8.910 -0.0153 -0.2477 -0.1205
   53loPI   C3B  847   3.786   1.297   8.514  0.2229  0.0793  0.3579
   53loPI   C4B  848   3.577   1.309   8.137  0.0974  0.0914  0.1593
   54loPI    C1  849  14.221   4.931  10.290 -0.2696 -0.0941  0.2573
   54loPI    C2  850  14.084   4.797   9.939  0.0051  0.1398  0.0570
   54loPI    C3  851  14.014   5.175  10.050  0.0435  0.1086  0.1887
   54loPI   PO4  852  14.534   4.861  10.271 -0.1842 -0.2791  0.2767
   54loPI   GL1  853  14.873   4.832  10.018  0.1559  0.4109 -0.0018
   54loPI   GL2  854  14.893   4.545  10.163  0.0768 -0.2565 -0.3145
   54loPI   C1A  855  14.963   4.795   9.598 -0.1336  0.3419  0.3008
   54loPI   C2A  856  15.004   4.460   9.198  0.2847  0.0425  0.1460
   54loPI   C3A  857  14.774   4.328   8.928 -0.2220  0.2115  0.0385
   54loPI   C4A  858  14.386   4.168   8.922 -0.1303  0.2011 -0.0430
   54loPI   C5A  859  14.112   4.056   8.568  0.1307 -0.0395  0.0956
   54loPI   C6A  860  14.140   4.143   8.061 -0.0045 -0.2686  0.0446
   54loPI   C1B  861  14.872   4.340   9.739  0.1637  0.4276 -0.1785
   54loPI   C2B  862  14.551   4.392   9.440 -0.1404 -0.0657  0.0601
   54loPI   C3B  863  14.170   4.316   9.333  0.0122 -0.0868 -0.0217
   54loPI   C4B  864  13.780   4.500   9.255  0.4175  0.5117 -0.1494
   55loPI    C1  865  15.004   0.053  10.379 -0.0031 -0.2068 -0.0440
   55loPI    C2  866  15.151   0.150  10.738  0.1844 -0.1370 -0.1380
   55loPI    C3  867  14.940   0.418  10.529  0.1606 -0.1443 -0.1235
   55loPI   PO4  868  15.174  -0.014  10.231  0.0070 -0.2161  0.1306
   55loPI   GL1  869  15.077  -0.270   9.835 -0.0673 -0.0922 -0.3198
   55loPI   GL2  870  15.375  -0.393   9.737  0.0047 -0.0232  0.0657
   55loPI   C1A  871  14.776  -0.408   9.471 -0.6543 -0.0832  0.2598
   55loPI   C2A  872  14.722  -0.182   9.084  0.0441 -0.1477  0.2330
   55loPI   C3A  873  14.839   0.011   8.769 -0.0888  0.3541 -0.0230
   55loPI   C4A  874  14.850  -0.077   8.420 -0.0570 -0.0882 -0.0065
   55loPI   C5A  875  15.083  -0.284   8.021  0.0387 -0.3635  0.1135
   55loPI   C6A  876  14.881  -0.570   7.799  0.0485  0.0591  0.3715
   55loPI   C1B  877  15.500  -0.232   9.429  0.2155 -0.3615  0.0517
   55loPI   C2B  878  15.503  -0.153   8.997  0.2563  0.1984  0.0864
   55loPI   C3B  879  15.366  -0.172   8.569  0.0245 -0.1198 -0.0584
   55loPI   C4B  880  15.414   0.183   8.299  0.0267 -0.0204  0.1266
   56loPI    C1  881  12.358   6.685  10.338  0.0765  0.1270 -0.1339
   56loPI    C2  882  12.493   6.915  10.635 -0.1103  0.3153 -0.1924
   56loPI    C3  883  12.135   6.741  10.665  0.0362  0.0161 -0.1420
   56loPI   PO4  884  12.314   6.801  10.114  0.1117  0.1402 -0.1654
   56loPI   GL1  885  12.372   6.657   9.699  0.0554 -0.1860 -0.0185
   56loPI   GL2  886  12.494   6.815   9.498 -0.3693 -0.3661 -0.2763
   56loPI   C1A  887  12.045   6.558   9.392  0.3522 -0.4232 -0.0471
   56loPI   C2A  888  11.753   6.664   9.197 -0.6097 -0.1439 -0.2732
   56loPI   C3A  889  11.717   6.923   8.891  0.0035  0.0135 -0.1394
   56loPI   C4A  890  11.684   7.235   8.549 -0.0821 -0.0584 -0.1132
   56loPI   C5A  891  11.309   7.365   8.225 -0.0150 -0.1121 -0.0987
   56loPI   C6A  892  11.110   7.353   7.811 -0.0533 -0.2005 -0.1452
   56loPI   C1B  893  12.372   6.859   9.053  0.1128  0.2270  0.2440
   56loPI   C2B  894  12.217   6.851   8.758  0.0129  0.1017 -0.0956
   56loPI   C3B  895  12.108   6.667   8.480 -0.1431 -0.2287  0.1545
   56loPI   C4B  896  12.151   6.699   8.099  0.0035 -0.1172  0.1602
   57loPI    C1  897   3.405   8.137  10.126 -0.0948 -0.0864  0.0712
   57loPI    C2  898   3.730   7.906  10.160 -0.0553 -0.0440 -0.0134
   57loPI    C3  899   3.638   8.167  10.450  0.0522  0.0277 -0.0433
   57loPI   PO4  900   3.458   8.188   9.905  0.0055 -0.5459  0.0308
   57loPI   GL1  901   3.689   8.144   9.542  0.3561  0.0969 -0.1778
   57loPI   GL2  902   3.392   8.250   9.414 -0.2573  0.1844  0.0566
   57loPI   C1A  903   3.819   8.283   9.191 -0.0452  0.0605 -0.0066
   57loPI   C2A  904   3.892   8.485   8.822 -0.0020  0.0517 -0.2359
   57loPI   C3A  905   4.126   8.565   8.457  0.1429 -0.1100 -0.0890
   57loPI   C4A  906   4.399   8.749   8.100  0.1175  0.0510  0.2018
   57loPI   C5A  907   4.638   8.574   7.893 -0.1692 -0.2900 -0.0525
   57loPI   C6A  908   5.022   8.397   8.013 -0.0806  0.0688 -0.0031
   57loPI   C1B  909   3.413   8.255   8.893  0.2202 -0.2583 -0.0956
   57loPI   C2B  910   3.547   8.246   8.559  0.3944 -0.1307  0.3776
   57loPI   C3B  911   3.540   8.234   8.187 -0.1528 -0.2902 -0.3199
   57loPI   C4B  912   3.733   7.952   7.881 -0.0848  0.1800  0.3605
   58loPI    C1  913   3.428  10.062  10.279 -0.0547 -0.0666  0.1071
   58loPI    C2  914   3.547  10.392  10.086 -0.3604  0.0746  0.1528
   58loPI    C3  915   3.676  10.320  10.458 -0.0722 -0.0031  0.0404
   58loPI   PO4  916   3.215  10.044  10.110  0.2434  0.0562 -0.0520
   58loPI   GL1  917   3.083   9.827   9.775 -0.2638  0.0377  0.0420
   58loPI   GL2  918   3.173   9.490   9.746 -0.1689 -0.0699  0.0693
   58loPI   C1A  919   3.220  10.132   9.392 -0.0943 -0.1202  0.2087
   58loPI   C2A  920   3.051  10.128   8.950  0.6339 -0.0821 -0.0856
   58loPI   C3A  921   3.187  10.047   8.607 -0.2751 -0.2945  0.4832
   58loPI   C4A  922   3.143  10.053   8.158  0.0464  0.1095 -0.0864
   58loPI   C5A  923   3.287  10.135   7.746  0.0182 -0.3099 -0.0055
   58loPI   C6A  924   3.486  10.271   7.475  0.1807  0.2373  0.0517
   58loPI   C1B  925   3.090   9.570   9.342  0.1870  0.3068 -0.0066
   58loPI   C2B  926   3.038   9.605   8.877  0.0336 -0.0923  0.1040
   58loPI   C3B  927   3.167   9.580   8.391 -0.0850 -0.2121  0.0169
   58loPI   C4B  928   3.525   9.607   8.043  0.1400 -0.1396  0.0634
   59loPI    C1  929   9.958   9.222  10.415 -0.1846  0.0960 -0.0485
   59loPI    C2  930   9.881   9.467  10.722 -0.0574 -0.0333  0.0881
   59loPI    C3  931  10.030   9.102  10.790 -0.1114 -0.0960 -0.1229
   59loPI   PO4  932  10.085   9.454  10.204  0.1452  0.0712  0.2190
   59loPI   GL1  933  10.415   9.498   9.848 -0.1364  0.4557  0.0419
   59loPI   GL2  934  10.682   9.483   9.716  0.2170  0.4173 -0.0132
   59loPI   C1A  935  10.248   9.150   9.613 -0.2464  0.0477 -0.1105
   59loPI   C2A  936  10.164   8.958   9.273 -0.2165  0.2276  0.0423
   59loPI   C3A  937   9.972   8.987   8.887  0.0795  0.1159  0.3256
   59loPI   C4A  938   9.906   9.052   8.478 -0.1323  0.1937 -0.1409
   59loPI   C5A  939   9.640   9.172   8.106 -0.1110 -0.2429  0.0708
   59loPI   C6A  940   9.365   9.090   7.818 -0.1994 -0.1225  0.1373
   59loPI   C1B  941  10.727   9.363   9.235 -0.0296  0.0434 -0.1096
   59loPI   C2B  942  10.868   9.285   8.838  0.0605 -0.1246  0.2887
   59loPI   C3B  943  10.923   9.328   8.318 -0.0132  0.0668 -0.1119
   59loPI   C4B  944  11.036   9.229   7.908 -0.1293 -0.1718  0.0378
   60loPI    C1  945   7.386  12.422  10.501 -0.0164 -0.0396  0.0025
   60loPI    C2  946   7.621  12.733  10.593 -0.0656  0.0056 -0.0240
   60loPI    C3  947   7.466  12.505  10.884 -0.0733  0.0387 -0.0024
   60loPI   PO4  948   7.425  12.398  10.250  0.1739  0.2468  0.0280
   60loPI   GL1  949   7.361  12.239   9.961  0.2124 -0.0001  0.0016
   60loPI   GL2  950   7.138  12.150   9.873 -0.0840 -0.5208  0.4262
   60loPI   C1A  951   7.317  12.657   9.693  0.1828  0.0030 -0.2641
   60loPI   C2A  952   7.399  12.802   9.353  0.3723 -0.1849 -0.1751
   60loPI   C3A  953   7.492  12.778   9.007 -0.4620 -0.0349 -0.1450
   60loPI   C4A  954   7.528  13.006   8.655 -0.0424 -0.1206  0.0242
   60loPI   C5A  955   7.693  12.942   8.242 -0.1310 -0.2409 -0.1426
   60loPI   C6A  956   7.842  12.528   8.112  0.1281 -0.0301 -0.0965
   60loPI   C1B  957   7.171  12.166   9.485 -0.1125  0.2459  0.2833
   60loPI   C2B  958   7.232  12.117   9.031  0.2238  0.1176 -0.2562
   60loPI   C3B  959   7.413  12.181   8.582  0.2252  0.1600  0.1519
   60loPI   C4B  960   7.280  12.381   8.159  0.0549 -0.1337  0.0664
   61loPI    C1  961  14.482   5.916  10.252 -0.2554 -0.1267  0.1787
   61loPI    C2  962  14.545   5.992  10.640 -0.1481  0.0892  0.1204
   61loPI    C3  963  14.695   5.660  10.474  0.2536  0.2528  0.1451
   61loPI   PO4  964  14.530   6.075  10.143  0.1850 -0.0642  0.0646
   61loPI   GL1  965  14.521   6.325   9.801 -0.2558  0.0188  0.1170
   61loPI   GL2  966  14.285   6.440   9.640  0.0611  0.2393 -0.1290
   61loPI   C1A  967  14.848   6.157   9.477 -0.2974  0.2835  0.0290
   61loPI   C2A  968  14.975   6.130   9.054  0.0524 -0.1073 -0.0815
   61loPI   C3A  969  15.121   6.459   8.670 -0.1299  0.0114 -0.1952
   61loPI   C4A  970  15.251   6.319   8.223  0.3369  0.1014 -0.0069
   61loPI   C5A  971  15.519   6.052   7.975 -0.0247 -0.0883  0.1622
   61loPI   C6A  972  15.688   5.638   7.750 -0.1820  0.0905  0.0958
   61loPI   C1B  973  14.186   6.493   9.228  0.1681  0.2508 -0.1866
   61loPI   C2B  974  13.909   6.340   8.848  0.4545 -0.0312  0.0739
   61loPI   C3B  975  13.889   6.439   8.453 -0.1713 -0.4399 -0.1145
   61loPI   C4B  976  13.757   6.564   7.948 -0.2306 -0.0161 -0.1158
   62loPI    C1  977   9.332   3.155  10.366 -0.0688  0.0041 -0.2279
   62loPI    C2  978   9.391   3.465  10.612 -0.0636 -0.0320 -0.1836
   62loPI    C3  979   9.703   3.289  10.434 -0.0751  0.0533 -0.2894
   62loPI   PO4  980   9.177   3.270  10.196  0.1404 -0.2758 -0.2384
   62loPI   GL1  981   9.173   3.325   9.820  0.3072  0.0875 -0.2514
   62loPI   GL2  982   9.406   3.190   9.657  0.0590  0.3534 -0.0373
   62loPI   C1A  983   9.072   3.666   9.500 -0.1097  0.2700 -0.0211
   62loPI   C2A  984   8.813   3.749   9.249 -0.3894 -0.1181  0.0585
   62loPI   C3A  985   8.827   3.714   8.798 -0.1324  0.2454  0.1675
   62loPI   C4A  986   8.660   3.629   8.335 -0.3244 -0.3759 -0.1671
   62loPI   C5A  987   8.532   3.715   7.933  0.2692 -0.0582  0.0786
   62loPI   C6A  988   8.348   3.832   7.583  0.2751 -0.1438 -0.2110
   62loPI   C1B  989   9.329   3.341   9.207  0.0035 -0.1256 -0.1444
   62loPI   C2B  990   9.223   3.361   8.838 -0.3584 -0.2785 -0.1745
   62loPI   C3B  991   9.166   3.350   8.277  0.0444  0.0492 -0.1945
   62loPI   C4B  992   8.778   3.216   8.034 -0.2277  0.3635 -0.1556
   63loPI    C1  993  13.501  14.599  10.093  0.2293 -0.1568 -0.0573
   63loPI    C2  994  13.846  14.794  10.146  0.1907 -0.0956 -0.0296
   63loPI    C3  995  13.768  14.464  10.358  0.1548 -0.0068  0.0960
   63loPI   PO4  996  13.448  14.587   9.851 -0.0199 -0.0767  0.1264
   63loPI   GL1  997  13.328  14.416   9.543  0.0956 -0.0393  0.0157
   63loPI   GL2  998  13.382  14.068   9.538 -0.0259  0.0054 -0.2175
   63loPI   C1A  999  13.124  14.501   9.205 -0.1106  0.0444 -0.1483
   63loPI   C2A 1000  12.826  14.449   8.884  0.1074 -0.2530  0.0518
   63loPI   C3A 1001  12.777  14.647   8.481  0.3457  0.2362  0.2302
   63loPI   C4A 1002  12.745  14.684   8.105 -0.0544  0.2510 -0.0521
   63loPI   C5A 1003  12.819  14.457   7.668 -0.1746  0.0951  0.0009
   63loPI   C6A 1004  12.990  14.707   7.293  0.2632 -0.2380 -0.1468
   63loPI   C1B 1005  13.606  14.290   9.110 -0.1177  0.3547 -0.1917
   63loPI   C2B 1006  13.565  14.469   8.785  0.0761 -0.3194 -0.1363
   63loPI   C3B 1007  13.718  14.745   8.327  0.0010  0.1518  0.3929
   63loPI   C4B 1008  13.729  15.020   7.911 -0.1717  0.1144  0.2918
   64loPI    C1 1009   2.120   2.331  10.696  0.0108  0.0158  0.2333
   64loPI    C2 1010   1.742   2.304  10.824  0.0037  0.0811  0.2265
   64loPI    C3 1011   2.035   2.400  11.080  0.0202 -0.0011  0.2385
   64loPI   PO4 1012   2.066   2.262  10.405  0.1992  0.2621 -0.3178
   64loPI   GL1 1013   2.350   2.168  10.071 -0.0344  0.1143  0.1722
   64loPI   GL2 1014   2.121   2.300   9.888 -0.0280 -0.0416 -0.2064
   64loPI   C1A 1015   2.217   1.854   9.674  0.0884 -0.2201 -0.1537
   64loPI   C2A 1016   2.123   1.644   9.266  0.1002  0.0905 -0.0372
   64loPI   C3A 1017   2.328   1.599   8.965  0.2574  0.1837  0.0025
   64loPI   C4A 1018   2.452   1.651   8.495  0.0969 -0.1480  0.2780
   64loPI   C5A 1019   2.299   1.966   8.124 -0.2305  0.0491  0.0246
   64loPI   C6A 1020   2.299   2.241   7.797 -0.2153  0.2046 -0.2428
   64loPI   C1B 1021   2.278   2.423   9.572  0.2129 -0.2662 -0.2769
   64loPI   C2B 1022   2.154   2.651   9.230 -0.0331 -0.2224 -0.1085
   64loPI   C3B 1023   1.994   2.986   9.000  0.0458 -0.0724 -0.0816
   64loPI   C4B 1024   1.750   3.145   8.712  0.0742 -0.1621 -0.2462
   65loPI    C1 1025   8.417   5.745  10.331 -0.1526 -0.2455  0.1244
   65loPI    C2 1026   8.408   5.355  10.422  0.0447 -0.2134  0.2884
   65loPI    C3 1027   8.397   5.628  10.714 -0.0191 -0.0966  0.1775
   65loPI   PO4 1028   8.635   5.722  10.111 -0.3166 -0.0167  0.1635
   65loPI   GL1 1029   8.646   6.003   9.797  0.0277  0.0482  0.2326
   65loPI   GL2 1030   9.036   5.828   9.737  0.2518 -0.0195  0.0176
   65loPI   C1A 1031   8.408   6.008   9.328  0.0944  0.0741  0.3789
   65loPI   C2A 1032   8.343   5.995   8.852  0.1716 -0.1554 -0.2834
   65loPI   C3A 1033   8.390   6.227   8.512 -0.0366  0.1288 -0.0179
   65loPI   C4A 1034   8.742   6.448   8.380  0.3692  0.0676  0.0097
   65loPI   C5A 1035   8.887   6.634   8.057 -0.0308 -0.2762 -0.0079
   65loPI   C6A 1036   9.161   6.508   7.790 -0.2496 -0.0320  0.1293
   65loPI   C1B 1037   9.060   5.834   9.411  0.1101 -0.2213 -0.3712
   65loPI   C2B 1038   8.761   5.734   9.041 -0.1552  0.0090 -0.1380
   65loPI   C3B 1039   8.800   5.910   8.573 -0.0640  0.1773  0.1142
   65loPI   C4B 1040   9.025   5.979   8.330  0.3143  0.0593  0.1303
   66loPI    C1 1041   8.971   8.274  10.362 -0.1151  0.1461  0.0481
   66loPI    C2 1042   8.759   8.016  10.142  0.0585  0.0170  0.0298
   66loPI    C3 1043   8.672   8.068  10.529 -0.0594  0.0268  0.0022
   66loPI   PO4 1044   9.007   8.430  10.126  0.3862 -0.0334  0.2071
   66loPI   GL1 1045   9.149   8.365   9.648 -0.1202 -0.0002 -0.3189
   66loPI   GL2 1046   9.003   8.117   9.701 -0.1569  0.0186 -0.0075
   66loPI   C1A 1047   9.241   8.331   9.236  0.1851 -0.0873  0.1197
   66loPI   C2A 1048   9.311   8.330   8.796  0.0613  0.0839  0.0117
   66loPI   C3A 1049   9.173   8.306   8.303  0.0426 -0.1194 -0.3673
   66loPI   C4A 1050   8.846   8.182   8.040  0.2383 -0.0947  0.0555
   66loPI   C5A 1051   8.801   8.103   7.628  0.0792  0.1580  0.1868
   66loPI   C6A 1052   8.390   8.277   7.399 -0.0191 -0.1694  0.0860
   66loPI   C1B 1053   8.692   8.245   9.287 -0.0550  0.1674  0.1108
   66loPI   C2B 1054   8.692   8.301   8.838 -0.0157 -0.1679 -0.3386
   66loPI   C3B 1055   8.526   8.079   8.429 -0.2344 -0.1624 -0.2014
   66loPI   C4B 1056   8.359   8.047   8.015 -0.0522  0.0443 -0.2076
   67loPI    C1 1057  16.450   6.912  10.529  0.2455  0.1589  0.0295
   67loPI    C2 1058  16.640   6.600  10.692  0.1659 -0.0036 -0.1843
   67loPI    C3 1059  16.340   6.777  10.889 -0.1134 -0.3728 -0.2659
   67loPI   PO4 1060  16.354   6.839  10.195 -0.1740  0.0224 -0.0055
   67loPI   GL1 1061  16.508   6.946   9.840 -0.0447  0.1460  0.2419
   67loPI   GL2 1062  16.424   7.125   9.632  0.0530 -0.0023  0.0084
   67loPI   C1A 1063  16.559   6.686   9.466 -0.1192  0.1022 -0.0654
   67loPI   C2A 1064  16.509   6.589   9.169  0.0786 -0.2327 -0.1419
   67loPI   C3A 1065  16.458   6.335   8.786 -0.0119  0.0939  0.3069
   67loPI   C4A 1066  16.649   6.177   8.430 -0.2272 -0.1915 -0.1016
   67loPI   C5A 1067  16.617   6.296   8.028 -0.1603  0.2500  0.0107
   67loPI   C6A 1068  16.605   6.401   7.635  0.2168  0.0146 -0.0768
   67loPI   C1B 1069  16.513   7.087   9.219 -0.0880  0.0070 -0.1229
   67loPI   C2B 1070  16.431   6.809   8.762 -0.1411  0.0762 -0.0892
   67loPI   C3B 1071  16.449   6.676   8.353  0.2157  0.2405 -0.1121
   67loPI   C4B 1072  16.201   6.637   8.012 -0.0573  0.0397 -0.0938
   68loPI    C1 1073  12.077  17.094  10.253 -0.1429  0.0170  0.1552
   68loPI    C2 1074  12.035  16.865   9.928 -0.1901  0.1909  0.0374
   68loPI    C3 1075  11.807  16.800  10.249 -0.0744 -0.0453  0.0738
   68loPI   PO4 1076  12.144  17.307  10.183 -0.1702 -0.0279 -0.1435
   68loPI   GL1 1077  12.079  17.360   9.727  0.0626 -0.4736  0.1813
   68loPI   GL2 1078  11.790  17.492   9.874  0.2650 -0.0333 -0.1324
   68loPI   C1A 1079  12.132  17.233   9.350  0.0979 -0.1595  0.1368
   68loPI   C2A 1080  12.143  16.771   9.045  0.0570 -0.0972  0.0770
   68loPI   C3A 1081  12.069  16.816   8.614  0.2149  0.0667 -0.1949
   68loPI   C4A 1082  11.992  16.820   8.215  0.0002 -0.3437 -0.1330
   68loPI   C5A 1083  11.922  16.580   7.786 -0.1540  0.1677 -0.0102
   68loPI   C6A 1084  11.905  16.430   7.376  0.2139  0.1790  0.2210
   68loPI   C1B 1085  11.584  17.306   9.601  0.1995  0.1650  0.2624
   68loPI   C2B 1086  11.687  17.178   9.086 -0.0880  0.0686 -0.0028
   68loPI   C3B 1087  11.677  17.141   8.666 -0.1858 -0.0305 -0.0460
   68loPI   C4B 1088  11.716  17.243   8.267 -0.0684 -0.0255  0.0013
   69loPI    C1 1089  16.609   7.764  10.144 -0.1830 -0.0719 -0.0783
   69loPI    C2 1090  16.647   7.420   9.943 -0.2192 -0.0822 -0.0675
   69loPI    C3 1091  16.969   7.647  10.014 -0.1658 -0.2025  0.0823
   69loPI   PO4 1092  16.314   7.762  10.166 -0.0970  0.0556  0.2148
   69loPI   GL1 1093  16.062   7.763   9.820 -0.2241 -0.1775  0.0661
   69loPI   GL2 1094  16.275   7.646   9.647 -0.0155 -0.0031 -0.5072
   69loPI   C1A 1095  16.096   8.061   9.414  0.0216  0.1260  0.1342
   69loPI   C2A 1096  15.871   8.286   9.131  0.0692 -0.1589 -0.0448
   69loPI   C3A 1097  15.677   8.094   8.830 -0.1302 -0.0866 -0.0113
   69loPI   C4A 1098  15.734   8.055   8.412 -0.0108  0.0090 -0.2710
   69loPI   C5A 1099  15.896   8.100   8.042 -0.1383  0.0998  0.2183
   69loPI   C6A 1100  15.855   7.946   7.659 -0.1125  0.1399  0.1590
   69loPI   C1B 1101  16.358   7.574   9.221 -0.0646  0.0938  0.0500
   69loPI   C2B 1102  16.437   7.455   8.901  0.0360 -0.1443 -0.1197
   69loPI   C3B 1103  16.741   7.226   8.699  0.1045 -0.0879  0.1871
   69loPI   C4B 1104  16.771   7.047   8.390 -0.2339  0.1180  0.1672
   70loPI    C1 1105  15.936  16.726  10.572  0.1113 -0.4345 -0.0826
   70loPI    C2 1106  15.558  16.642  10.671  0.0475 -0.0891 -0.0206
   70loPI    C3 1107  15.840  16.662  10.955  0.0691 -0.1280 -0.0393
   70loPI   PO4 1108  16.084  16.419  10.303 -0.3618  0.0872 -0.0985
   70loPI   GL1 1109  16.350  16.387   9.910  0.0343  0.1242  0.0704
   70loPI   GL2 1110  16.618  16.498  10.098  0.1408 -0.2444  0.2290
   70loPI   C1A 1111  16.588  16.151   9.601 -0.2004  0.0435 -0.1301
   70loPI   C2A 1112  16.825  15.925   9.217  0.2358 -0.1368  0.0666
   70loPI   C3A 1113  16.973  15.973   8.812 -0.2704  0.0700 -0.2803
   70loPI   C4A 1114  16.810  16.146   8.490 -0.1967 -0.0289 -0.1441
   70loPI   C5A 1115  16.509  16.359   8.393 -0.0940 -0.1712  0.0967
   70loPI   C6A 1116  16.291  16.869   8.459  0.3555 -0.0850 -0.0343
   70loPI   C1B 1117  16.684  16.680   9.672  0.4535 -0.1739  0.1223
   70loPI   C2B 1118  16.637  16.626   9.260  0.2790 -0.1421  0.0222
   70loPI   C3B 1119  16.484  16.675   8.888  0.0519 -0.3265  0.1045
   70loPI   C4B 1120  16.792  16.726   8.555  0.0913  0.1088 -0.1491
   71loPI    C1 1121  15.535  13.971  10.326 -0.1230 -0.1894  0.0639
   71loPI    C2 1122  15.218  13.735  10.382 -0.0757 -0.2345  0.1418
   71loPI    C3 1123  15.361  13.953  10.685 -0.2220  0.0234  0.0285
   71loPI   PO4 1124  15.421  14.082  10.023 -0.2018  0.2524 -0.1746
   71loPI   GL1 1125  15.509  14.146   9.611  0.6078  0.4140  0.2195
   71loPI   GL2 1126  15.837  14.221   9.695 -0.0075 -0.2490  0.1386
   71loPI   C1A 1127  15.199  14.239   9.385  0.1899  0.0715 -0.1479
   71loPI   C2A 1128  14.836  14.544   9.390  0.1040 -0.0700  0.1492
   71loPI   C3A 1129  14.395  14.603   9.221  0.0213  0.0809 -0.0671
   71loPI   C4A 1130  14.110  14.524   8.926 -0.0846  0.0856 -0.0422
   71loPI   C5A 1131  14.082  14.350   8.513 -0.1502 -0.4070  0.3295
   71loPI   C6A 1132  14.273  14.064   8.383 -0.0032  0.1217 -0.2496
   71loPI   C1B 1133  15.841  14.404   9.244  0.3101 -0.1330  0.0633
   71loPI   C2B 1134  15.582  14.348   8.996  0.0831  0.1851  0.1242
   71loPI   C3B 1135  15.401  14.192   8.562  0.1129 -0.0668 -0.0510
   71loPI   C4B 1136  15.377  13.796   8.277 -0.3866  0.3280 -0.2981
   72loPI    C1 1137   1.127   4.307  10.422 -0.0825  0.1896 -0.0423
   72loPI    C2 1138   0.973   3.979  10.254  0.1756 -0.0320  0.1436
   72loPI    C3 1139   0.899   4.060  10.638 -0.0310  0.2247  0.0530
   72loPI   PO4 1140   1.052   4.545  10.373  0.0915  0.1265 -0.2224
   72loPI   GL1 1141   1.103   4.754  10.014  0.0669  0.1819  0.0953
   72loPI   GL2 1142   1.005   4.442   9.890  0.1182  0.0331 -0.3500
   72loPI   C1A 1143   1.300   4.774   9.579  0.0703  0.0963 -0.0013
   72loPI   C2A 1144   1.282   4.635   9.125 -0.3612 -0.0613 -0.4206
   72loPI   C3A 1145   1.276   4.805   8.638 -0.0177  0.0145  0.1295
   72loPI   C4A 1146   1.184   4.529   8.314 -0.3477 -0.1743  0.2558
   72loPI   C5A 1147   1.132   4.173   8.057  0.0547 -0.2142  0.2067
   72loPI   C6A 1148   1.185   3.826   7.871 -0.1533 -0.3133 -0.3026
   72loPI   C1B 1149   1.091   4.284   9.452 -0.2128 -0.2712  0.0375
   72loPI   C2B 1150   0.955   4.200   8.986  0.2881 -0.0707 -0.2663
   72loPI   C3B 1151   0.800   4.394   8.611  0.0045 -0.0889  0.2304
   72loPI   C4B 1152   0.662   4.162   8.246 -0.3758  0.1432  0.2799
   73loPI    C1 1153   2.971   1.013  10.557  0.3366  0.3247 -0.0609
   73loPI    C2 1154   3.363   0.972  10.621  0.2883 -0.2391 -0.0749
   73loPI    C3 1155   3.102   0.799  10.869  0.0461  0.0533 -0.1202
   73loPI   PO4 1156   2.924   1.123  10.238 -0.1603 -0.0001  0.1073
   73loPI   GL1 1157   2.925   1.158   9.881 -0.1349  0.0646  0.1075
   73loPI   GL2 1158   2.706   1.198   9.632 -0.0361  0.0266 -0.1892
   73loPI   C1A 1159   3.224   0.856   9.667  0.1890  0.2073 -0.0575
   73loPI   C2A 1160   3.413   0.776   9.307  0.3440 -0.2866  0.0527
   73loPI   C3A 1161   3.465   0.885   8.935  0.3089 -0.2178  0.2432
   73loPI   C4A 1162   3.300   0.952   8.479 -0.0700 -0.0171  0.1242
   73loPI   C5A 1163   3.321   0.812   8.147 -0.0962  0.0799 -0.0624
   73loPI   C6A 1164   3.569   0.411   8.004 -0.1816  0.1787  0.0180
   73loPI   C1B 1165   2.336   1.121   9.391  0.4773 -0.0435 -0.2281
   73loPI   C2B 1166   2.405   1.133   8.947  0.1535 -0.1256  0.1703
   73loPI   C3B 1167   2.454   1.170   8.542 -0.0605  0.1928  0.2951
   73loPI   C4B 1168   2.184   1.235   8.310  0.3177  0.1789  0.2108
   74loPI    C1 1169   5.992   2.549  10.786  0.0428 -0.3116 -0.0724
   74loPI    C2 1170   5.650   2.734  10.692  0.1127 -0.0036  0.2598
   74loPI    C3 1171   5.641   2.380  10.877 -0.0296  0.0683  0.3930
   74loPI   PO4 1172   6.060   2.490  10.531  0.2936 -0.3580 -0.0429
   74loPI   GL1 1173   6.011   2.217  10.209 -0.0855  0.1149 -0.0572
   74loPI   GL2 1174   5.765   2.205  10.119 -0.0640 -0.0432  0.1999
   74loPI   C1A 1175   6.221   2.153   9.878  0.0921 -0.1260  0.1068
   74loPI   C2A 1176   6.269   2.267   9.414  0.0016 -0.0518  0.1508
   74loPI   C3A 1177   6.297   2.170   8.903 -0.1941 -0.1723  0.0902
   74loPI   C4A 1178   6.110   1.857   8.694  0.1235 -0.2309  0.2351
   74loPI   C5A 1179   5.785   1.865   8.382 -0.1510 -0.3958  0.2437
   74loPI   C6A 1180   5.345   1.795   8.228  0.1971  0.1003  0.0491
   74loPI   C1B 1181   5.719   2.407   9.722  0.2262  0.2768 -0.1248
   74loPI   C2B 1182   5.829   2.546   9.386  0.0941  0.2009 -0.0663
   74loPI   C3B 1183   5.741   2.622   8.924  0.4306  0.1810 -0.0748
   74loPI   C4B 1184   5.750   2.526   8.493 -0.0653 -0.1776  0.1210
   75loPI    C1 1185   4.294   9.956  10.001  0.2752 -0.0970 -0.0303
   75loPI    C2 1186   4.217  10.071  10.376  0.0073  0.1343 -0.1530
   75loPI    C3 1187   3.926  10.075  10.102  0.1912 -0.0728 -0.3553
   75loPI   PO4 1188   4.391   9.763   9.964  0.1002 -0.1487 -0.0484
   75loPI   GL1 1189   4.396   9.569   9.699  0.0053  0.0143 -0.3925
   75loPI   GL2 1190   4.214   9.561   9.431 -0.1754 -0.1823 -0.0063
   75loPI   C1A 1191   4.719   9.509   9.390 -0.5311  0.0780  0.0477
   75loPI   C2A 1192   4.879   9.500   8.888  0.0335  0.1588  0.3877
   75loPI   C3A 1193   5.011   9.545   8.598 -0.3912  0.0540 -0.0181
   75loPI   C4A 1194   5.094   9.696   8.252  0.3217 -0.0124 -0.0735
   75loPI   C5A 1195   5.316   9.645   7.962  0.0515 -0.1069  0.1657
   75loPI   C6A 1196   5.225   9.371   7.637 -0.0235  0.2177 -0.0780
   75loPI   C1B 1197   3.991   9.710   9.164 -0.0627  0.3294 -0.1079
   75loPI   C2B 1198   4.047   9.788   8.798  0.2866  0.0031  0.1512
   75loPI   C3B 1199   4.111   9.767   8.330  0.0152  0.1284  0.1177
   75loPI   C4B 1200   3.974   9.858   7.995  0.0398  0.2570 -0.0225
   76loPI    C1 1201   8.679   3.191  10.389 -0.0929  0.1294 -0.0522
   76loPI    C2 1202   8.927   3.182  10.703  0.0995 -0.0178 -0.2059
   76loPI    C3 1203   8.559   3.028  10.734  0.0474  0.1455  0.0047
   76loPI   PO4 1204   8.750   3.440  10.346  0.0569  0.0462  0.0091
   76loPI   GL1 1205   8.787   3.601   9.960 -0.0249  0.0683 -0.2018
   76loPI   GL2 1206   8.478   3.473   9.910  0.2988 -0.0415  0.0966
   76loPI   C1A 1207   8.768   4.007   9.707 -0.0194  0.4951 -0.0545
   76loPI   C2A 1208   8.898   4.261   9.424 -0.2318 -0.3999  0.0053
   76loPI   C3A 1209   8.861   4.198   8.998 -0.1949  0.3671  0.1136
   76loPI   C4A 1210   8.762   4.196   8.607 -0.1192 -0.0652  0.1403
   76loPI   C5A 1211   8.671   4.176   8.149 -0.1297 -0.3594  0.1399
   76loPI   C6A 1212   8.395   4.201   7.855 -0.0192  0.2158 -0.0271
   76loPI   C1B 1213   8.487   3.540   9.500 -0.1972  0.2231  0.1189
   76loPI   C2B 1214   8.420   3.484   9.018 -0.1776  0.2479  0.3689
   76loPI   C3B 1215   8.341   3.298   8.662 -0.0840  0.1437 -0.1845
   76loPI   C4B 1216   8.447   2.946   8.357  0.1915  0.1958  0.2493
   77loPI    C1 1217   5.057   9.944   9.721 -0.2413  0.1035 -0.1004
   77loPI    C2 1218   4.879   9.620   9.876  0.1241 -0.0026  0.1084
   77loPI    C3 1219   5.164   9.578   9.598  0.0201  0.1529 -0.0239
   77loPI   PO4 1220   4.836  10.119   9.786 -0.1023  0.3757 -0.0263
   77loPI   GL1 1221   4.545  10.074   9.520  0.1170 -0.0787  0.1432
   77loPI   GL2 1222   4.178  10.073   9.506  0.2841  0.1079 -0.2427
   77loPI   C1A 1223   4.517   9.868   9.135 -0.2211  0.3467 -0.2943
   77loPI   C2A 1224   4.526   9.896   8.751  0.1904  0.1589  0.1745
   77loPI   C3A 1225   4.649   9.818   8.276 -0.0095  0.1842  0.2633
   77loPI   C4A 1226   4.695   9.581   7.991  0.1010 -0.0781 -0.2386
   77loPI   C5A 1227   4.364   9.609   7.817 -0.1251 -0.0654  0.4789
   77loPI   C6A 1228   4.515   9.527   7.368 -0.1278  0.2262  0.0202
   77loPI   C1B 1229   4.144  10.238   9.061  0.0566  0.0293  0.1211
   77loPI   C2B 1230   4.126  10.237   8.593  0.0636  0.0330  0.0881
   77loPI   C3B 1231   4.312  10.265   8.308  0.1261  0.2559  0.1516
   77loPI   C4B 1232   4.399  10.133   7.931  0.1573  0.2387  0.0206
   78loPI    C1 1233   8.381   9.738  10.597  0.0605 -0.0060 -0.0371
   78loPI    C2 1234   8.772   9.747  10.515  0.0955  0.1249  0.1388
   78loPI    C3 1235   8.625   9.462  10.753  0.0776  0.0544  0.0438
   78loPI   PO4 1236   8.266   9.823  10.288 -0.0601  0.1093 -0.5111
   78loPI   GL1 1237   8.127   9.925   9.880  0.2025  0.1181  0.0961
   78loPI   GL2 1238   8.384  10.155   9.817  0.1404 -0.3474  0.0332
   78loPI   C1A 1239   8.413   9.668   9.462  0.4732  0.2125  0.1028
   78loPI   C2A 1240   8.512   9.558   9.049 -0.0464 -0.0511 -0.0500
   78loPI   C3A 1241   8.544   9.781   8.704 -0.2879  0.0641 -0.2953
   78loPI   C4A 1242   8.730   9.892   8.272 -0.2704  0.1345  0.0528
   78loPI   C5A 1243   9.086   9.817   7.893 -0.2979 -0.0450  0.0360
   78loPI   C6A 1244   9.471   9.641   7.924 -0.6305  0.0947 -0.0099
   78loPI   C1B 1245   8.449  10.206   9.345 -0.1402  0.1148  0.1685
   78loPI   C2B 1246   8.427  10.241   8.906 -0.0797  0.0662 -0.2385
   78loPI   C3B 1247   8.488  10.287   8.455 -0.0157  0.0111 -0.0584
   78loPI   C4B 1248   8.470  10.290   8.104  0.0274  0.0362 -0.0742
   79loPI    C1 1249   3.810  14.651  10.525 -0.3091 -0.0892  0.2945
   79loPI    C2 1250   3.750  14.930  10.245  0.0601 -0.0609  0.2392
   79loPI    C3 1251   3.460  14.845  10.507 -0.3225 -0.1462 -0.1986
   79loPI   PO4 1252   3.934  14.502  10.423 -0.1612 -0.3390  0.1833
   79loPI   GL1 1253   4.019  14.396  10.049 -0.2658  0.0751 -0.2643
   79loPI   GL2 1254   4.181  14.784  10.091 -0.4454 -0.0921 -0.1108
   79loPI   C1A 1255   3.762  14.236   9.752  0.4120  0.2808 -0.1235
   79loPI   C2A 1256   3.783  13.944   9.394 -0.2505  0.0807 -0.2179
   79loPI   C3A 1257   3.675  13.675   9.152 -0.2304 -0.1470  0.2254
   79loPI   C4A 1258   3.811  13.660   8.772  0.2022 -0.0369 -0.3125
   79loPI   C5A 1259   3.912  13.578   8.366  0.1631  0.1162  0.1185
   79loPI   C6A 1260   4.389  13.414   8.269 -0.0120 -0.0157 -0.1255
   79loPI   C1B 1261   4.095  14.599   9.629  0.2201 -0.0942  0.1106
   79loPI   C2B 1262   3.889  14.376   9.239 -0.1709 -0.0617  0.4228
   79loPI   C3B 1263   3.864  14.165   8.790 -0.1230 -0.0958 -0.2817
   79loPI   C4B 1264   3.867  14.130   8.366  0.0692 -0.1246 -0.0119
   80loPI    C1 1265   8.970  17.967  10.849 -0.0625 -0.0556 -0.2413
   80loPI    C2 1266   9.357  17.948  10.751 -0.0072 -0.2255  0.0014
   80loPI    C3 1267   9.240  18.173  11.060 -0.1060 -0.1582 -0.0843
   80loPI   PO4 1268   8.859  18.092  10.641 -0.0809 -0.1419  0.0793
   80loPI   GL1 1269   8.691  18.196  10.334  0.0914 -0.1857 -0.1428
   80loPI   GL2 1270   8.718  18.458  10.238  0.1771 -0.0460  0.0130
   80loPI   C1A 1271   8.532  18.130   9.843  0.3557  0.4104 -0.2948
   80loPI   C2A 1272   8.517  18.108   9.461 -0.1031 -0.0660  0.0569
   80loPI   C3A 1273   8.606  18.207   9.101 -0.0602 -0.1131  0.2724
   80loPI   C4A 1274   8.702  18.005   8.706 -0.2042  0.1177  0.1668
   80loPI   C5A 1275   8.441  17.879   8.436 -0.0261  0.0741  0.1745
   80loPI   C6A 1276   8.426  17.758   8.058  0.0955 -0.2051 -0.2647
   80loPI   C1B 1277   8.661  18.784   9.956  0.1608  0.2094  0.1567
   80loPI   C2B 1278   8.406  19.028   9.515 -0.0748 -0.2029 -0.0970
   80loPI   C3B 1279   8.238  19.158   9.073 -0.2284  0.0124  0.0209
   80loPI   C4B 1280   8.030  19.079   8.661 -0.1681 -0.0856  0.1853
   81loPI    C1 1281   2.733  16.195  10.553  0.0065  0.2907  0.0460
   81loPI    C2 1282   2.515  16.121  10.880  0.0599  0.3139  0.0869
   81loPI    C3 1283   2.912  16.158  10.908  0.1425 -0.3332 -0.0764
   81loPI   PO4 1284   2.511  16.186  10.314 -0.1431  0.0896 -0.2579
   81loPI   GL1 1285   2.566  15.818  10.005 -0.2167  0.2865 -0.0603
   81loPI   GL2 1286   2.353  15.729  10.113  0.2054  0.0148 -0.2054
   81loPI   C1A 1287   2.451  15.951   9.594 -0.0187 -0.5667 -0.1069
   81loPI   C2A 1288   2.230  15.718   9.313  0.0364 -0.1271  0.1657
   81loPI   C3A 1289   2.084  15.911   8.930  0.3886  0.1097  0.0356
   81loPI   C4A 1290   2.138  16.170   8.546  0.2598 -0.3215  0.2228
   81loPI   C5A 1291   2.146  16.618   8.544 -0.0670 -0.0405  0.0535
   81loPI   C6A 1292   1.988  17.021   8.351 -0.2682 -0.0755 -0.2078
   81loPI   C1B 1293   2.023  15.738   9.760 -0.0277  0.1543  0.0364
   81loPI   C2B 1294   1.752  15.905   9.486 -0.0488 -0.0269 -0.3560
   81loPI   C3B 1295   1.401  15.957   9.127 -0.1220 -0.0362 -0.1886
   81loPI   C4B 1296   1.426  16.002   8.707  0.2015  0.1113  0.1772
   82loPI    C1 1297  17.043   9.665   9.696 -0.3553  0.0575 -0.2897
   82loPI    C2 1298  16.785   9.847   9.942 -0.0168  0.0656  0.0683
   82loPI    C3 1299  16.730   9.464   9.841 -0.1488  0.0569  0.1718
   82loPI   PO4 1300  17.207   9.810   9.709  0.3362  0.1833  0.0564
   82loPI   GL1 1301  17.440   9.991   9.449 -0.0261 -0.0206  0.1151
   82loPI   GL2 1302  17.458  10.213   9.746 -0.0834  0.3223 -0.1434
   82loPI   C1A 1303  17.424  10.094   8.985  0.1161 -0.0908  0.0963
   82loPI   C2A 1304  17.396  10.115   8.626  0.1767  0.0377  0.1943
   82loPI   C3A 1305  17.537  10.208   8.279  0.0532 -0.2422 -0.1806
   82loPI   C4A 1306  17.810  10.398   8.022 -0.0817 -0.1878 -0.1943
   82loPI   C5A 1307  18.209  10.466   7.682  0.0231 -0.0976 -0.0374
   82loPI   C6A 1308  18.177  10.817   7.314  0.1100  0.2365  0.2527
   82loPI   C1B 1309  17.714  10.379   9.303 -0.1306  0.1190 -0.0952
   82loPI   C2B 1310  17.890  10.246   8.779  0.0177 -0.1895 -0.0023
   82loPI   C3B 1311  18.032  10.299   8.455 -0.0540 -0.0148  0.0367
   82loPI   C4B 1312  18.193  10.687   8.220 -0.3135  0.0998  0.1955
   83loPI    C1 1313  18.194   7.386  10.580 -0.0246  0.1179  0.0133
   83loPI    C2 1314  18.546   7.468  10.408 -0.0343  0.1393  0.0037
   83loPI    C3 1315  18.370   7.739  10.644 -0.0779  0.1556 -0.0472
   83loPI   PO4 1316  18.011   7.220  10.316  0.0542  0.0077  0.3238
   83loPI   GL1 1317  18.058   7.077   9.863 -0.0157 -0.1044  0.1347
   83loPI   GL2 1318  17.986   7.298   9.791  0.2246  0.0231 -0.1437
   83loPI   C1A 1319  17.931   6.855   9.474 -0.0433  0.0493  0.3467
   83loPI   C2A 1320  18.123   6.734   9.133  0.3372 -0.1664 -0.1804
   83loPI   C3A 1321  18.468   6.620   8.786  0.0237  0.0832 -0.0864
   83loPI   C4A 1322  18.646   6.771   8.503  0.1308  0.0770  0.1340
   83loPI   C5A 1323  18.949   6.836   8.266 -0.1846  0.1835 -0.0642
   83loPI   C6A 1324  19.050   6.718   7.856 -0.0894 -0.2416 -0.1805
   83loPI   C1B 1325  18.034   7.457   9.367  0.2260 -0.1815  0.2546
   83loPI   C2B 1326  18.071   7.592   8.931  0.1198 -0.1049  0.0679
   83loPI   C3B 1327  17.877   7.492   8.523 -0.1153 -0.0722 -0.2281
   83loPI   C4B 1328  17.991   7.407   8.084  0.3471  0.2504  0.0299
   84loPI    C1 1329   9.697   7.912  10.364  0.0666  0.2158  0.1587
   84loPI    C2 1330   9.479   8.233  10.461 -0.1891 -0.0087  0.3435
   84loPI    C3 1331   9.736   8.078  10.726  0.0686  0.1484  0.1897
   84loPI   PO4 1332   9.747   7.966  10.036 -0.0964 -0.2571 -0.2517
   84loPI   GL1 1333   9.556   7.779   9.678 -0.2428  0.0680 -0.0560
   84loPI   GL2 1334   9.603   8.127   9.577 -0.0449 -0.0768 -0.2635
   84loPI   C1A 1335   9.247   7.832   9.407  0.0242 -0.0594 -0.0125
   84loPI   C2A 1336   8.986   7.938   8.992 -0.3104  0.0474 -0.1935
   84loPI   C3A 1337   8.818   7.746   8.679 -0.2170 -0.1772  0.0122
   84loPI   C4A 1338   8.576   7.591   8.311 -0.0454 -0.1957  0.0713
   84loPI   C5A 1339   8.232   7.263   8.284 -0.0427  0.1808 -0.1436
   84loPI   C6A 1340   8.022   6.900   8.304  0.0025  0.1550 -0.3057
   84loPI   C1B 1341   9.712   8.243   9.049  0.3437  0.1611  0.1819
   84loPI   C2B 1342   9.791   8.062   8.684  0.2630 -0.0481 -0.1333
   84loPI   C3B 1343   9.658   8.041   8.286  0.1749  0.0788  0.0166
   84loPI   C4B 1344   9.747   8.200   7.882 -0.0717 -0.1307  0.1357
   85loPI    C1 1345  13.710   1.614  10.085 -0.3458 -0.0798 -0.1117
   85loPI    C2 1346  13.629   1.886  10.366 -0.0273  0.1497 -0.2374
   85loPI    C3 1347  13.905   1.605  10.434  0.0065  0.1684 -0.2961
   85loPI   PO4 1348  13.798   1.663   9.907  0.0975 -0.1698 -0.0118
   85loPI   GL1 1349  14.034   1.784   9.670 -0.1342 -0.0826 -0.1343
   85loPI   GL2 1350  14.344   1.626   9.632 -0.0858 -0.2386 -0.0028
   85loPI   C1A 1351  13.982   1.623   9.216  0.0762 -0.5027 -0.2848
   85loPI   C2A 1352  13.916   1.627   8.781  0.0757  0.1617  0.0957
   85loPI   C3A 1353  13.963   1.488   8.415 -0.0086 -0.0519 -0.3777
   85loPI   C4A 1354  13.867   1.146   8.078  0.2209 -0.0992 -0.1232
   85loPI   C5A 1355  13.447   0.870   7.894 -0.0172  0.1511  0.0008
   85loPI   C6A 1356  13.118   0.652   7.733 -0.1147 -0.0487  0.0138
   85loPI   C1B 1357  14.134   1.197   9.553 -0.2796  0.0390  0.0197
   85loPI   C2B 1358  13.944   0.908   9.427 -0.0128 -0.1143 -0.2435
   85loPI   C3B 1359  13.956   0.732   8.989 -0.0098  0.0440 -0.1927
   85loPI   C4B 1360  13.817   0.686   8.555  0.2486 -0.2331  0.0524
   86loPI    C1 1361   2.253  17.665  10.476  0.0424  0.0383 -0.0983
   86loPI    C2 1362   2.526  17.884  10.669  0.0601  0.2111 -0.3157
   86loPI    C3 1363   2.249  17.682  10.876  0.1750  0.2655 -0.1054
   86loPI   PO4 1364   2.419  17.670  10.205 -0.1139  0.1449 -0.0901
   86loPI   GL1 1365   2.539  17.495   9.814 -0.0777  0.0070 -0.0424
   86loPI   GL2 1366   2.872  17.438   9.728 -0.0341  0.2300 -0.0645
   86loPI   C1A 1367   2.238  17.388   9.581  0.3823  0.3024 -0.0179
   86loPI   C2A 1368   2.009  17.229   9.209  0.2292 -0.0637 -0.3357
   86loPI   C3A 1369   1.723  17.357   8.920 -0.0521  0.1077 -0.1403
   86loPI   C4A 1370   1.634  17.627   8.506  0.1514  0.2071  0.0265
   86loPI   C5A 1371   1.313  17.739   8.157  0.1938 -0.1352  0.4123
   86loPI   C6A 1372   0.808  17.792   8.013 -0.3244 -0.0213 -0.0219
   86loPI   C1B 1373   2.717  17.570   9.299 -0.0874  0.0925  0.0017
   86loPI   C2B 1374   2.426  17.449   8.991  0.0542 -0.1492  0.2930
   86loPI   C3B 1375   2.175  17.387   8.685 -0.0829 -0.3597  0.1116
   86loPI   C4B 1376   2.058  17.492   8.283  0.2421  0.1528  0.0508
   87loPI    C1 1377   7.198  17.090  10.472 -0.0629  0.1487  0.1743
   87loPI    C2 1378   6.966  16.845  10.685  0.1745 -0.0171  0.2461
   87loPI    C3 1379   6.869  17.231  10.650 -0.2058 -0.1185  0.1269
   87loPI   PO4 1380   7.186  17.031  10.206 -0.1104  0.0024  0.0088
   87loPI   GL1 1381   7.262  17.159   9.784 -0.2960  0.0114  0.0047
   87loPI   GL2 1382   7.595  17.226   9.931 -0.3192  0.1158  0.1761
   87loPI   C1A 1383   6.867  17.424   9.662  0.0728 -0.2715 -0.1815
   87loPI   C2A 1384   6.653  17.501   9.292 -0.1780 -0.2448 -0.1814
   87loPI   C3A 1385   6.600  17.515   8.869 -0.2642 -0.0702  0.0121
   87loPI   C4A 1386   6.457  17.610   8.377 -0.1946  0.0617  0.1007
   87loPI   C5A 1387   6.526  18.008   8.115 -0.0566  0.1363 -0.0571
   87loPI   C6A 1388   6.218  18.240   8.205  0.0257 -0.2220  0.0702
   87loPI   C1B 1389   7.663  16.987   9.499 -0.0574  0.2451  0.0068
   87loPI   C2B 1390   7.547  16.812   9.114 -0.4173  0.0976 -0.1148
   87loPI   C3B 1391   7.343  16.647   8.712  0.0046  0.2398  0.0066
   87loPI   C4B 1392   7.462  16.610   8.302  0.0112  0.1197  0.1239
   88loPI    C1 1393  16.841  16.940  10.706  0.0013  0.0999  0.0579
   88loPI    C2 1394  16.570  17.224  10.630 -0.0752  0.0610  0.1823
   88loPI    C3 1395  16.923  17.322  10.790  0.0381  0.1285 -0.1030
   88loPI   PO4 1396  16.914  16.769  10.483 -0.2261  0.2220  0.3353
   88loPI   GL1 1397  16.901  17.106  10.186 -0.0672  0.2926 -0.4337
   88loPI   GL2 1398  16.586  16.979  10.099 -0.0354 -0.1960 -0.0907
   88loPI   C1A 1399  17.031  17.028   9.733 -0.2909 -0.2203  0.1609
   88loPI   C2A 1400  17.070  16.857   9.376 -0.0539 -0.3037 -0.3841
   88loPI   C3A 1401  16.979  16.980   8.976  0.1748 -0.2560  0.0760
   88loPI   C4A 1402  17.177  17.184   8.596 -0.2359 -0.0141  0.0898
   88loPI   C5A 1403  17.426  17.420   8.358 -0.1126 -0.0875 -0.2497
   88loPI   C6A 1404  17.296  17.319   8.027 -0.3118  0.1243  0.0380
   88loPI   C1B 1405  16.564  17.211   9.691 -0.1668 -0.4462 -0.1226
   88loPI   C2B 1406  16.500  17.134   9.235 -0.3654  0.0245 -0.1461
   88loPI   C3B 1407  16.560  17.212   8.809 -0.0981 -0.3191 -0.4107
   88loPI   C4B 1408  16.445  17.388   8.421 -0.2674  0.2336  0.0899
   89loPI    C1 1409  11.504   9.425  10.249  0.0615 -0.0464  0.1824
   89loPI    C2 1410  11.398   9.067  10.106 -0.1084  0.0433  0.0797
   89loPI    C3 1411  11.262   9.188  10.462  0.1383 -0.0894  0.2218
   89loPI   PO4 1412  11.533   9.557   9.952 -0.2390 -0.2615  0.2459
   89loPI   GL1 1413  11.275   9.719   9.631  0.0556 -0.0036  0.1700
   89loPI   GL2 1414  11.529   9.652   9.447 -0.5354 -0.3228 -0.4112
   89loPI   C1A 1415  10.967   9.806   9.402 -0.0111  0.1170 -0.1002
   89loPI   C2A 1416  10.731   9.917   9.091 -0.0853 -0.0065 -0.0524
   89loPI   C3A 1417  10.695   9.805   8.664 -0.1743 -0.0051  0.2555
   89loPI   C4A 1418  10.539   9.673   8.203  0.1056 -0.0751 -0.0632
   89loPI   C5A 1419  10.281   9.841   7.915 -0.4037 -0.1814 -0.0687
   89loPI   C6A 1420   9.902   9.964   7.714  0.0789  0.0005  0.4018
   89loPI   C1B 1421  11.290   9.561   9.063  0.0650 -0.1786  0.3019
   89loPI   C2B 1422  11.361   9.448   8.632  0.3328 -0.1100  0.0602
   89loPI   C3B 1423  11.491   9.341   8.211  0.0703  0.2294  0.2003
   89loPI   C4B 1424  11.898   9.421   8.030  0.0342  0.1328 -0.1142
   90loPI    C1 1425   5.431   1.759  10.465 -0.0349  0.1844 -0.0197
   90loPI    C2 1426   5.404   1.874  10.848 -0.0643 -0.2136  0.1022
   90loPI    C3 1427   5.644   1.570  10.747  0.0095 -0.0555 -0.2110
   90loPI   PO4 1428   5.135   1.799  10.411  0.1858  0.1091 -0.6303
   90loPI   GL1 1429   4.756   1.887  10.190  0.0532  0.0191  0.1166
   90loPI   GL2 1430   4.826   2.185  10.160  0.0628 -0.6045 -0.2675
   90loPI   C1A 1431   4.856   1.800   9.743  0.1874 -0.0324  0.1059
   90loPI   C2A 1432   5.056   1.539   9.370 -0.2040 -0.2529  0.0856
   90loPI   C3A 1433   5.361   1.570   9.055  0.0423  0.1012 -0.2046
   90loPI   C4A 1434   5.794   1.513   8.844  0.0877  0.0225  0.0649
   90loPI   C5A 1435   5.937   1.442   8.431 -0.1348  0.1044  0.1434
   90loPI   C6A 1436   6.342   1.274   8.114 -0.2567  0.1067  0.0532
   90loPI   C1B 1437   4.861   2.297   9.727 -0.0384 -0.1928  0.0823
   90loPI   C2B 1438   4.759   2.122   9.382  0.1338 -0.0657  0.2124
   90loPI   C3B 1439   4.801   1.968   9.067  0.1666  0.3486 -0.0666
   90loPI   C4B 1440   4.746   1.675   8.705 -0.0268 -0.2808 -0.0434
   91loPI    C1 1441   6.693   5.065  10.090  0.0490  0.0424 -0.0783
   91loPI    C2 1442   6.524   5.368  10.287 -0.3414 -0.0623 -0.2434
   91loPI    C3 1443   6.495   4.996  10.430  0.0650 -0.0381 -0.0851
   91loPI   PO4 1444   6.729   5.170   9.829 -0.2581 -0.1276  0.0468
   91loPI   GL1 1445   6.742   5.087   9.429  0.1894  0.1480 -0.0930
   91loPI   GL2 1446   7.131   5.131   9.458 -0.0475 -0.0179 -0.0149
   91loPI   C1A 1447   6.312   5.184   9.185  0.2144 -0.1411 -0.2600
   91loPI   C2A 1448   6.113   5.110   8.827 -0.0972  0.0297  0.2200
   91loPI   C3A 1449   6.230   5.017   8.457 -0.2133  0.0022  0.1013
   91loPI   C4A 1450   6.005   4.941   8.057 -0.0836 -0.0537 -0.0236
   91loPI   C5A 1451   5.810   5.359   7.836  0.5426  0.1622  0.1446
   91loPI   C6A 1452   5.673   5.826   7.742 -0.0201  0.4833  0.1302
   91loPI   C1B 1453   7.152   5.215   9.081 -0.0194  0.0997  0.2046
   91loPI   C2B 1454   7.255   4.926   8.749  0.2194 -0.0572 -0.0059
   91loPI   C3B 1455   7.502   5.049   8.393  0.0773  0.3209  0.1766
   91loPI   C4B 1456   7.852   5.229   8.160 -0.1454 -0.0131  0.1304
   92loPI    C1 1457  12.325  11.215  10.206  0.0942 -0.0507 -0.0768
   92loPI    C2 1458  12.550  11.542  10.159 -0.0940  0.0862 -0.0357
   92loPI    C3 1459  12.157  11.577  10.227 -0.0874 -0.1445  0.1327
   92loPI   PO4 1460  12.346  11.096   9.915 -0.0312 -0.1982 -0.2323
   92loPI   GL1 1461  12.369  11.320   9.539  0.0941  0.2579  0.1746
   92loPI   GL2 1462  12.742  11.207   9.404 -0.1587 -0.1120  0.1699
   92loPI   C1A 1463  12.586  11.634   9.248  0.2242 -0.1892  0.0853
   92loPI   C2A 1464  12.546  11.661   8.767 -0.1071  0.1197 -0.2271
   92loPI   C3A 1465  12.532  11.648   8.314  0.2634 -0.0394  0.0130
   92loPI   C4A 1466  12.980  11.486   8.120  0.0298 -0.1299 -0.2062
   92loPI   C5A 1467  13.116  11.534   7.676  0.0303  0.0598 -0.0530
   92loPI   C6A 1468  12.967  11.643   7.330 -0.3036  0.1604 -0.1596
   92loPI   C1B 1469  12.923  11.056   8.989 -0.0509 -0.0130 -0.1812
   92loPI   C2B 1470  12.887  10.860   8.605 -0.0263 -0.1046  0.0053
   92loPI   C3B 1471  12.718  11.009   8.141 -0.2235  0.5421 -0.1049
   92loPI   C4B 1472  12.850  11.095   7.750 -0.2287 -0.2266 -0.2465
   93loPI    C1 1473   5.704  10.080   9.843 -0.2144 -0.3681  0.0930
   93loPI    C2 1474   5.754  10.328  10.153 -0.2806  0.1353 -0.2873
   93loPI    C3 1475   6.071  10.200   9.946 -0.2340 -0.2224 -0.0051
   93loPI   PO4 1476   5.465  10.241   9.746  0.0614 -0.1528  0.3288
   93loPI   GL1 1477   5.409  10.742   9.559 -0.3673  0.1894  0.0031
   93loPI   GL2 1478   5.720  10.661   9.686 -0.0199  0.0987  0.2384
   93loPI   C1A 1479   5.210  10.965   9.281 -0.0067  0.1966 -0.2201
   93loPI   C2A 1480   5.281  11.094   8.924 -0.4331 -0.0349  0.0256
   93loPI   C3A 1481   5.444  11.108   8.532 -0.2188 -0.2491 -0.3478
   93loPI   C4A 1482   5.455  11.145   8.113  0.2778  0.0133 -0.0763
   93loPI   C5A 1483   5.392  11.141   7.656  0.1988 -0.0150  0.0031
   93loPI   C6A 1484   5.413  10.966   7.198  0.3417  0.2655  0.1851
   93loPI   C1B 1485   5.790  10.711   9.222 -0.1084  0.1255 -0.0742
   93loPI   C2B 1486   5.801  10.832   8.724  0.1440 -0.2498 -0.1168
   93loPI   C3B 1487   5.975  11.052   8.340  0.0004 -0.0503  0.2917
   93loPI   C4B 1488   6.124  11.145   7.952  0.2408 -0.4303  0.0186
   94loPI    C1 1489  15.471   0.597  10.886 -0.1394 -0.1448 -0.0006
   94loPI    C2 1490  15.823   0.519  10.712 -0.0490  0.0114  0.1099
   94loPI    C3 1491  15.657   0.249  10.956  0.0126 -0.0466  0.0882
   94loPI   PO4 1492  15.299   0.741  10.671 -0.0655  0.0078 -0.0414
   94loPI   GL1 1493  15.297   0.703  10.263 -0.1579 -0.1715  0.0928
   94loPI   GL2 1494  15.645   0.737  10.304  0.0828 -0.1239 -0.1308
   94loPI   C1A 1495  15.346   0.697   9.877  0.0384  0.0207 -0.0610
   94loPI   C2A 1496  15.488   0.645   9.439  0.2203 -0.2837  0.2039
   94loPI   C3A 1497  15.673   0.680   9.077 -0.1651 -0.1393 -0.2829
   94loPI   C4A 1498  15.884   0.650   8.771  0.1329  0.0205  0.1415
   94loPI   C5A 1499  16.196   0.697   8.546  0.3790  0.0653  0.0242
   94loPI   C6A 1500  16.548   0.759   8.384 -0.1056 -0.3168  0.1128
   94loPI   C1B 1501  15.815   0.869   9.791 -0.1883 -0.2816 -0.1015
   94loPI   C2B 1502  15.929   1.029   9.395 -0.2299  0.0847 -0.1593
   94loPI   C3B 1503  15.870   1.212   9.083  0.3524 -0.3118 -0.0356
   94loPI   C4B 1504  15.688   1.116   8.633  0.2334  0.3805  0.1227
   95loPI    C1 1505   0.280  14.744  10.541  0.0218  0.0034  0.1430
   95loPI    C2 1506  -0.059  14.532  10.531  0.1471 -0.1933 -0.0745
   95loPI    C3 1507   0.016  14.777  10.839 -0.2132 -0.1085 -0.0492
   95loPI   PO4 1508   0.305  14.846  10.367  0.2465  0.0482  0.1612
   95loPI   GL1 1509   0.689  15.069  10.397 -0.0267 -0.7192 -0.2112
   95loPI   GL2 1510   0.720  15.314  10.313 -0.2952  0.0218 -0.2302
   95loPI   C1A 1511   0.915  14.867  10.047  0.1664 -0.3466  0.0865
   95loPI   C2A 1512   1.075  14.721   9.659 -0.0946  0.1610  0.0933
   95loPI   C3A 1513   1.263  14.527   9.296  0.1675  0.2241  0.1700
   95loPI   C4A 1514   1.311  14.555   8.909 -0.1722 -0.2464  0.1060
   95loPI   C5A 1515   1.400  14.613   8.483  0.0989  0.0140  0.2228
   95loPI   C6A 1516   1.560  14.887   8.118  0.2792 -0.0296  0.0341
   95loPI   C1B 1517   0.866  15.456   9.934 -0.2970  0.0280 -0.0321
   95loPI   C2B 1518   1.022  15.326   9.499  0.2969  0.2702 -0.0509
   95loPI   C3B 1519   1.116  15.439   9.094  0.0470 -0.1583 -0.0079
   95loPI   C4B 1520   1.125  15.428   8.651 -0.1746  0.0204 -0.0651
   96loPI    C1 1521  12.768  17.895   9.754 -0.0772  0.1045  0.1181
   96loPI    C2 1522  12.636  18.013  10.112  0.0769 -0.1372  0.2574
   96loPI    C3 1523  12.962  17.784  10.085 -0.0027 -0.2204 -0.0306
   96loPI   PO4 1524  12.701  17.982   9.566  0.0204 -0.3066  0.0337
   96loPI   GL1 1525  12.278  18.254   9.407 -0.0278 -0.2306 -0.0045
   96loPI   GL2 1526  12.497  18.159   9.127  0.1208 -0.1496  0.1112
   96loPI   C1A 1527  11.887  18.145   9.211 -0.0818  0.2278  0.1773
   96loPI   C2A 1528  11.717  18.255   8.742  0.1150  0.0382 -0.0852
   96loPI   C3A 1529  11.734  18.212   8.321 -0.4610 -0.1409  0.2307
   96loPI   C4A 1530  11.377  18.208   7.995  0.0869  0.0751 -0.2761
   96loPI   C5A 1531  10.920  18.189   8.001 -0.2544  0.1875  0.1814
   96loPI   C6A 1532  10.602  17.849   8.084 -0.1971 -0.2633 -0.1214
   96loPI   C1B 1533  12.259  18.095   8.853  0.1291  0.2428  0.1106
   96loPI   C2B 1534  12.176  18.037   8.406  0.0271 -0.0915  0.0836
   96loPI   C3B 1535  12.119  18.022   8.043 -0.5031 -0.0464 -0.0752
   96loPI   C4B 1536  11.918  18.115   7.710 -0.0263 -0.0355  0.1507
   97loPI    C1 1537   9.783   2.898  10.088  0.0801  0.0059 -0.0607
   97loPI    C2 1538  10.083   2.670   9.953  0.0872  0.1373 -0.2708
   97loPI    C3 1539  10.153   3.048  10.065  0.0226  0.1287 -0.2000
   97loPI   PO4 1540   9.616   2.833   9.968  0.1338 -0.2273 -0.0732
   97loPI   GL1 1541   9.628   2.688   9.559 -0.0072 -0.1093  0.0817
   97loPI   GL2 1542   9.891   2.603   9.504 -0.1241  0.3884 -0.1636
   97loPI   C1A 1543   9.670   2.965   9.181 -0.0728 -0.1008 -0.1319
   97loPI   C2A 1544   9.702   3.132   8.788 -0.2704 -0.1444  0.1877
   97loPI   C3A 1545   9.627   3.579   8.600 -0.0772 -0.1555 -0.2284
   97loPI   C4A 1546   9.559   3.676   8.116 -0.1538  0.0210 -0.2177
   97loPI   C5A 1547   9.535   3.420   7.830 -0.1079  0.1542  0.2485
   97loPI   C6A 1548   9.693   3.275   7.426  0.1890 -0.0116 -0.0558
   97loPI   C1B 1549   9.991   2.349   9.165 -0.1931 -0.1975 -0.0411
   97loPI   C2B 1550   9.949   2.299   8.785 -0.1643  0.0530  0.1558
   97loPI   C3B 1551  10.053   2.194   8.416 -0.4320  0.4539  0.1368
   97loPI   C4B 1552  10.200   2.129   8.060 -0.3462 -0.0803 -0.0517
   98loPI    C1 1553   8.099   7.791  10.387  0.0664 -0.0725  0.1265
   98loPI    C2 1554   8.211   8.092  10.625 -0.0085 -0.0879  0.1817
   98loPI    C3 1555   7.830   8.063  10.504  0.0095 -0.1320  0.1353
   98loPI   PO4 1556   8.252   7.841  10.170 -0.0751 -0.0258 -0.0308
   98loPI   GL1 1557   8.401   8.020   9.802  0.0093 -0.1778 -0.0504
   98loPI   GL2 1558   8.198   7.882   9.597 -0.0175  0.0324 -0.2173
   98loPI   C1A 1559   8.685   7.769   9.449 -0.1124  0.0135  0.0307
   98loPI   C2A 1560   8.680   7.442   9.097  0.2034 -0.3187 -0.2254
   98loPI   C3A 1561   8.633   7.178   8.698  0.1402  0.2302 -0.0971
   98loPI   C4A 1562   8.588   6.969   8.267  0.0064  0.2048 -0.1150
   98loPI   C5A 1563   8.374   6.588   8.067  0.1065  0.2032 -0.1254
   98loPI   C6A 1564   8.224   6.217   8.018 -0.0864  0.0440 -0.0882
   98loPI   C1B 1565   8.186   7.664   9.204  0.1034 -0.2419  0.3240
   98loPI   C2B 1566   8.304   7.626   8.797 -0.4049  0.2888  0.2413
   98loPI   C3B 1567   8.058   7.803   8.389 -0.0768 -0.1660  0.1768
   98loPI   C4B 1568   7.743   7.916   8.095  0.0348  0.0133 -0.1059
   99loPI    C1 1569   6.931   1.421   9.918 -0.2191 -0.3167  0.0725
   99loPI    C2 1570   6.711   1.528  10.234 -0.2675 -0.1667 -0.0108
   99loPI    C3 1571   6.698   1.746   9.899 -0.1680 -0.2888 -0.0948
   99loPI   PO4 1572   7.018   1.120  10.099 -0.2894 -0.2502  0.1408
   99loPI   GL1 1573   6.878   0.868   9.933  0.1429  0.1634  0.2174
   99loPI   GL2 1574   7.060   0.558  10.028  0.1186  0.2817 -0.2799
   99loPI   C1A 1575   6.798   0.756   9.572  0.0457  0.4699 -0.0194
   99loPI   C2A 1576   6.967   0.553   9.209  0.1744 -0.2721 -0.0243
   99loPI   C3A 1577   7.134   0.507   8.934  0.0313  0.1780 -0.1306
   99loPI   C4A 1578   7.291   0.115   8.598  0.1036 -0.0919  0.0208
   99loPI   C5A 1579   7.298  -0.312   8.495 -0.0965  0.1622  0.0698
   99loPI   C6A 1580   7.379  -0.500   8.126  0.0270  0.0960  0.1597
   99loPI   C1B 1581   7.351   0.413   9.840 -0.1089 -0.1327 -0.2669
   99loPI   C2B 1582   7.354   0.328   9.374  0.0121 -0.1288  0.0227
   99loPI   C3B 1583   7.348   0.005   9.081  0.0443 -0.0982  0.0107
   99loPI   C4B 1584   7.701  -0.107   8.866 -0.0560  0.0489  0.0453
  100loPI    C1 1585  17.400  15.094  10.882  0.0638  0.0441 -0.2759
  100loPI    C2 1586  17.452  15.248  11.247 -0.0089  0.1392 -0.3054
  100loPI    C3 1587  17.454  14.851  11.196 -0.1605  0.1211 -0.1764
  100loPI   PO4 1588  17.532  15.237  10.747  0.1269  0.2175 -0.1099
  100loPI   GL1 1589  17.462  15.485  10.376  0.5025  0.1079 -0.0020
  100loPI   GL2 1590  17.654  15.261  10.257 -0.2633  0.2462 -0.2453
  100loPI   C1A 1591  17.430  15.643   9.906  0.1059 -0.0325 -0.0004
  100loPI   C2A 1592  17.780  15.725   9.630  0.1424 -0.1055  0.1258
  100loPI   C3A 1593  17.845  15.479   9.221  0.0945 -0.0141 -0.2935
  100loPI   C4A 1594  17.944  15.460   8.836  0.2294 -0.0230 -0.2265
  100loPI   C5A 1595  18.320  15.508   8.615  0.3002 -0.1652  0.0519
  100loPI   C6A 1596  18.439  15.901   8.498  0.0752 -0.4069  0.2744
  100loPI   C1B 1597  17.627  15.194   9.829 -0.3381 -0.0792 -0.0192
  100loPI   C2B 1598  17.791  15.035   9.418  0.0480  0.0422  0.3313
  100loPI   C3B 1599  17.976  14.988   8.935  0.2542 -0.0550  0.0604
  100loPI   C4B 1600  18.105  14.577   8.754 -0.5220  0.4217 -0.3537
  101loPI    C1 1601   6.891   7.689  10.326 -0.0541 -0.0607  0.0958
  101loPI    C2 1602   6.777   7.853  10.672  0.0631 -0.2413  0.2216
  101loPI    C3 1603   7.043   7.554  10.670  0.3853  0.0379 -0.0527
  101loPI   PO4 1604   6.720   7.629  10.217  0.0322  0.1979 -0.1596
  101loPI   GL1 1605   6.653   7.780   9.763 -0.2188  0.2220 -0.0734
  101loPI   GL2 1606   6.575   8.029   9.722 -0.0923  0.0362 -0.2498
  101loPI   C1A 1607   6.979   7.844   9.484 -0.1068  0.1077 -0.1362
  101loPI   C2A 1608   7.375   7.735   9.343  0.1024 -0.1805 -0.0724
  101loPI   C3A 1609   7.635   7.966   9.120 -0.0393 -0.2104  0.0042
  101loPI   C4A 1610   7.695   8.084   8.725 -0.1323 -0.0113 -0.1856
  101loPI   C5A 1611   7.459   8.228   8.423 -0.0103  0.1095  0.4329
  101loPI   C6A 1612   7.198   8.067   8.175 -0.0656  0.4923  0.1628
  101loPI   C1B 1613   6.521   7.905   9.287  0.2717  0.2699  0.0565
  101loPI   C2B 1614   6.571   8.001   8.851  0.1381 -0.0096 -0.1077
  101loPI   C3B 1615   6.844   8.251   8.509 -0.0429 -0.3189  0.0502
  101loPI   C4B 1616   7.069   8.509   8.545  0.0306 -0.1591  0.1054
  102loPI    C1 1617   9.275  12.718  10.693  0.0554 -0.4436  0.2714
  102loPI    C2 1618   8.904  12.570  10.724 -0.1948  0.0838 -0.0532
  102loPI    C3 1619   9.068  12.767  11.031 -0.2307 -0.0404  0.0466
  102loPI   PO4 1620   9.223  12.820  10.384  0.0956 -0.4332 -0.0393
  102loPI   GL1 1621   8.939  12.937   9.947 -0.0326  0.2640 -0.0363
  102loPI   GL2 1622   9.286  13.121   9.913 -0.1527  0.1348 -0.0643
  102loPI   C1A 1623   8.770  12.994   9.595 -0.2238 -0.3019  0.1335
  102loPI   C2A 1624   8.723  13.061   9.181 -0.0054 -0.0255 -0.2095
  102loPI   C3A 1625   8.634  13.103   8.719 -0.0797 -0.1121  0.1169
  102loPI   C4A 1626   8.619  13.255   8.385  0.1442  0.0216  0.0893
  102loPI   C5A 1627   8.844  13.473   8.160  0.3871  0.2609  0.0716
  102loPI   C6A 1628   9.240  13.316   8.137 -0.0723 -0.0461 -0.2859
  102loPI   C1B 1629   9.205  13.091   9.443  0.1197 -0.1182  0.1611
  102loPI   C2B 1630   9.159  13.223   9.013 -0.4547 -0.0338 -0.2176
  102loPI   C3B 1631   9.139  13.087   8.603  0.0142  0.1660 -0.0292
  102loPI   C4B 1632   9.444  12.860   8.266  0.2352 -0.3176 -0.1049
  103loPI    C1 1633   4.217   6.743  10.197  0.1193 -0.1465 -0.0947
  103loPI    C2 1634   3.933   6.515  10.363 -0.0445  0.2097  0.1248
  103loPI    C3 1635   4.287   6.557  10.544  0.0384  0.0184  0.0107
  103loPI   PO4 1636   4.204   6.721   9.901 -0.0587  0.1606  0.1149
  103loPI   GL1 1637   3.971   6.814   9.513  0.4738 -0.0425 -0.0251
  103loPI   GL2 1638   3.758   6.681   9.549  0.1162  0.0712  0.0808
  103loPI   C1A 1639   3.993   6.927   9.090 -0.1993 -0.3259  0.2672
  103loPI   C2A 1640   3.783   6.724   8.635  0.2646 -0.0592 -0.0834
  103loPI   C3A 1641   3.550   6.839   8.192  0.0747  0.1407  0.0087
  103loPI   C4A 1642   3.267   7.068   8.021  0.2325 -0.4030  0.1386
  103loPI   C5A 1643   3.058   7.257   7.740 -0.0978 -0.1118 -0.1189
  103loPI   C6A 1644   2.881   7.334   7.403 -0.2334 -0.0955 -0.2747
  103loPI   C1B 1645   3.977   6.311   9.313 -0.1658 -0.2447  0.2207
  103loPI   C2B 1646   4.091   6.344   8.888  0.0784 -0.0038  0.0066
  103loPI   C3B 1647   4.318   6.277   8.512  0.0801 -0.1801 -0.0167
  103loPI   C4B 1648   4.552   6.488   8.134  0.0821  0.2260 -0.0177
  104loPI    C1 1649  12.696   2.061  10.252 -0.1228 -0.0196 -0.1762
  104loPI    C2 1650  12.393   2.265  10.414  0.1028  0.1717  0.0107
  104loPI    C3 1651  12.631   2.043  10.646  0.2867  0.2612 -0.0907
  104loPI   PO4 1652  12.576   1.921  10.091  0.1649 -0.3476  0.1155
  104loPI   GL1 1653  12.558   1.830   9.765 -0.0159 -0.2999  0.1590
  104loPI   GL2 1654  12.230   1.680   9.730 -0.1608  0.1997  0.0541
  104loPI   C1A 1655  12.547   1.860   9.306 -0.0560  0.0313  0.2151
  104loPI   C2A 1656  12.403   1.910   8.874  0.0367  0.1085 -0.0310
  104loPI   C3A 1657  12.358   2.161   8.585 -0.0610 -0.1592 -0.0847
  104loPI   C4A 1658  12.510   2.195   8.223  0.1181 -0.0322  0.2715
  104loPI   C5A 1659  12.878   2.511   7.910  0.1947 -0.1557 -0.0177
  104loPI   C6A 1660  13.317   2.548   7.655 -0.0408 -0.1638  0.0067
  104loPI   C1B 1661  12.156   1.627   9.281  0.1698 -0.0720  0.2178
  104loPI   C2B 1662  12.032   1.566   8.820 -0.0894 -0.1046 -0.3274
  104loPI   C3B 1663  12.014   1.386   8.424 -0.0585 -0.0442 -0.0145
  104loPI   C4B 1664  11.891   1.027   8.077  0.0290 -0.1350  0.1997
  105loPI    C1 1665   6.753   2.784  10.704 -0.0416 -0.3076  0.2192
  105loPI    C2 1666   6.397   2.869  10.542  0.0428  0.0454  0.2108
  105loPI    C3 1667   6.425   2.791  10.933 -0.0213  0.1825  0.2432
  105loPI   PO4 1668   6.956   2.596  10.497 -0.0242 -0.0127 -0.0961
  105loPI   GL1 1669   6.709   2.349  10.137 -0.1283 -0.2319 -0.1762
  105loPI   GL2 1670   6.487   2.458  10.254  0.1812 -0.0396  0.1429
  105loPI   C1A 1671   6.764   2.220   9.715  0.0614 -0.0217 -0.1647
  105loPI   C2A 1672   6.732   2.169   9.271 -0.4246  0.0751 -0.1677
  105loPI   C3A 1673   7.094   2.337   8.988  0.0645 -0.2792 -0.3089
  105loPI   C4A 1674   7.368   2.567   8.765  0.0095  0.0476  0.1077
  105loPI   C5A 1675   7.657   2.611   8.383 -0.1592 -0.0707  0.1796
  105loPI   C6A 1676   7.540   2.446   8.042 -0.1548  0.0982 -0.2814
  105loPI   C1B 1677   6.246   2.632   9.928 -0.1888  0.2017  0.1354
  105loPI   C2B 1678   6.158   2.876   9.552 -0.2754 -0.2025 -0.0177
  105loPI   C3B 1679   6.213   2.656   9.062  0.0574  0.1017 -0.2819
  105loPI   C4B 1680   6.229   2.618   8.624  0.0771 -0.1153 -0.1132
  106loPI    C1 1681  11.189  13.174  10.056  0.0147  0.0789  0.0269
  106loPI    C2 1682  11.356  13.531  10.127 -0.0233  0.0727  0.1500
  106loPI    C3 1683  11.079  13.387  10.377  0.0597 -0.0851  0.1525
  106loPI   PO4 1684  11.130  13.072   9.784  0.1640 -0.2888 -0.1869
  106loPI   GL1 1685  10.889  13.241   9.461 -0.0542 -0.1340 -0.0641
  106loPI   GL2 1686  10.947  13.546   9.336 -0.0819 -0.1441 -0.1644
  106loPI   C1A 1687  10.958  13.025   9.096  0.2505  0.2631 -0.1614
  106loPI   C2A 1688  10.979  12.991   8.704  0.0395  0.1060  0.1296
  106loPI   C3A 1689  10.924  12.921   8.358 -0.1476 -0.1324  0.4817
  106loPI   C4A 1690  11.066  12.884   7.915  0.0017  0.2093  0.0297
  106loPI   C5A 1691  11.149  12.534   7.671  0.0064  0.3554 -0.2629
  106loPI   C6A 1692  11.558  12.248   7.613 -0.1368 -0.0886 -0.2659
  106loPI   C1B 1693  10.770  13.461   8.893  0.0968 -0.0127  0.0641
  106loPI   C2B 1694  10.816  13.431   8.429 -0.2667 -0.1000  0.1235
  106loPI   C3B 1695  11.254  13.433   8.216 -0.0196  0.0614 -0.2310
  106loPI   C4B 1696  11.431  13.310   8.001  0.2741  0.3589 -0.2589
  107loPI    C1 1697  14.491  12.121   9.829 -0.1982  0.2975 -0.2249
  107loPI    C2 1698  14.476  12.076  10.226  0.3242  0.1858 -0.2097
  107loPI    C3 1699  14.467  12.442  10.066 -0.0684  0.2243 -0.1106
  107loPI   PO4 1700  14.663  12.112   9.740 -0.2871  0.2852  0.1573
  107loPI   GL1 1701  14.812  11.835   9.435  0.1757  0.1221  0.1398
  107loPI   GL2 1702  15.090  12.125   9.488  0.1379 -0.5055  0.2889
  107loPI   C1A 1703  14.627  11.902   9.156 -0.2150  0.3029  0.5301
  107loPI   C2A 1704  14.705  11.895   8.779 -0.1218  0.2013  0.1227
  107loPI   C3A 1705  14.675  12.134   8.399  0.0421  0.2054 -0.1816
  107loPI   C4A 1706  14.870  12.152   8.009  0.2324 -0.2163  0.2614
  107loPI   C5A 1707  15.218  11.951   7.913 -0.0277  0.3095  0.0987
  107loPI   C6A 1708  15.243  11.500   7.936 -0.3076  0.1901 -0.2977
  107loPI   C1B 1709  15.036  12.237   9.096 -0.0479  0.1475  0.0327
  107loPI   C2B 1710  14.995  12.267   8.716 -0.0864  0.1124 -0.1295
  107loPI   C3B 1711  15.170  12.407   8.284 -0.2650 -0.3182 -0.1700
  107loPI   C4B 1712  15.038  12.572   7.972  0.2326 -0.1983 -0.0386
  108loPI    C1 1713   5.725  13.517  10.151  0.0561  0.1239 -0.0218
  108loPI    C2 1714   5.630  13.377  10.513 -0.0779  0.1740 -0.0371
  108loPI    C3 1715   5.342  13.455  10.247  0.0128  0.2407 -0.1162
  108loPI   PO4 1716   5.830  13.718  10.109  0.2889 -0.1389 -0.3113
  108loPI   GL1 1717   5.850  13.992   9.811 -0.2336  0.2382 -0.0128
  108loPI   GL2 1718   6.137  13.973   9.775  0.1168 -0.0819 -0.3885
  108loPI   C1A 1719   5.929  13.907   9.366 -0.0132 -0.1408 -0.0766
  108loPI   C2A 1720   5.910  13.908   8.933 -0.2085  0.1971  0.0680
  108loPI   C3A 1721   6.028  14.089   8.547 -0.2210 -0.1189 -0.0223
  108loPI   C4A 1722   5.817  14.364   8.371  0.0472 -0.3645 -0.0830
  108loPI   C5A 1723   5.714  14.520   8.078 -0.1908  0.1337  0.1134
  108loPI   C6A 1724   5.712  14.618   7.690  0.0972 -0.1433 -0.2292
  108loPI   C1B 1725   6.422  13.828   9.498  0.0098  0.0001 -0.0052
  108loPI   C2B 1726   6.435  13.877   9.050  0.1871  0.0448  0.2066
  108loPI   C3B 1727   6.438  13.766   8.682 -0.0452 -0.1996 -0.0736
  108loPI   C4B 1728   6.337  13.904   8.191  0.1469 -0.1785  0.0668
  109loPI    C1 1729  16.790   4.711  10.434  0.0317 -0.1870  0.1792
  109loPI    C2 1730  17.081   4.722  10.708  0.1764 -0.0923  0.0236
  109loPI    C3 1731  16.975   4.374  10.543  0.1231 -0.1425  0.1632
  109loPI   PO4 1732  16.921   4.988  10.261  0.2397 -0.3435 -0.0875
  109loPI   GL1 1733  17.126   5.108   9.881 -0.2288  0.0556 -0.2888
  109loPI   GL2 1734  17.478   5.172   9.998  0.3273  0.0475 -0.2397
  109loPI   C1A 1735  17.057   5.158   9.447 -0.1987 -0.1311  0.0396
  109loPI   C2A 1736  17.226   5.149   9.033 -0.0307 -0.1127  0.0827
  109loPI   C3A 1737  17.261   4.830   8.687 -0.2137 -0.0349 -0.2821
  109loPI   C4A 1738  17.002   4.601   8.380  0.0223  0.0050  0.3049
  109loPI   C5A 1739  16.668   4.418   8.126 -0.0008 -0.1015  0.0347
  109loPI   C6A 1740  16.394   4.102   8.079 -0.1493 -0.0149  0.0685
  109loPI   C1B 1741  17.564   4.948   9.541 -0.0462 -0.1361  0.0926
  109loPI   C2B 1742  17.626   4.776   9.131  0.2379  0.3443 -0.1930
  109loPI   C3B 1743  17.702   4.633   8.685 -0.0971 -0.3115 -0.0318
  109loPI   C4B 1744  17.915   4.651   8.270 -0.0069  0.3553  0.0119
  110loPI    C1 1745   1.743   0.406  10.890 -0.0010 -0.1634 -0.2144
  110loPI    C2 1746   1.816   0.020  10.965  0.1410 -0.0775  0.1057
  110loPI    C3 1747   1.512   0.206  11.147  0.0708 -0.0384 -0.0502
  110loPI   PO4 1748   1.876   0.354  10.541 -0.0734 -0.0381 -0.3942
  110loPI   GL1 1749   2.105   0.383  10.143  0.2133  0.1835 -0.0977
  110loPI   GL2 1750   2.387   0.262  10.022 -0.0312  0.3366 -0.0990
  110loPI   C1A 1751   1.705   0.456   9.882  0.3941  0.1553 -0.0898
  110loPI   C2A 1752   1.666   0.362   9.442 -0.1384 -0.1988 -0.0940
  110loPI   C3A 1753   1.606   0.356   8.986 -0.1586  0.0061  0.2848
  110loPI   C4A 1754   1.816   0.405   8.605 -0.2056  0.1843 -0.1198
  110loPI   C5A 1755   2.055   0.321   8.275 -0.1640  0.0664  0.0887
  110loPI   C6A 1756   2.522   0.315   8.159 -0.0702 -0.0145  0.1611
  110loPI   C1B 1757   2.104   0.215   9.654 -0.1381  0.0825  0.1798
  110loPI   C2B 1758   2.114   0.258   9.127  0.0693 -0.2177  0.0041
  110loPI   C3B 1759   2.237  -0.002   8.766 -0.0457 -0.2146  0.0125
  110loPI   C4B 1760   2.429  -0.139   8.434  0.3019  0.0412  0.0583
  111loPI    C1 1761   6.485  16.855  10.507 -0.4000 -0.0659 -0.0286
  111loPI    C2 1762   6.427  16.495  10.342 -0.4333 -0.0204 -0.1169
  111loPI    C3 1763   6.732  16.724  10.222 -0.2957 -0.0999  0.0767
  111loPI   PO4 1764   6.217  16.964  10.438  0.1190 -0.1628 -0.1884
  111loPI   GL1 1765   6.026  16.791  10.097  0.0704  0.2912  0.0174
  111loPI   GL2 1766   6.028  16.496   9.874  0.0450  0.4030 -0.0197
  111loPI   C1A 1767   5.762  17.029   9.809 -0.2260 -0.1389 -0.1468
  111loPI   C2A 1768   5.618  17.102   9.375  0.0937  0.0239  0.1361
  111loPI   C3A 1769   5.609  17.187   8.867  0.3051  0.0348 -0.0768
  111loPI   C4A 1770   5.248  17.503   8.690  0.1368 -0.0801  0.0073
  111loPI   C5A 1771   4.916  17.756   8.424  0.1049 -0.1900 -0.3766
  111loPI   C6A 1772   4.416  17.631   8.316 -0.2157  0.0142 -0.3885
  111loPI   C1B 1773   5.729  16.600   9.506  0.1873  0.1067 -0.1501
  111loPI   C2B 1774   5.683  16.675   9.075  0.0405  0.0761 -0.0802
  111loPI   C3B 1775   5.377  16.454   8.736  0.1237 -0.1553  0.1410
  111loPI   C4B 1776   5.144  16.001   8.925  0.0009 -0.1548 -0.4107
  112loPI    C1 1777  17.801   7.716   9.983  0.0990 -0.1003 -0.0230
  112loPI    C2 1778  17.875   7.724  10.376  0.0363  0.2406 -0.0151
  112loPI    C3 1779  18.171   7.650  10.119  0.0858  0.0569  0.0933
  112loPI   PO4 1780  17.474   7.628   9.985 -0.2515 -0.1333 -0.0171
  112loPI   GL1 1781  17.374   7.570   9.628 -0.3414 -0.1877  0.1949
  112loPI   GL2 1782  17.508   7.275   9.602 -0.2172 -0.1339 -0.2779
  112loPI   C1A 1783  17.196   7.922   9.475 -0.1396 -0.0184  0.0036
  112loPI   C2A 1784  17.192   8.062   9.087 -0.0096 -0.1267 -0.2223
  112loPI   C3A 1785  16.822   8.282   8.875 -0.2510 -0.1223  0.0175
  112loPI   C4A 1786  16.700   8.218   8.536 -0.2103 -0.0314 -0.0968
  112loPI   C5A 1787  16.636   8.009   8.172 -0.2407 -0.1577 -0.0366
  112loPI   C6A 1788  16.383   7.812   7.939 -0.2732 -0.0352 -0.1922
  112loPI   C1B 1789  17.522   7.070   9.216  0.1135  0.2341 -0.0509
  112loPI   C2B 1790  17.821   7.104   8.870 -0.0172  0.1544  0.1011
  112loPI   C3B 1791  18.275   7.028   8.748  0.4081  0.0175  0.0892
  112loPI   C4B 1792  18.637   7.036   9.084  0.0806  0.0586 -0.2395
  113loPI    C1 1793  13.366   4.415  10.468  0.1056  0.1089 -0.0823
  113loPI    C2 1794  13.630   4.225  10.235  0.1146  0.0223 -0.0019
  113loPI    C3 1795  13.496   4.051  10.570 -0.0481  0.0639 -0.0444
  113loPI   PO4 1796  13.154   4.444  10.267 -0.1578  0.0364 -0.0197
  113loPI   GL1 1797  12.900   4.262   9.942 -0.0857 -0.0964 -0.1724
  113loPI   GL2 1798  13.198   4.247   9.808 -0.2525  0.1029  0.2472
  113loPI   C1A 1799  12.730   4.352   9.593  0.1088 -0.1973  0.0072
  113loPI   C2A 1800  12.474   4.226   9.335 -0.2756 -0.1752  0.0132
  113loPI   C3A 1801  12.271   4.234   8.957  0.0437 -0.0910 -0.1336
  113loPI   C4A 1802  12.378   4.442   8.544  0.1141 -0.0562  0.1107
  113loPI   C5A 1803  12.330   4.585   8.146  0.0485 -0.3364  0.1520
  113loPI   C6A 1804  12.071   4.530   7.753  0.0940 -0.2253 -0.0123
  113loPI   C1B 1805  13.281   4.409   9.399 -0.1131  0.0018  0.3055
  113loPI   C2B 1806  13.251   4.472   8.910 -0.0079  0.2280  0.0854
  113loPI   C3B 1807  13.232   4.481   8.516 -0.4196  0.1567  0.0985
  113loPI   C4B 1808  13.133   4.261   8.110  0.1634  0.0602 -0.0788
  114loPI    C1 1809  18.179   3.646  10.510 -0.0453  0.3079 -0.0497
  114loPI    C2 1810  18.468   3.397  10.630 -0.1037  0.1427 -0.2465
  114loPI    C3 1811  18.398   3.734  10.833  0.1155  0.1025 -0.1003
  114loPI   PO4 1812  18.263   3.663  10.164  0.1029  0.0598 -0.0349
  114loPI   GL1 1813  17.967   3.587   9.936 -0.5159 -0.2443  0.0212
  114loPI   GL2 1814  17.662   3.331  10.080 -0.3162  0.0835 -0.0508
  114loPI   C1A 1815  17.995   3.648   9.484  0.2008 -0.0074  0.2242
  114loPI   C2A 1816  17.970   3.667   9.058 -0.0808  0.3448  0.2345
  114loPI   C3A 1817  17.828   3.583   8.673  0.1322  0.0559  0.0090
  114loPI   C4A 1818  17.801   3.662   8.167 -0.2704  0.2269 -0.2612
  114loPI   C5A 1819  17.778   4.020   7.909  0.2201 -0.0496  0.0386
  114loPI   C6A 1820  17.938   4.438   7.764 -0.2283  0.1716  0.1229
  114loPI   C1B 1821  17.694   3.276   9.630  0.1069 -0.3384  0.2159
  114loPI   C2B 1822  17.762   3.204   9.162  0.0101 -0.0343 -0.2403
  114loPI   C3B 1823  17.627   3.145   8.824  0.1200 -0.1304  0.4791
  114loPI   C4B 1824  17.536   3.272   8.351 -0.0827  0.0667 -0.2031
  115loPI    C1 1825   6.607   5.933  10.104  0.0241  0.0623 -0.1721
  115loPI    C2 1826   6.709   6.293   9.962 -0.1472  0.1444 -0.0891
  115loPI    C3 1827   6.745   6.214  10.353 -0.1784  0.0961 -0.0958
  115loPI   PO4 1828   6.754   5.718   9.955 -0.0582 -0.1800  0.3929
  115loPI   GL1 1829   6.920   5.574   9.648  0.1384 -0.0624  0.1090
  115loPI   GL2 1830   6.809   5.874   9.545 -0.0306  0.0516  0.2379
  115loPI   C1A 1831   7.343   5.565   9.415  0.0293  0.2406  0.2578
  115loPI   C2A 1832   7.568   5.432   8.957 -0.0544  0.1353  0.2614
  115loPI   C3A 1833   7.785   5.401   8.662  0.1876  0.1261  0.0369
  115loPI   C4A 1834   7.794   5.682   8.285  0.1610  0.0195  0.0539
  115loPI   C5A 1835   8.083   5.755   8.062  0.1239 -0.2017  0.0141
  115loPI   C6A 1836   8.612   5.705   8.125 -0.0784 -0.0284 -0.0602
  115loPI   C1B 1837   6.684   5.597   9.145  0.0563  0.0444  0.1714
  115loPI   C2B 1838   6.702   5.302   8.844  0.0399  0.1106  0.0743
  115loPI   C3B 1839   6.786   5.136   8.400  0.1514 -0.1352  0.0517
  115loPI   C4B 1840   7.103   4.890   8.215 -0.0884  0.2717  0.0832
  116loPI    C1 1841  14.952   5.180  10.433 -0.0778  0.3589  0.0532
  116loPI    C2 1842  14.615   5.203  10.646 -0.0945  0.3764  0.0251
  116loPI    C3 1843  14.966   5.292  10.816 -0.0561 -0.0313  0.1703
  116loPI   PO4 1844  14.881   5.268  10.148 -0.1128 -0.3024 -0.1025
  116loPI   GL1 1845  14.818   5.473   9.743  0.1641 -0.3826  0.2087
  116loPI   GL2 1846  14.853   5.753   9.711 -0.1570 -0.1611 -0.0450
  116loPI   C1A 1847  14.737   5.285   9.393 -0.0141 -0.3392 -0.0846
  116loPI   C2A 1848  14.849   4.977   9.161  0.4461 -0.1629 -0.0761
  116loPI   C3A 1849  14.799   4.859   8.791  0.0965  0.0786  0.0058
  116loPI   C4A 1850  14.835   4.802   8.382  0.2661 -0.1574 -0.0966
  116loPI   C5A 1851  15.113   4.892   7.942  0.2406  0.1395 -0.1526
  116loPI   C6A 1852  14.801   5.131   7.622 -0.3028  0.1021 -0.1275
  116loPI   C1B 1853  14.953   5.701   9.325  0.3861  0.0013  0.3956
  116loPI   C2B 1854  14.742   5.706   8.923 -0.1453  0.1356 -0.0269
  116loPI   C3B 1855  14.477   5.650   8.611 -0.1629 -0.3003 -0.2579
  116loPI   C4B 1856  14.496   5.777   8.194 -0.3071  0.0359 -0.1645
  117loPI    C1 1857   8.584   2.294  10.259 -0.2522  0.0738  0.0991
  117loPI    C2 1858   8.656   2.455  10.618 -0.0800 -0.1227  0.1541
  117loPI    C3 1859   8.311   2.264  10.550 -0.2662  0.2249  0.1025
  117loPI   PO4 1860   8.816   2.430  10.107 -0.1115 -0.2068  0.0340
  117loPI   GL1 1861   8.895   2.587   9.713 -0.0666 -0.0231 -0.0013
  117loPI   GL2 1862   9.181   2.802   9.841  0.1674 -0.0140 -0.2629
  117loPI   C1A 1863   8.802   2.246   9.295 -0.0137 -0.1867  0.0787
  117loPI   C2A 1864   9.002   2.172   8.975 -0.1154  0.0708 -0.0983
  117loPI   C3A 1865   9.364   2.180   8.676  0.1128 -0.1378  0.2196
  117loPI   C4A 1866   9.580   2.317   8.320 -0.2778 -0.0219  0.0443
  117loPI   C5A 1867   9.709   2.238   7.954 -0.2801 -0.2220 -0.1416
  117loPI   C6A 1868   9.899   2.453   7.671 -0.3701 -0.0122  0.0357
  117loPI   C1B 1869   9.230   2.787   9.389 -0.2608  0.1398 -0.0429
  117loPI   C2B 1870   9.104   2.725   8.983  0.0390  0.0312  0.3001
  117loPI   C3B 1871   8.945   2.636   8.646  0.3860 -0.1558  0.2036
  117loPI   C4B 1872   8.936   2.821   8.169 -0.3903 -0.2510  0.0915
  118loPI    C1 1873  10.193   2.151  10.021  0.0458  0.0111 -0.0482
  118loPI    C2 1874  10.566   2.049  10.125 -0.0396 -0.2070  0.0498
  118loPI    C3 1875  10.374   2.337  10.325 -0.0966 -0.4241  0.3131
  118loPI   PO4 1876  10.233   2.205   9.742  0.3660 -0.1787 -0.2507
  118loPI   GL1 1877  10.424   2.033   9.439 -0.3334 -0.2258  0.1483
  118loPI   GL2 1878  10.439   1.719   9.504  0.0231 -0.1482 -0.0529
  118loPI   C1A 1879  10.515   2.127   9.001  0.2165 -0.2870 -0.1035
  118loPI   C2A 1880  10.555   2.304   8.511  0.0186  0.0990  0.3492
  118loPI   C3A 1881  10.366   2.563   8.198 -0.0168 -0.2066  0.0627
  118loPI   C4A 1882  10.301   2.715   7.705 -0.1058  0.0254 -0.2175
  118loPI   C5A 1883  10.431   2.928   7.472 -0.0372 -0.1242  0.2159
  118loPI   C6A 1884  10.151   3.264   7.324 -0.1115  0.2217  0.1120
  118loPI   C1B 1885  10.395   1.435   9.066 -0.3975 -0.0665 -0.1321
  118loPI   C2B 1886  10.588   1.325   8.647 -0.2638  0.0982  0.2454
  118loPI   C3B 1887  10.819   1.187   8.256  0.0508 -0.2592 -0.0854
  118loPI   C4B 1888  10.906   1.115   7.909 -0.0130  0.0638 -0.0038
  119loPI    C1 1889  10.870  17.692  10.164  0.0422  0.2752  0.1203
  119loPI    C2 1890  10.715  17.429  10.423 -0.2041  0.3947  0.0969
  119loPI    C3 1891  11.001  17.682  10.542  0.1844 -0.0172  0.0664
  119loPI   PO4 1892  10.963  17.579   9.994 -0.3462 -0.1792  0.2262
  119loPI   GL1 1893  11.011  17.374   9.679 -0.6773 -0.0103 -0.0764
  119loPI   GL2 1894  11.077  17.028   9.701 -0.0217  0.0433 -0.2153
  119loPI   C1A 1895  10.833  17.269   9.289 -0.2224 -0.0009  0.0489
  119loPI   C2A 1896  10.791  16.965   9.018  0.0420  0.2336 -0.3036
  119loPI   C3A 1897  10.681  16.827   8.713 -0.3217 -0.1278 -0.0161
  119loPI   C4A 1898  10.564  16.495   8.480  0.2677  0.2412 -0.1750
  119loPI   C5A 1899  10.456  16.340   8.127  0.1370 -0.0015  0.4055
  119loPI   C6A 1900  10.358  16.011   7.872  0.0883 -0.1789 -0.0308
  119loPI   C1B 1901  11.205  16.948   9.346 -0.0541 -0.0030  0.0020
  119loPI   C2B 1902  11.252  16.959   8.821  0.1080  0.1619  0.0442
  119loPI   C3B 1903  11.136  16.796   8.388 -0.2814  0.0215 -0.3869
  119loPI   C4B 1904  10.920  16.529   8.102 -0.0510 -0.1424 -0.3779
  120loPI    C1 1905   2.866  12.337  10.286 -0.0455  0.1480 -0.0820
  120loPI    C2 1906   3.041  12.193  10.615  0.1460  0.1836 -0.1670
  120loPI    C3 1907   2.778  12.493  10.643 -0.3359 -0.2430  0.0239
  120loPI   PO4 1908   3.101  12.326  10.136 -0.3150 -0.1559 -0.1379
  120loPI   GL1 1909   3.410  12.186   9.914  0.1436  0.0138  0.1263
  120loPI   GL2 1910   3.694  12.126   9.913  0.1456  0.0615 -0.0929
  120loPI   C1A 1911   3.183  12.069   9.527  0.1916 -0.0620 -0.1644
  120loPI   C2A 1912   3.017  12.200   9.145  0.1629 -0.2751 -0.1868
  120loPI   C3A 1913   3.195  12.336   8.814 -0.4752 -0.3541 -0.1146
  120loPI   C4A 1914   3.216  12.301   8.439  0.1588  0.1152  0.0548
  120loPI   C5A 1915   3.637  12.386   8.252  0.3785 -0.2909  0.2508
  120loPI   C6A 1916   4.073  12.535   8.156 -0.1541  0.3099  0.0625
  120loPI   C1B 1917   3.691  12.199   9.465 -0.1570 -0.0972 -0.0627
  120loPI   C2B 1918   3.737  12.172   9.080  0.0467 -0.2326 -0.0072
  120loPI   C3B 1919   3.721  12.293   8.753 -0.1574 -0.0893 -0.0409
  120loPI   C4B 1920   4.062  12.116   8.400  0.1087 -0.3327  0.1615
  121loPI    C1 1921   0.428  14.235  10.646 -0.0126  0.0652 -0.1850
  121loPI    C2 1922   0.787  14.059  10.630 -0.0094  0.0249  0.2257
  121loPI    C3 1923   0.739  14.398  10.838 -0.1361  0.2213 -0.1148
  121loPI   PO4 1924   0.352  14.227  10.442  0.3353 -0.1337 -0.0927
  121loPI   GL1 1925   0.346  14.445  10.056 -0.0353 -0.2007  0.3424
  121loPI   GL2 1926   0.037  14.623  10.018 -0.1230 -0.2209 -0.0739
  121loPI   C1A 1927   0.646  14.517   9.818  0.2707  0.0756  0.0037
  121loPI   C2A 1928   0.715  14.548   9.408  0.0578  0.2610 -0.1983
  121loPI   C3A 1929   0.803  14.489   8.969  0.1191 -0.0089  0.2512
  121loPI   C4A 1930   0.878  14.502   8.563 -0.0760 -0.2036 -0.2596
  121loPI   C5A 1931   0.582  14.635   8.212  0.0483  0.2358  0.2424
  121loPI   C6A 1932   0.284  15.035   8.167 -0.0535  0.0563  0.0379
  121loPI   C1B 1933   0.046  14.654   9.608 -0.1017 -0.0641  0.2545
  121loPI   C2B 1934   0.228  14.638   9.230  0.0570  0.0305 -0.0198
  121loPI   C3B 1935   0.313  14.400   8.779  0.2582  0.0041 -0.2372
  121loPI   C4B 1936   0.353  14.059   8.443 -0.0369 -0.1519 -0.0047
  122loPI    C1 1937   5.328  14.867  10.531 -0.0748  0.0727  0.0444
  122loPI    C2 1938   5.196  15.168  10.759 -0.0949 -0.0771  0.2326
  122loPI    C3 1939   5.495  14.935  10.888 -0.2197 -0.2679  0.1817
  122loPI   PO4 1940   5.256  14.997  10.262 -0.1032 -0.2647 -0.3826
  122loPI   GL1 1941   5.252  15.225   9.945 -0.2521  0.1269 -0.3005
  122loPI   GL2 1942   5.267  15.496  10.028  0.2066 -0.5346 -0.0453
  122loPI   C1A 1943   5.244  15.282   9.522  0.0154  0.0538 -0.1414
  122loPI   C2A 1944   5.167  15.405   9.130 -0.1497  0.0126 -0.1692
  122loPI   C3A 1945   5.005  15.537   8.742 -0.2892  0.2617 -0.1494
  122loPI   C4A 1946   4.809  15.796   8.448  0.1784  0.0104  0.0942
  122loPI   C5A 1947   4.864  16.169   8.363  0.0953 -0.2249  0.2252
  122loPI   C6A 1948   4.910  16.484   8.498  0.2252 -0.1909 -0.1302
  122loPI   C1B 1949   5.656  15.533   9.790  0.2971  0.0864  0.1265
  122loPI   C2B 1950   5.713  15.244   9.430 -0.3175 -0.0785  0.2903
  122loPI   C3B 1951   5.710  15.093   8.978  0.0799 -0.3694 -0.2156
  122loPI   C4B 1952   5.618  14.849   8.504  0.3799  0.0934 -0.1285
  123loPI    C1 1953   5.027   4.989  10.261  0.1699  0.1422 -0.1729
  123loPI    C2 1954   5.304   5.274  10.306  0.1140  0.1547  0.1048
  123loPI    C3 1955   5.207   5.038  10.614  0.3512 -0.3441 -0.1900
  123loPI   PO4 1956   5.121   4.920  10.003 -0.3795  0.2965 -0.2878
  123loPI   GL1 1957   5.100   4.998   9.569  0.2131  0.0472 -0.1727
  123loPI   GL2 1958   4.926   5.290   9.577  0.2168 -0.0877  0.2109
  123loPI   C1A 1959   5.376   5.030   9.310 -0.3393  0.0111 -0.3128
  123loPI   C2A 1960   5.165   5.149   8.957 -0.0882  0.1510  0.0549
  123loPI   C3A 1961   4.890   5.065   8.751 -0.0783 -0.0906 -0.1286
  123loPI   C4A 1962   4.738   4.719   8.679  0.1680 -0.3011 -0.0960
  123loPI   C5A 1963   4.561   4.399   8.432 -0.2133  0.1377  0.0113
  123loPI   C6A 1964   4.573   4.205   8.024 -0.1486  0.1172  0.0756
  123loPI   C1B 1965   4.815   5.484   9.138  0.1748  0.2298  0.0997
  123loPI   C2B 1966   4.870   5.667   8.682  0.1670  0.0210  0.1148
  123loPI   C3B 1967   5.088   5.856   8.305 -0.2483  0.2106 -0.2927
  123loPI   C4B 1968   5.342   5.632   8.061 -0.5026  0.2665  0.0559
  124loPI    C1 1969   8.525  10.359  10.354 -0.3126 -0.2978  0.0351
  124loPI    C2 1970   8.519  10.197  10.720 -0.1759  0.0132  0.1781
  124loPI    C3 1971   8.336  10.546  10.652  0.0820  0.1234  0.0317
  124loPI   PO4 1972   8.747  10.141  10.173 -0.1725 -0.0788  0.1537
  124loPI   GL1 1973   9.027  10.232   9.812 -0.0817 -0.2807  0.0598
  124loPI   GL2 1974   9.326  10.149   9.784 -0.2233  0.2298  0.0209
  124loPI   C1A 1975   8.875   9.960   9.520  0.1221  0.0132 -0.0754
  124loPI   C2A 1976   8.907   9.930   9.120 -0.0605 -0.1290 -0.3402
  124loPI   C3A 1977   8.928  10.067   8.706 -0.2122 -0.1106  0.0761
  124loPI   C4A 1978   8.956  10.326   8.333  0.2688  0.3278 -0.0644
  124loPI   C5A 1979   9.107  10.329   7.922  0.0652 -0.1359 -0.0108
  124loPI   C6A 1980   9.567  10.227   8.024 -0.0989  0.2459 -0.1496
  124loPI   C1B 1981   9.451  10.269   9.408  0.0392  0.1695  0.2273
  124loPI   C2B 1982   9.289  10.410   8.910 -0.0223 -0.1430 -0.0093
  124loPI   C3B 1983   9.432  10.538   8.464  0.0293  0.0536 -0.4709
  124loPI   C4B 1984   9.417  10.830   8.169  0.0524  0.1528 -0.2356
  125loPI    C1 1985  11.272   7.584  10.286  0.1633  0.0603 -0.1960
  125loPI    C2 1986  11.333   7.207  10.168 -0.1059 -0.0592  0.0350
  125loPI    C3 1987  11.266   7.288  10.554 -0.0405  0.2279 -0.0113
  125loPI   PO4 1988  11.039   7.716  10.127 -0.0054  0.1115  0.1274
  125loPI   GL1 1989  10.783   7.816   9.735  0.2947  0.2282  0.1565
  125loPI   GL2 1990  10.462   7.625   9.720 -0.2400 -0.3150  0.2767
  125loPI   C1A 1991  10.958   7.864   9.272 -0.1759  0.3138 -0.2143
  125loPI   C2A 1992  11.165   7.852   8.945 -0.1096 -0.2567 -0.1803
  125loPI   C3A 1993  11.209   7.784   8.503  0.1184 -0.1297 -0.3170
  125loPI   C4A 1994  11.239   7.868   8.024 -0.0949  0.1310 -0.2605
  125loPI   C5A 1995  11.151   8.251   7.783 -0.0028  0.0136  0.1047
  125loPI   C6A 1996  11.492   8.526   7.581 -0.0985 -0.2331 -0.1390
  125loPI   C1B 1997  10.597   7.403   9.307  0.0705  0.0593  0.2241
  125loPI   C2B 1998  10.681   7.581   8.972 -0.0869 -0.0487 -0.0526
  125loPI   C3B 1999  10.696   7.709   8.550 -0.1425  0.0096 -0.3877
  125loPI   C4B 2000  10.818   7.535   8.213 -0.2517  0.0725 -0.0245
  126loPI    C1 2001  15.755   4.779  10.908 -0.3539 -0.1644  0.0770
  126loPI    C2 2002  16.077   4.612  11.075  0.0778  0.3080 -0.2498
  126loPI    C3 2003  15.731   4.622  11.275  0.2946 -0.0832  0.1666
  126loPI   PO4 2004  15.771   4.602  10.663  0.2530 -0.0916  0.1834
  126loPI   GL1 2005  15.743   4.469  10.260  0.0449 -0.1994 -0.2619
  126loPI   GL2 2006  16.120   4.524  10.164 -0.1256  0.2043 -0.0568
  126loPI   C1A 2007  15.701   4.298   9.875  0.0400 -0.0186 -0.2944
  126loPI   C2A 2008  15.943   4.127   9.528 -0.0036  0.0740  0.1505
  126loPI   C3A 2009  16.079   4.020   9.118 -0.0817  0.0410 -0.2792
  126loPI   C4A 2010  16.402   3.987   8.820 -0.0214  0.0941 -0.2463
  126loPI   C5A 2011  16.522   3.680   8.440  0.3826  0.0727 -0.1228
  126loPI   C6A 2012  16.884   3.436   8.398 -0.2072 -0.0132  0.1430
  126loPI   C1B 2013  16.225   4.521   9.725  0.0678 -0.0172 -0.0564
  126loPI   C2B 2014  16.185   4.482   9.327  0.3416 -0.0562  0.0738
  126loPI   C3B 2015  16.289   4.522   8.942  0.1502  0.1515  0.1132
  126loPI   C4B 2016  16.643   4.413   8.644  0.2222 -0.1468 -0.4067
  127loPI    C1 2017   9.766  14.829  10.049 -0.2288  0.1209  0.0157
  127loPI    C2 2018   9.662  15.026  10.381 -0.1022 -0.0267  0.1451
  127loPI    C3 2019   9.418  14.748  10.229 -0.2213  0.1351  0.0367
  127loPI   PO4 2020  10.022  15.009  10.010 -0.1328 -0.2416  0.0539
  127loPI   GL1 2021  10.276  15.462   9.884 -0.0103 -0.1115 -0.0732
  127loPI   GL2 2022  10.538  15.689   9.758 -0.1492  0.1601  0.0438
  127loPI   C1A 2023  10.330  15.406   9.424  0.2788  0.3831 -0.0385
  127loPI   C2A 2024  10.433  15.217   9.067  0.0242 -0.1331 -0.0590
  127loPI   C3A 2025  10.410  15.227   8.618  0.2275 -0.1403 -0.1368
  127loPI   C4A 2026  10.411  14.860   8.304 -0.3590 -0.2206 -0.0707
  127loPI   C5A 2027  10.376  14.725   7.908 -0.2931 -0.1535  0.1187
  127loPI   C6A 2028  10.190  14.412   7.786 -0.1798 -0.1795  0.0465
  127loPI   C1B 2029  10.606  15.824   9.278 -0.0826 -0.0445 -0.0544
  127loPI   C2B 2030  10.724  15.824   8.920  0.3050 -0.2840 -0.1026
  127loPI   C3B 2031  10.768  15.605   8.562  0.2682 -0.0963 -0.0654
  127loPI   C4B 2032  11.173  15.527   8.308 -0.1329 -0.0039  0.2847
  128loPI    C1 2033  10.119   0.820  10.147 -0.0455 -0.1968  0.1378
  128loPI    C2 2034   9.827   0.928  10.399 -0.1989 -0.1964 -0.0382
  128loPI    C3 2035  10.084   0.640  10.503 -0.0695  0.0155  0.2449
  128loPI   PO4 2036  10.107   1.049   9.961 -0.0839  0.1491  0.2164
  128loPI   GL1 2037   9.999   1.172   9.707 -0.2176  0.0284  0.2277
  128loPI   GL2 2038  10.127   1.263   9.477 -0.1021 -0.1444 -0.2684
  128loPI   C1A 2039   9.619   1.104   9.524 -0.2114  0.2820 -0.1525
  128loPI   C2A 2040   9.369   0.855   9.226  0.2282 -0.0137  0.1946
  128loPI   C3A 2041   9.048   0.652   9.070  0.3778  0.0049  0.0307
  128loPI   C4A 2042   9.008   0.669   8.703 -0.0386  0.2088  0.0708
  128loPI   C5A 2043   8.837   0.466   8.344  0.2263  0.0675  0.0743
  128loPI   C6A 2044   8.483   0.329   8.052 -0.0939 -0.0045 -0.0104
  128loPI   C1B 2045  10.001   1.127   9.125 -0.1996 -0.1719 -0.1108
  128loPI   C2B 2046  10.075   1.192   8.677  0.1390 -0.3935  0.2278
  128loPI   C3B 2047   9.914   1.287   8.274 -0.1348  0.0263  0.0564
  128loPI   C4B 2048   9.748   1.323   7.799  0.2710  0.1081  0.2593
  129loPI    C1 2049  14.158   2.670  10.819 -0.1547  0.0162  0.0207
  129loPI    C2 2050  14.014   2.943  11.074 -0.2561  0.1043 -0.1295
  129loPI    C3 2051  14.404   2.851  11.077 -0.2724  0.0379  0.1183
  129loPI   PO4 2052  14.046   2.716  10.528  0.0326 -0.1371 -0.3331
  129loPI   GL1 2053  14.142   2.538  10.172 -0.2950  0.2167 -0.1065
  129loPI   GL2 2054  14.057   2.539   9.874 -0.1300  0.1063 -0.0507
  129loPI   C1A 2055  14.602   2.531  10.099 -0.2282 -0.1041  0.0522
  129loPI   C2A 2056  14.935   2.563   9.757  0.3364 -0.1157 -0.3115
  129loPI   C3A 2057  14.980   2.350   9.403  0.1076  0.2953  0.4539
  129loPI   C4A 2058  14.762   2.186   9.046  0.2351 -0.1480 -0.7025
  129loPI   C5A 2059  14.677   2.081   8.674 -0.1232 -0.3292 -0.0883
  129loPI   C6A 2060  14.548   2.210   8.263 -0.0037  0.3388 -0.2069
  129loPI   C1B 2061  14.242   2.584   9.439  0.0514  0.0458 -0.1089
  129loPI   C2B 2062  14.371   2.695   9.056 -0.0344 -0.0854  0.0586
  129loPI   C3B 2063  14.284   2.691   8.644  0.2949 -0.1240 -0.2173
  129loPI   C4B 2064  14.426   2.663   8.235  0.0770 -0.2119 -0.0941
  130loPI    C1 2065   0.179   5.289  10.361  0.0459  0.0537 -0.1632
  130loPI    C2 2066   0.315   5.220  10.730 -0.0537 -0.0248 -0.1408
  130loPI    C3 2067  -0.050   5.373  10.677 -0.0306  0.0082 -0.2061
  130loPI   PO4 2068   0.490   5.232  10.241  0.1657  0.0531 -0.1303
  130loPI   GL1 2069   0.658   5.037   9.942  0.0146 -0.1529 -0.0703
  130loPI   GL2 2070   0.537   4.734  10.014 -0.3139  0.2267 -0.1320
  130loPI   C1A 2071   0.929   5.069   9.566  0.0400 -0.0068 -0.1141
  130loPI   C2A 2072   1.245   5.180   9.255 -0.0745  0.1120  0.2183
  130loPI   C3A 2073   1.288   5.232   8.891  0.2224  0.2638 -0.1086
  130loPI   C4A 2074   1.187   5.258   8.453 -0.1700  0.0540  0.1471
  130loPI   C5A 2075   1.408   5.489   8.053  0.0457  0.0581 -0.0436
  130loPI   C6A 2076   1.451   5.786   7.751 -0.0134 -0.0952 -0.1447
  130loPI   C1B 2077   0.590   4.611   9.573  0.2009  0.0533 -0.2240
  130loPI   C2B 2078   0.765   4.658   9.244  0.1842 -0.0463 -0.3119
  130loPI   C3B 2079   0.831   4.832   8.848  0.1725 -0.0540 -0.0875
  130loPI   C4B 2080   0.825   4.926   8.331  0.3590  0.1158  0.0568
  131loPI    C1 2081   4.748  17.921  10.375 -0.0703  0.0045  0.0904
  131loPI    C2 2082   4.477  18.023  10.651  0.0994 -0.0718  0.2877
  131loPI    C3 2083   4.358  17.884  10.296 -0.1218  0.1034  0.2913
  131loPI   PO4 2084   4.905  18.004  10.327  0.1785  0.0718 -0.1557
  131loPI   GL1 2085   4.988  18.407  10.185 -0.1253 -0.3156 -0.2103
  131loPI   GL2 2086   5.076  18.709  10.382 -0.2656  0.2036  0.2599
  131loPI   C1A 2087   5.009  18.418   9.740  0.3820  0.1175  0.1336
  131loPI   C2A 2088   4.964  18.487   9.278 -0.2475  0.0610  0.2150
  131loPI   C3A 2089   4.944  18.718   8.938  0.0291  0.1637  0.2137
  131loPI   C4A 2090   4.760  19.198   8.795 -0.1795  0.5306  0.1772
  131loPI   C5A 2091   4.777  19.494   8.464  0.1964  0.3094 -0.1192
  131loPI   C6A 2092   4.967  19.806   8.302  0.4212 -0.0459  0.1479
  131loPI   C1B 2093   5.341  18.763  10.048  0.0799 -0.0015  0.0790
  131loPI   C2B 2094   5.250  18.881   9.615 -0.0690  0.0672  0.0786
  131loPI   C3B 2095   5.349  18.912   9.239 -0.4103 -0.1665 -0.0671
  131loPI   C4B 2096   5.308  19.091   8.730  0.1552  0.0261  0.0321
  132loPI    C1 2097   3.769   5.277  10.274 -0.2076 -0.2938 -0.1311
  132loPI    C2 2098   3.980   5.217  10.608 -0.0014  0.0157 -0.2014
  132loPI    C3 2099   3.581   5.234  10.625  0.0016 -0.0882  0.0096
  132loPI   PO4 2100   3.986   5.296  10.113  0.1260 -0.0092 -0.1144
  132loPI   GL1 2101   4.226   4.970   9.798 -0.1427  0.1787  0.0731
  132loPI   GL2 2102   4.560   4.934   9.904 -0.0622  0.5450 -0.1314
  132loPI   C1A 2103   4.129   4.863   9.314  0.0677 -0.1365 -0.1548
  132loPI   C2A 2104   4.365   4.939   8.936  0.2707 -0.2068 -0.1402
  132loPI   C3A 2105   4.485   5.241   8.618  0.0896 -0.0638  0.4711
  132loPI   C4A 2106   4.597   5.432   8.281  0.0398  0.1575 -0.3877
  132loPI   C5A 2107   4.549   5.826   8.236 -0.0244  0.1503 -0.0983
  132loPI   C6A 2108   4.260   6.127   7.898  0.0635  0.0667 -0.0945
  132loPI   C1B 2109   4.638   4.605   9.510  0.0129 -0.2806  0.2419
  132loPI   C2B 2110   4.576   4.512   9.062 -0.0078  0.0585 -0.2226
  132loPI   C3B 2111   4.411   4.079   8.798 -0.1820 -0.1710 -0.0060
  132loPI   C4B 2112   4.012   3.973   8.723  0.2494 -0.3625 -0.0644
  133loPI    C1 2113   5.463   0.034  10.404  0.0946 -0.1192  0.0497
  133loPI    C2 2114   5.269  -0.192  10.670  0.0703  0.0495  0.1764
  133loPI    C3 2115   5.349   0.191  10.753 -0.0433  0.1371 -0.1077
  133loPI   PO4 2116   5.721  -0.164  10.445 -0.1519  0.1282 -0.0685
  133loPI   GL1 2117   6.057  -0.206  10.158 -0.3677 -0.0208 -0.4373
  133loPI   GL2 2118   5.833  -0.423  10.025  0.1325  0.0761  0.0834
  133loPI   C1A 2119   6.379  -0.352   9.897  0.4306  0.2172 -0.2162
  133loPI   C2A 2120   6.202  -0.471   9.457  0.1221  0.2176  0.3024
  133loPI   C3A 2121   5.952  -0.324   9.033  0.0394 -0.4458 -0.0920
  133loPI   C4A 2122   5.855  -0.041   8.695  0.1664 -0.1995  0.0403
  133loPI   C5A 2123   5.818   0.250   8.441 -0.2397 -0.1718  0.2183
  133loPI   C6A 2124   5.520   0.621   8.189  0.0249  0.0763 -0.0800
  133loPI   C1B 2125   5.696  -0.517   9.605  0.1547  0.1119  0.1383
  133loPI   C2B 2126   5.608  -0.698   9.243  0.0221  0.1597 -0.0487
  133loPI   C3B 2127   5.675  -0.682   8.867 -0.2087  0.0917  0.0097
  133loPI   C4B 2128   5.710  -0.797   8.466 -0.1904  0.2268 -0.2292
  134loPI    C1 2129  10.827  12.744  10.412  0.2241 -0.0667  0.0242
  134loPI    C2 2130  11.097  12.451  10.450  0.1396 -0.1171  0.2545
  134loPI    C3 2131  10.744  12.424  10.637 -0.0477 -0.0749 -0.0837
  134loPI   PO4 2132  10.787  12.736  10.092  0.0582 -0.0229 -0.1358
  134loPI   GL1 2133  10.629  13.076   9.835  0.2886  0.0639 -0.1068
  134loPI   GL2 2134  10.333  13.153   9.893  0.0645 -0.0703 -0.2685
  134loPI   C1A 2135  10.585  12.868   9.417  0.0562  0.3312  0.1051
  134loPI   C2A 2136  10.503  12.859   8.943  0.1977 -0.1330  0.0555
  134loPI   C3A 2137  10.469  12.903   8.507  0.0734  0.0520 -0.1696
  134loPI   C4A 2138  10.390  13.108   8.202 -0.0948  0.0551 -0.2293
  134loPI   C5A 2139  10.117  13.086   7.982 -0.0908  0.1555 -0.4597
  134loPI   C6A 2140   9.720  13.170   7.920  0.2400 -0.0138  0.0135
  134loPI   C1B 2141  10.128  12.906   9.649  0.0545 -0.1260  0.0228
  134loPI   C2B 2142  10.118  12.789   9.254  0.1882  0.0955 -0.1588
  134loPI   C3B 2143  10.016  12.746   8.875  0.1901 -0.1830  0.0844
  134loPI   C4B 2144   9.991  12.881   8.437 -0.0773 -0.0358 -0.1410
  135loPI    C1 2145   9.315  15.658  10.097  0.0149  0.2500 -0.1415
  135loPI    C2 2146   9.357  15.418  10.414 -0.1197  0.0925 -0.2410
  135loPI    C3 2147   9.518  15.784  10.417 -0.0556  0.0639 -0.0217
  135loPI   PO4 2148   9.411  15.509   9.939 -0.0445 -0.1999  0.1524
  135loPI   GL1 2149   9.775  15.282   9.709  0.1294  0.0837  0.0450
  135loPI   GL2 2150   9.866  15.601   9.624  0.0149  0.0300 -0.1202
  135loPI   C1A 2151   9.900  15.277   9.222 -0.1064  0.2077 -0.2587
  135loPI   C2A 2152   9.638  15.327   8.811  0.1487 -0.2349 -0.2949
  135loPI   C3A 2153   9.464  15.413   8.391 -0.3259  0.1577 -0.0449
  135loPI   C4A 2154   9.268  15.541   7.970  0.2750 -0.1688 -0.0282
  135loPI   C5A 2155   9.049  15.784   7.614  0.1147 -0.1828  0.1087
  135loPI   C6A 2156   8.914  15.872   7.174 -0.0061  0.0593 -0.0155
  135loPI   C1B 2157   9.631  15.725   9.172 -0.1618 -0.1486  0.0924
  135loPI   C2B 2158   9.551  15.885   8.721 -0.0412  0.2852  0.0520
  135loPI   C3B 2159   9.527  15.942   8.290  0.0266 -0.0613 -0.0006
  135loPI   C4B 2160   9.367  16.062   7.950 -0.0528  0.1231  0.1362
  136loPI    C1 2161  11.207   8.110  10.417 -0.1995 -0.1982  0.0474
  136loPI    C2 2162  11.269   8.234  10.792 -0.0840  0.0754 -0.0595
  136loPI    C3 2163  10.920   8.066  10.692 -0.1382  0.0577  0.1547
  136loPI   PO4 2164  11.462   8.041  10.292  0.0116  0.2263 -0.0761
  136loPI   GL1 2165  11.405   8.045   9.855  0.1945  0.1730  0.0109
  136loPI   GL2 2166  11.314   7.712   9.737  0.2275  0.2078  0.1824
  136loPI   C1A 2167  11.271   8.143   9.467 -0.0602 -0.1793  0.2719
  136loPI   C2A 2168  11.210   8.350   8.959  0.0068 -0.1100  0.2093
  136loPI   C3A 2169  11.164   8.330   8.579  0.2822 -0.1114  0.0674
  136loPI   C4A 2170  11.425   8.314   8.222 -0.2281 -0.1654 -0.2701
  136loPI   C5A 2171  11.838   8.378   8.009  0.2869  0.1648 -0.0007
  136loPI   C6A 2172  12.010   8.622   7.778 -0.0660 -0.2226 -0.2186
  136loPI   C1B 2173  11.495   7.603   9.293  0.1745  0.0966 -0.0217
  136loPI   C2B 2174  11.482   7.476   8.915  0.2843 -0.1263  0.0797
  136loPI   C3B 2175  11.095   7.261   8.666  0.0116  0.0842 -0.0661
  136loPI   C4B 2176  10.625   7.243   8.623  0.1083  0.1315  0.0913
  137loPI    C1 2177  16.558   6.005  10.294 -0.1426  0.2283  0.0084
  137loPI    C2 2178  16.858   5.863  10.070 -0.2880 -0.0497 -0.0148
  137loPI    C3 2179  16.849   5.790  10.463 -0.2163  0.1400  0.0235
  137loPI   PO4 2180  16.587   6.276  10.247  0.1305 -0.0622  0.0509
  137loPI   GL1 2181  16.464   6.444   9.886 -0.1539  0.1097 -0.2345
  137loPI   GL2 2182  16.482   6.065   9.776  0.0245 -0.0661 -0.1814
  137loPI   C1A 2183  16.928   6.240   9.587 -0.0492  0.3422 -0.1987
  137loPI   C2A 2184  16.953   6.450   9.244 -0.1725 -0.1684  0.1506
  137loPI   C3A 2185  16.948   6.193   8.896 -0.1080  0.0086  0.0735
  137loPI   C4A 2186  17.035   5.910   8.590  0.0069 -0.0702 -0.3636
  137loPI   C5A 2187  16.828   5.712   8.302 -0.2000  0.0032 -0.2912
  137loPI   C6A 2188  16.640   5.753   8.043 -0.0211 -0.3798 -0.1880
  137loPI   C1B 2189  16.542   6.090   9.341  0.0091  0.0537  0.2040
  137loPI   C2B 2190  16.582   5.868   9.032 -0.1373  0.0358 -0.1808
  137loPI   C3B 2191  16.498   5.682   8.686  0.0958 -0.0659 -0.1414
  137loPI   C4B 2192  16.428   5.375   8.324 -0.2275  0.2269 -0.1187
  138loPI    C1 2193   8.404  16.774  10.135 -0.2357 -0.1529 -0.0193
  138loPI    C2 2194   8.437  17.036  10.435 -0.1066 -0.0643 -0.1099
  138loPI    C3 2195   8.303  16.666  10.507 -0.0049 -0.0673  0.0698
  138loPI   PO4 2196   8.636  16.843  10.023  0.2500 -0.0014 -0.3449
  138loPI   GL1 2197   8.586  17.052   9.635  0.1457 -0.1300  0.1415
  138loPI   GL2 2198   8.309  16.983   9.654  0.0683  0.2720 -0.0475
  138loPI   C1A 2199   8.512  17.094   9.196 -0.0151  0.4829 -0.0509
  138loPI   C2A 2200   8.479  17.087   8.786 -0.3832 -0.0455  0.0123
  138loPI   C3A 2201   8.487  17.224   8.409 -0.0426  0.1162 -0.0195
  138loPI   C4A 2202   8.680  17.350   7.988 -0.1062 -0.0272  0.2425
  138loPI   C5A 2203   8.461  17.421   7.528  0.0697 -0.1752 -0.0034
  138loPI   C6A 2204   8.631  17.605   7.142 -0.3663 -0.4673  0.0677
  138loPI   C1B 2205   8.068  16.957   9.235  0.1862  0.3201 -0.1269
  138loPI   C2B 2206   8.042  16.843   8.763 -0.1927  0.1045 -0.0393
  138loPI   C3B 2207   8.027  16.949   8.253 -0.1828  0.4062 -0.2692
  138loPI   C4B 2208   7.722  16.966   7.991 -0.2190 -0.0947 -0.0629
  139loPI    C1 2209   8.274  13.776  10.814 -0.0611 -0.0118  0.2013
  139loPI    C2 2210   8.117  13.709  11.176  0.0270  0.2361  0.2875
  139loPI    C3 2211   8.370  14.014  11.121  0.3309 -0.0418  0.1073
  139loPI   PO4 2212   8.104  13.787  10.655  0.1542  0.1443  0.5133
  139loPI   GL1 2213   8.082  14.067  10.404  0.3385  0.0253 -0.0099
  139loPI   GL2 2214   8.377  14.025  10.375 -0.1572 -0.1405 -0.0110
  139loPI   C1A 2215   7.872  13.976   9.950  0.0731 -0.1412  0.1478
  139loPI   C2A 2216   7.536  14.080   9.639  0.1006  0.0448  0.1273
  139loPI   C3A 2217   7.234  14.288   9.324 -0.1401  0.1688 -0.2029
  139loPI   C4A 2218   7.233  14.224   8.939 -0.0256 -0.2444 -0.2093
  139loPI   C5A 2219   7.233  14.353   8.488  0.0088  0.1613  0.1012
  139loPI   C6A 2220   7.591  14.229   8.264 -0.1647 -0.0142 -0.3319
  139loPI   C1B 2221   8.294  14.148   9.893 -0.0564  0.2285 -0.0487
  139loPI   C2B 2222   8.118  14.195   9.540  0.2144  0.2227  0.2060
  139loPI   C3B 2223   8.130  14.209   9.120  0.1010  0.0307 -0.1157
  139loPI   C4B 2224   8.110  14.282   8.600 -0.1047 -0.0687 -0.1853
  140loPI    C1 2225   0.154   2.825  10.693 -0.1561 -0.0767  0.0164
  140loPI    C2 2226  -0.237   2.896  10.651 -0.1177  0.1322  0.0011
  140loPI    C3 2227  -0.089   2.802  11.010 -0.1887  0.0043 -0.0025
  140loPI   PO4 2228   0.203   2.968  10.402  0.0736  0.0782  0.0870
  140loPI   GL1 2229   0.201   2.840   9.963  0.1309 -0.1664  0.0233
  140loPI   GL2 2230   0.334   2.816   9.698  0.4639  0.0488 -0.0754
  140loPI   C1A 2231   0.079   2.383   9.947 -0.2657  0.2057  0.1336
  140loPI   C2A 2232   0.197   2.155   9.594 -0.0375  0.0942 -0.4946
  140loPI   C3A 2233   0.487   2.203   9.221  0.0456  0.1543 -0.0199
  140loPI   C4A 2234   0.517   1.944   8.867 -0.3695 -0.2055  0.0650
  140loPI   C5A 2235   0.335   1.793   8.571  0.0320  0.1324 -0.0263
  140loPI   C6A 2236   0.081   1.402   8.401 -0.1450  0.2217 -0.2571
  140loPI   C1B 2237   0.110   2.608   9.423 -0.1548  0.2359  0.1532
  140loPI   C2B 2238   0.018   2.366   9.036 -0.1181  0.1924 -0.2125
  140loPI   C3B 2239   0.037   2.321   8.599  0.1362  0.0639  0.0507
  140loPI   C4B 2240   0.231   2.376   8.186 -0.2237  0.1284  0.0074
  141loPI    C1 2241  11.381  17.583  10.288  0.1493  0.1071 -0.2154
  141loPI    C2 2242  11.315  17.257  10.066 -0.1218 -0.0244  0.0494
  141loPI    C3 2243  11.634  17.273  10.307 -0.2408 -0.1999  0.2213
  141loPI   PO4 2244  11.390  17.848  10.135 -0.2594 -0.0417 -0.4554
  141loPI   GL1 2245  11.257  18.035   9.727  0.1161  0.1022  0.2490
  141loPI   GL2 2246  11.329  17.724   9.660 -0.2496 -0.0753  0.1721
  141loPI   C1A 2247  11.368  18.086   9.252  0.0226 -0.0778  0.1390
  141loPI   C2A 2248  11.286  18.002   8.845  0.1594 -0.0194  0.0321
  141loPI   C3A 2249  11.131  17.965   8.416  0.2170 -0.0930  0.1329
  141loPI   C4A 2250  11.095  17.734   8.037  0.1666 -0.1681  0.1074
  141loPI   C5A 2251  11.354  17.440   7.811  0.0947 -0.1498  0.0002
  141loPI   C6A 2252  11.761  17.224   7.780 -0.1339 -0.1846  0.0136
  141loPI   C1B 2253  11.262  17.559   9.283  0.1871  0.1054  0.0291
  141loPI   C2B 2254  11.205  17.459   8.799 -0.0471  0.0174  0.1048
  141loPI   C3B 2255  11.169  17.335   8.276  0.0353  0.3711  0.1593
  141loPI   C4B 2256  10.855  17.258   8.035 -0.0086  0.0171  0.1157
  142loPI    C1 2257   2.902   6.598  10.471 -0.3772  0.3924 -0.3055
  142loPI    C2 2258   2.708   6.259  10.557  0.2184  0.0304 -0.3360
  142loPI    C3 2259   2.681   6.573  10.803 -0.1643 -0.1095 -0.1923
  142loPI   PO4 2260   2.869   6.607  10.194 -0.3043 -0.2685 -0.0778
  142loPI   GL1 2261   2.777   6.851   9.844 -0.0127 -0.1902  0.0933
  142loPI   GL2 2262   2.479   6.702   9.706  0.1603 -0.2813  0.3701
  142loPI   C1A 2263   2.952   6.856   9.378 -0.1044  0.0067 -0.1075
  142loPI   C2A 2264   2.909   6.871   8.959  0.0572  0.0812  0.2514
  142loPI   C3A 2265   2.975   6.814   8.475  0.4053 -0.1067 -0.2645
  142loPI   C4A 2266   2.831   6.859   8.057 -0.4193 -0.3521  0.4184
  142loPI   C5A 2267   2.987   6.767   7.648 -0.1651  0.3599  0.4196
  142loPI   C6A 2268   2.816   6.509   7.375 -0.0888  0.3761 -0.1682
  142loPI   C1B 2269   2.501   6.556   9.328  0.0478  0.2659 -0.4669
  142loPI   C2B 2270   2.401   6.306   9.015  0.1354 -0.1125  0.1170
  142loPI   C3B 2271   2.240   6.288   8.677 -0.0004 -0.0964 -0.0267
  142loPI   C4B 2272   2.241   6.214   8.225  0.1180 -0.0588  0.1705
  143loPI    C1 2273   6.811   9.275   9.743 -0.0400 -0.1726  0.2585
  143loPI    C2 2274   6.800   9.461  10.097  0.1643 -0.0563  0.2057
  143loPI    C3 2275   7.148   9.419   9.904  0.0131  0.1453 -0.1198
  143loPI   PO4 2276   6.669   9.420   9.600 -0.0980  0.1571  0.1696
  143loPI   GL1 2277   6.337   9.493   9.496  0.1749 -0.2096  0.1116
  143loPI   GL2 2278   6.088   9.262   9.527  0.0122  0.0533 -0.2329
  143loPI   C1A 2279   6.298   9.451   9.061 -0.2421 -0.0346 -0.1382
  143loPI   C2A 2280   6.239   9.421   8.601  0.1168 -0.0268  0.0914
  143loPI   C3A 2281   6.304   9.564   8.141 -0.0085 -0.1259  0.1308
  143loPI   C4A 2282   6.144   9.880   7.842  0.1516  0.0610 -0.1272
  143loPI   C5A 2283   5.918  10.254   7.717  0.0879 -0.0298  0.4086
  143loPI   C6A 2284   5.434  10.267   7.990 -0.0679 -0.2328  0.5205
  143loPI   C1B 2285   5.804   9.313   9.156 -0.2679 -0.4521 -0.0463
  143loPI   C2B 2286   5.716   9.361   8.684  0.1318  0.0562  0.0943
  143loPI   C3B 2287   5.769   9.447   8.259  0.2578 -0.0186  0.0546
  143loPI   C4B 2288   5.892   9.260   7.834  0.0201  0.0346 -0.2950
  144loPI    C1 2289   7.783  12.085  10.464  0.2372  0.1315  0.1934
  144loPI    C2 2290   8.041  11.816  10.319  0.0204  0.0373 -0.0250
  144loPI    C3 2291   7.843  11.740  10.658  0.2248  0.0797  0.1057
  144loPI   PO4 2292   7.956  12.369  10.374  0.1545  0.1777  0.0916
  144loPI   GL1 2293   8.121  12.632  10.032  0.4420  0.0113 -0.2094
  144loPI   GL2 2294   7.790  12.711  10.034 -0.0559  0.2522 -0.3444
  144loPI   C1A 2295   8.211  12.361   9.675  0.0378  0.0562 -0.0737
  144loPI   C2A 2296   8.308  12.098   9.266  0.0480 -0.0257 -0.3002
  144loPI   C3A 2297   8.397  12.229   8.876  0.1060 -0.0217 -0.0557
  144loPI   C4A 2298   8.381  12.210   8.424  0.0973  0.0942  0.1245
  144loPI   C5A 2299   8.603  12.231   8.026 -0.0987 -0.0555 -0.3801
  144loPI   C6A 2300   8.836  12.522   7.673 -0.0936  0.0835 -0.0469
  144loPI   C1B 2301   7.822  12.787   9.641 -0.1559  0.2205  0.1323
  144loPI   C2B 2302   7.801  13.179   9.408  0.1343 -0.3518 -0.1036
  144loPI   C3B 2303   7.680  13.311   9.012 -0.0628  0.0149 -0.0012
  144loPI   C4B 2304   7.617  13.535   8.696  0.0117  0.2745  0.3788
  145loPI    C1 2305   5.036  15.616  10.688  0.0473  0.1748 -0.0290
  145loPI    C2 2306   4.940  15.365  10.391  0.0778  0.1598 -0.0262
  145loPI    C3 2307   4.652  15.534  10.612  0.0628 -0.0113  0.0871
  145loPI   PO4 2308   5.328  15.732  10.561 -0.0209 -0.0515  0.0962
  145loPI   GL1 2309   5.327  16.028  10.221 -0.0398 -0.2113  0.3892
  145loPI   GL2 2310   5.641  16.075   9.933 -0.0513  0.0177  0.1172
  145loPI   C1A 2311   5.134  15.954   9.846  0.0220  0.1704 -0.1807
  145loPI   C2A 2312   5.225  15.798   9.510 -0.1556  0.0758 -0.0410
  145loPI   C3A 2313   5.556  15.673   9.309  0.2342 -0.3438 -0.1457
  145loPI   C4A 2314   5.521  15.576   8.863 -0.1383  0.5275 -0.0614
  145loPI   C5A 2315   5.740  15.446   8.531 -0.0605  0.1852 -0.1146
  145loPI   C6A 2316   5.771  15.147   8.069  0.1842 -0.0466 -0.2158
  145loPI   C1B 2317   5.792  16.123   9.477  0.2711  0.2031  0.1434
  145loPI   C2B 2318   5.664  16.115   9.089  0.1579 -0.3387  0.2320
  145loPI   C3B 2319   5.610  16.041   8.771 -0.1957  0.1551 -0.1259
  145loPI   C4B 2320   5.352  15.844   8.456 -0.0034  0.4498  0.0477
  146loPI    C1 2321   5.101   2.225  10.677 -0.0206  0.0149  0.0978
  146loPI    C2 2322   5.115   2.568  10.883  0.1139 -0.1236  0.3230
  146loPI    C3 2323   4.979   2.235  11.057 -0.1413 -0.1585  0.0644
  146loPI   PO4 2324   5.357   2.279  10.463 -0.0099 -0.0388 -0.0801
  146loPI   GL1 2325   5.540   2.657  10.202 -0.2940  0.0880 -0.0709
  146loPI   GL2 2326   5.887   2.925  10.219  0.0221  0.0431 -0.0098
  146loPI   C1A 2327   5.260   2.605   9.862  0.0735 -0.0321 -0.1056
  146loPI   C2A 2328   5.308   2.726   9.357 -0.1783  0.0056 -0.2491
  146loPI   C3A 2329   5.301   2.907   9.006  0.2354  0.0702 -0.1431
  146loPI   C4A 2330   5.278   2.947   8.579  0.1783  0.0506 -0.0322
  146loPI   C5A 2331   5.239   2.699   8.259 -0.5004  0.0047  0.1162
  146loPI   C6A 2332   5.339   2.294   8.186  0.0816 -0.2839 -0.1262
  146loPI   C1B 2333   5.742   2.924   9.834 -0.0265 -0.3148  0.1689
  146loPI   C2B 2334   5.636   3.067   9.388 -0.0094  0.2304 -0.1045
  146loPI   C3B 2335   5.578   3.325   9.140 -0.2691 -0.1962 -0.2300
  146loPI   C4B 2336   5.477   3.403   8.678 -0.0014 -0.1570  0.0523
  147loPI    C1 2337  13.508   0.775  10.046 -0.0646 -0.1278  0.1249
  147loPI    C2 2338  13.602   1.102   9.835 -0.1629  0.0163  0.3006
  147loPI    C3 2339  13.873   0.812   9.888 -0.0934  0.0419  0.0962
  147loPI   PO4 2340  13.323   0.720  10.002 -0.0561 -0.4450  0.1314
  147loPI   GL1 2341  13.244   0.790   9.599  0.0823  0.0325  0.2156
  147loPI   GL2 2342  12.987   1.033   9.519  0.4127 -0.2713  0.0397
  147loPI   C1A 2343  13.370   0.780   9.115 -0.3158 -0.2004  0.2062
  147loPI   C2A 2344  13.225   0.744   8.629 -0.0264 -0.1027 -0.3374
  147loPI   C3A 2345  13.015   0.810   8.306  0.0267 -0.0021  0.0328
  147loPI   C4A 2346  12.665   0.713   7.971  0.4367  0.1048  0.1907
  147loPI   C5A 2347  12.314   0.694   7.850 -0.0613 -0.0739 -0.1907
  147loPI   C6A 2348  11.936   0.622   7.824  0.1770  0.0628  0.0404
  147loPI   C1B 2349  13.048   1.154   9.128  0.0552  0.0953  0.1709
  147loPI   C2B 2350  13.062   1.173   8.688  0.3143  0.0170 -0.0651
  147loPI   C3B 2351  12.899   1.288   8.352 -0.1588  0.2554 -0.1502
  147loPI   C4B 2352  12.781   1.226   7.925 -0.0542 -0.2703 -0.0862
  148loPI    C1 2353  15.233  15.395  10.270  0.2128  0.2291  0.0302
  148loPI    C2 2354  15.099  15.359  10.646  0.1547 -0.1094 -0.0198
  148loPI    C3 2355  15.487  15.427  10.577  0.1324  0.1554  0.1052
  148loPI   PO4 2356  15.235  15.161  10.156  0.3372 -0.1871 -0.0434
  148loPI   GL1 2357  15.549  15.024   9.971  0.4176  0.2101  0.2624
  148loPI   GL2 2358  15.566  15.181   9.712 -0.2867 -0.0864 -0.2423
  148loPI   C1A 2359  15.897  14.820   9.677  0.2828  0.1637 -0.0086
  148loPI   C2A 2360  16.109  14.885   9.269 -0.0275  0.1338 -0.0169
  148loPI   C3A 2361  15.945  14.765   8.907 -0.1729 -0.0106  0.1249
  148loPI   C4A 2362  15.799  14.608   8.541 -0.1875 -0.2578 -0.2893
  148loPI   C5A 2363  15.494  14.581   8.201  0.3269 -0.0469  0.3528
  148loPI   C6A 2364  15.205  14.925   7.960  0.1208  0.1368 -0.2392
  148loPI   C1B 2365  15.786  15.196   9.349  0.0563  0.3028  0.0155
  148loPI   C2B 2366  15.716  15.286   8.999  0.3985  0.1125  0.0304
  148loPI   C3B 2367  15.776  15.106   8.498  0.1599 -0.3885  0.2634
  148loPI   C4B 2368  15.784  15.086   8.049 -0.3960 -0.0888  0.2235
  149loPI    C1 2369  17.468   2.043  10.599 -0.0823  0.1126 -0.1304
  149loPI    C2 2370  17.397   2.237  10.942 -0.1504  0.1635 -0.1731
  149loPI    C3 2371  17.440   1.839  10.942  0.0761  0.1867 -0.0726
  149loPI   PO4 2372  17.254   2.083  10.415  0.3520  0.2260  0.2007
  149loPI   GL1 2373  16.852   1.936  10.262  0.1277  0.0288  0.3916
  149loPI   GL2 2374  17.086   1.794  10.079 -0.1691  0.0739  0.1221
  149loPI   C1A 2375  16.763   2.099   9.832 -0.2394 -0.0227 -0.1777
  149loPI   C2A 2376  16.776   2.201   9.378 -0.2066 -0.1021  0.1844
  149loPI   C3A 2377  16.831   2.158   8.962  0.2491  0.0309  0.2051
  149loPI   C4A 2378  16.899   2.183   8.510 -0.2134  0.1318 -0.0282
  149loPI   C5A 2379  16.754   2.514   8.298 -0.0021  0.2292  0.2216
  149loPI   C6A 2380  16.586   2.705   7.958 -0.0230  0.1680  0.2107
  149loPI   C1B 2381  17.146   1.808   9.572  0.2972 -0.0470  0.0159
  149loPI   C2B 2382  17.088   1.677   9.121 -0.1712  0.0264  0.1049
  149loPI   C3B 2383  17.057   1.760   8.738  0.3100 -0.0795 -0.0110
  149loPI   C4B 2384  17.282   1.839   8.355  0.0343 -0.0342 -0.0895
  150loPI    C1 2385  18.041   4.950  10.469  0.2383 -0.3453 -0.0364
  150loPI    C2 2386  17.911   5.072  10.827  0.3155  0.0920 -0.1516
  150loPI    C3 2387  18.235   4.840  10.801  0.1032 -0.2384  0.0796
  150loPI   PO4 2388  17.790   4.908  10.303  0.1524 -0.1203  0.0791
  150loPI   GL1 2389  17.719   4.714   9.936  0.4195  0.3131 -0.1636
  150loPI   GL2 2390  17.955   4.708   9.806  0.1914  0.1368 -0.0784
  150loPI   C1A 2391  17.552   4.450   9.607 -0.1638 -0.4307  0.1265
  150loPI   C2A 2392  17.265   4.329   9.389  0.2806  0.0728  0.0741
  150loPI   C3A 2393  17.048   4.741   9.192  0.1501  0.1766 -0.0546
  150loPI   C4A 2394  16.751   4.821   8.940 -0.0207 -0.0297 -0.0697
  150loPI   C5A 2395  16.766   5.047   8.545  0.2093 -0.2026  0.0033
  150loPI   C6A 2396  17.133   5.029   8.226 -0.0238  0.3495  0.1308
  150loPI   C1B 2397  18.017   4.660   9.395 -0.1093 -0.0466 -0.0872
  150loPI   C2B 2398  18.119   4.606   9.029  0.1439 -0.1597 -0.2311
  150loPI   C3B 2399  18.083   4.393   8.624  0.2321  0.1338 -0.3369
  150loPI   C4B 2400  17.990   4.098   8.387 -0.1694 -0.0578 -0.1649
  151loPI    C1 2401  13.813  12.082   9.998 -0.0170  0.0931  0.1740
  151loPI    C2 2402  14.090  11.800  10.052  0.1350  0.2591  0.2722
  151loPI    C3 2403  13.743  11.779  10.249  0.0232 -0.0176  0.0523
  151loPI   PO4 2404  13.966  12.217   9.783 -0.0934 -0.2490  0.1198
  151loPI   GL1 2405  14.164  12.255   9.418 -0.0922  0.0628  0.1732
  151loPI   GL2 2406  13.901  12.046   9.277  0.2474 -0.0289  0.0422
  151loPI   C1A 2407  14.392  12.379   9.085 -0.1321  0.2126  0.1871
  151loPI   C2A 2408  14.505  12.495   8.726  0.1254 -0.3342 -0.1698
  151loPI   C3A 2409  14.178  12.723   8.665 -0.1277 -0.2493 -0.0247
  151loPI   C4A 2410  14.117  13.079   8.378  0.0559  0.0820 -0.2697
  151loPI   C5A 2411  14.347  13.332   8.098  0.4462 -0.1777 -0.2544
  151loPI   C6A 2412  14.647  13.552   8.032  0.0831  0.1096  0.0830
  151loPI   C1B 2413  14.137  11.859   8.977 -0.0587  0.3418 -0.0695
  151loPI   C2B 2414  14.264  11.891   8.485  0.0486 -0.3896 -0.2152
  151loPI   C3B 2415  14.349  11.947   8.073  0.0049  0.0685  0.1371
  151loPI   C4B 2416  14.400  12.167   7.798 -0.0431  0.0086 -0.0223
  152loPI    C1 2417  10.693  11.541  10.065 -0.0394  0.1551 -0.1569
  152loPI    C2 2418  10.359  11.702   9.914 -0.3110 -0.1422  0.1123
  152loPI    C3 2419  10.374  11.595  10.299  0.0551 -0.2453  0.0740
  152loPI   PO4 2420  10.904  11.719   9.933  0.1253  0.2116 -0.0769
  152loPI   GL1 2421  11.024  11.767   9.622 -0.1129 -0.0016 -0.0888
  152loPI   GL2 2422  10.669  11.622   9.540  0.1095  0.1628 -0.0316
  152loPI   C1A 2423  11.154  11.963   9.168  0.2551 -0.3624 -0.1060
  152loPI   C2A 2424  11.238  11.881   8.779  0.0247  0.1186  0.0208
  152loPI   C3A 2425  11.542  12.008   8.416  0.0121  0.1252  0.1960
  152loPI   C4A 2426  11.614  11.866   7.961  0.0773 -0.0214 -0.1249
  152loPI   C5A 2427  11.872  11.782   7.630  0.1666  0.0874  0.0747
  152loPI   C6A 2428  12.096  11.579   7.223 -0.1886 -0.2440 -0.1946
  152loPI   C1B 2429  11.005  11.446   9.235 -0.0093  0.2169 -0.1508
  152loPI   C2B 2430  10.979  11.333   8.821  0.2191  0.1134  0.2327
  152loPI   C3B 2431  11.161  11.427   8.450  0.1444  0.0379 -0.0485
  152loPI   C4B 2432  11.225  11.475   8.066  0.1283  0.4130  0.0605
  153loPI    C1 2433  15.141   2.408  10.801  0.0094 -0.0883  0.0178
  153loPI    C2 2434  15.134   2.455  11.198 -0.1273  0.1184 -0.0073
  153loPI    C3 2435  14.791   2.408  10.997 -0.0723  0.2049 -0.1217
  153loPI   PO4 2436  15.265   2.607  10.689  0.3543 -0.1533  0.0530
  153loPI   GL1 2437  15.198   2.799  10.265 -0.0427  0.3831 -0.2162
  153loPI   GL2 2438  15.450   2.733  10.216 -0.1461 -0.0846 -0.0626
  153loPI   C1A 2439  14.987   3.109  10.034  0.1906 -0.3459  0.2459
  153loPI   C2A 2440  14.972   3.156   9.611 -0.2569 -0.2487  0.0174
  153loPI   C3A 2441  14.871   3.485   9.340  0.0297 -0.0158  0.1287
  153loPI   C4A 2442  14.668   3.677   8.950 -0.0821  0.0990 -0.1658
  153loPI   C5A 2443  14.669   3.923   8.617 -0.1758 -0.0949  0.4712
  153loPI   C6A 2444  14.591   4.330   8.479 -0.0238 -0.0081  0.1084
  153loPI   C1B 2445  15.404   2.435   9.867  0.1129 -0.1150  0.0237
  153loPI   C2B 2446  15.476   2.362   9.394  0.1030  0.1579  0.4269
  153loPI   C3B 2447  15.312   2.373   8.924  0.0524 -0.0184  0.0113
  153loPI   C4B 2448  15.520   2.335   8.542 -0.1063  0.1197  0.2857
  154loPI    C1 2449   8.097   7.371  10.111  0.0182 -0.0137 -0.1718
  154loPI    C2 2450   7.995   6.985  10.133  0.1096 -0.0255  0.0867
  154loPI    C3 2451   7.731   7.268  10.235  0.1832 -0.0382  0.3171
  154loPI   PO4 2452   8.100   7.438   9.804  0.4002  0.2655  0.1393
  154loPI   GL1 2453   7.782   7.521   9.537 -0.0005 -0.2946 -0.2176
  154loPI   GL2 2454   7.599   7.357   9.770  0.3200 -0.1469  0.2534
  154loPI   C1A 2455   7.766   7.356   9.153  0.0544 -0.0639  0.1956
  154loPI   C2A 2456   7.581   7.582   8.826 -0.0362  0.0181 -0.1337
  154loPI   C3A 2457   7.494   7.675   8.422  0.2041  0.1020  0.0002
  154loPI   C4A 2458   7.246   7.498   8.119 -0.1988 -0.2473 -0.1533
  154loPI   C5A 2459   6.789   7.528   7.975  0.3086  0.0136  0.0397
  154loPI   C6A 2460   6.651   7.911   7.607 -0.1137  0.3875 -0.0057
  154loPI   C1B 2461   7.390   7.232   9.439 -0.0124 -0.0661  0.0871
  154loPI   C2B 2462   7.315   7.212   8.995  0.3619  0.1096  0.0196
  154loPI   C3B 2463   7.459   7.145   8.544  0.3960 -0.1613  0.0444
  154loPI   C4B 2464   7.718   7.302   8.164  0.0227  0.0309  0.0015
  155loPI    C1 2465  18.169  18.037  10.758  0.0492  0.1398 -0.0753
  155loPI    C2 2466  18.487  17.996  10.997 -0.0432 -0.2395 -0.0109
  155loPI    C3 2467  18.137  18.114  11.149  0.1175  0.4247 -0.1233
  155loPI   PO4 2468  18.151  17.813  10.564 -0.4771 -0.2358  0.2202
  155loPI   GL1 2469  18.068  17.695  10.191 -0.1315 -0.0543 -0.3888
  155loPI   GL2 2470  17.748  17.791  10.001 -0.1202  0.0134  0.0774
  155loPI   C1A 2471  17.985  17.345  10.081 -0.1208  0.0880 -0.1130
  155loPI   C2A 2472  17.911  17.111   9.624  0.1403  0.2396  0.2472
  155loPI   C3A 2473  17.892  17.109   9.129  0.3508 -0.0484  0.0220
  155loPI   C4A 2474  17.688  17.141   8.673 -0.0092 -0.2775  0.1640
  155loPI   C5A 2475  17.525  16.875   8.412  0.1245  0.1726 -0.0494
  155loPI   C6A 2476  17.461  16.497   8.065 -0.0835  0.2183  0.0321
  155loPI   C1B 2477  17.853  17.614   9.564 -0.0636 -0.1030  0.0014
  155loPI   C2B 2478  17.898  17.595   9.040  0.2264 -0.0914  0.1560
  155loPI   C3B 2479  17.955  17.554   8.607  0.2172 -0.3254 -0.2117
  155loPI   C4B 2480  18.092  17.546   8.211  0.1939  0.1458 -0.2452
  156loPI    C1 2481  12.791  13.227  10.100 -0.0915  0.2962  0.1337
  156loPI    C2 2482  12.885  13.346  10.470 -0.0916 -0.0437  0.2470
  156loPI    C3 2483  12.506  13.366  10.343 -0.1125 -0.0438  0.3095
  156loPI   PO4 2484  12.976  13.309   9.921 -0.3187 -0.0007 -0.0218
  156loPI   GL1 2485  13.089  13.156   9.584  0.2977  0.2443 -0.2048
  156loPI   GL2 2486  13.061  12.855   9.427 -0.0482 -0.2658 -0.1418
  156loPI   C1A 2487  13.365  13.325   9.258  0.0191  0.1033 -0.1583
  156loPI   C2A 2488  13.420  13.268   8.884 -0.0333  0.1688 -0.1355
  156loPI   C3A 2489  13.351  13.494   8.589 -0.0487 -0.0492 -0.1148
  156loPI   C4A 2490  13.271  13.336   8.109  0.2169  0.1777 -0.0784
  156loPI   C5A 2491  13.141  13.105   7.736  0.0083  0.2535  0.1881
  156loPI   C6A 2492  13.057  13.033   7.336  0.2382  0.1526 -0.1003
  156loPI   C1B 2493  13.013  12.919   8.905 -0.0515 -0.0831  0.1040
  156loPI   C2B 2494  13.104  12.898   8.464  0.1214 -0.1295 -0.2639
  156loPI   C3B 2495  13.262  12.765   8.083  0.0664  0.0011  0.1647
  156loPI   C4B 2496  13.626  12.641   7.693 -0.1280 -0.1081  0.1803
  157loPI    C1 2497   4.258   0.464  10.841  0.2258 -0.0465  0.0027
  157loPI    C2 2498   4.477   0.455  11.176  0.0527  0.0126  0.1186
  157loPI    C3 2499   4.323   0.801  11.046 -0.0719 -0.0476  0.1039
  157loPI   PO4 2500   4.388   0.200  10.691 -0.0048 -0.1159  0.2410
  157loPI   GL1 2501   4.496   0.096  10.282  0.2051 -0.0797  0.0773
  157loPI   GL2 2502   4.566   0.383  10.258  0.1113  0.0256  0.2948
  157loPI   C1A 2503   4.516  -0.023   9.899  0.2081  0.1137  0.1790
  157loPI   C2A 2504   4.500   0.127   9.531  0.0039 -0.0083  0.1038
  157loPI   C3A 2505   4.473   0.060   9.040 -0.2290 -0.1922  0.4424
  157loPI   C4A 2506   4.570   0.282   8.662  0.5072 -0.1524  0.3499
  157loPI   C5A 2507   4.345   0.387   8.362 -0.2236  0.2536 -0.2009
  157loPI   C6A 2508   3.999   0.341   8.294 -0.0031  0.2701 -0.0081
  157loPI   C1B 2509   4.751   0.511   9.933 -0.1216 -0.2471 -0.1467
  157loPI   C2B 2510   4.786   0.566   9.602  0.1470 -0.0981  0.3223
  157loPI   C3B 2511   4.658   0.627   9.205  0.1594  0.1544  0.0514
  157loPI   C4B 2512   4.331   0.686   8.989 -0.2112 -0.3149  0.1356
  158loPI    C1 2513   4.113   6.032  10.476 -0.2164 -0.0234 -0.1241
  158loPI    C2 2514   4.295   5.682  10.545  0.1383  0.1178 -0.3206
  158loPI    C3 2515   3.896   5.703  10.545  0.1083 -0.1288  0.4681
  158loPI   PO4 2516   4.227   6.100  10.212  0.4005 -0.1723  0.0654
  158loPI   GL1 2517   4.367   6.089   9.775 -0.0256 -0.0893 -0.0420
  158loPI   GL2 2518   4.090   5.915   9.513  0.1659  0.2184 -0.0355
  158loPI   C1A 2519   4.495   6.096   9.310  0.3364 -0.0084 -0.0428
  158loPI   C2A 2520   4.541   6.196   8.905 -0.2384  0.4285  0.1596
  158loPI   C3A 2521   4.821   6.188   8.623  0.2877 -0.1130 -0.0720
  158loPI   C4A 2522   5.026   6.308   8.242  0.2449  0.4043  0.0274
  158loPI   C5A 2523   4.997   6.535   7.840  0.2003 -0.1627 -0.0044
  158loPI   C6A 2524   4.782   6.942   7.724  0.0637  0.2863 -0.2190
  158loPI   C1B 2525   3.902   5.895   9.123  0.0336  0.3166 -0.2602
  158loPI   C2B 2526   3.770   5.932   8.724 -0.0441  0.0154 -0.1507
  158loPI   C3B 2527   3.762   6.271   8.330 -0.0592  0.1506 -0.2815
  158loPI   C4B 2528   3.610   6.375   7.949 -0.2739 -0.1297 -0.2007
  159loPI    C1 2529   5.091  17.320  10.241 -0.2797 -0.0726  0.3886
  159loPI    C2 2530   5.435  17.401  10.428 -0.0975  0.0022  0.0297
  159loPI    C3 2531   5.187  17.124  10.576  0.2311 -0.2280  0.1601
  159loPI   PO4 2532   4.949  17.495  10.167 -0.3689 -0.3832 -0.2076
  159loPI   GL1 2533   4.925  17.787   9.885 -0.0644  0.1717  0.2292
  159loPI   GL2 2534   5.187  17.864   9.757 -0.0067 -0.1595 -0.2961
  159loPI   C1A 2535   4.681  17.962   9.574  0.1166  0.3016 -0.0127
  159loPI   C2A 2536   4.697  17.891   9.257  0.2009 -0.0997  0.2716
  159loPI   C3A 2537   4.760  17.984   8.854  0.0389 -0.1789 -0.1009
  159loPI   C4A 2538   4.922  18.290   8.624  0.1726 -0.0339 -0.0070
  159loPI   C5A 2539   5.105  18.256   8.218 -0.0313  0.2055  0.1221
  159loPI   C6A 2540   5.410  18.544   7.994  0.0713  0.2485 -0.1596
  159loPI   C1B 2541   5.184  18.045   9.407  0.0315  0.0521 -0.3389
  159loPI   C2B 2542   5.267  17.878   9.012 -0.1569  0.0877 -0.0179
  159loPI   C3B 2543   5.402  17.956   8.596  0.2198 -0.2047  0.0496
  159loPI   C4B 2544   5.605  18.115   8.227 -0.0892  0.0005 -0.1828
  160loPI    C1 2545  10.023  10.831  10.367  0.0679  0.2036  0.2012
  160loPI    C2 2546   9.674  10.741  10.541 -0.0555  0.0017 -0.1402
  160loPI    C3 2547  10.018  10.666  10.732 -0.1839 -0.3071 -0.0225
  160loPI   PO4 2548   9.965  10.723  10.074  0.0425 -0.0060  0.1848
  160loPI   GL1 2549  10.014  10.841   9.632 -0.0479  0.0614  0.0893
  160loPI   GL2 2550   9.647  10.629   9.586  0.2326 -0.0946 -0.3008
  160loPI   C1A 2551  10.000  10.929   9.226 -0.1203  0.1055  0.1280
  160loPI   C2A 2552   9.966  11.113   8.814 -0.2390  0.1251  0.2704
  160loPI   C3A 2553   9.620  11.132   8.522 -0.0285  0.1349  0.3019
  160loPI   C4A 2554   9.451  11.326   8.195  0.1775 -0.0234  0.2072
  160loPI   C5A 2555   9.144  11.674   8.125 -0.0683  0.0412 -0.0876
  160loPI   C6A 2556   8.808  11.830   8.290 -0.2495  0.1115 -0.0128
  160loPI   C1B 2557   9.837  10.472   9.193 -0.2595  0.3651  0.2234
  160loPI   C2B 2558   9.916  10.264   8.842  0.2552  0.1042  0.1380
  160loPI   C3B 2559   9.867  10.122   8.433 -0.0634  0.2110  0.0729
  160loPI   C4B 2560   9.894   9.749   8.221  0.0182 -0.2476 -0.1020
  161loPI    C1 2561  12.332  14.738  10.114 -0.0132 -0.2068 -0.2009
  161loPI    C2 2562  12.721  14.650  10.140 -0.0068 -0.1855 -0.2241
  161loPI    C3 2563  12.492  14.638  10.467  0.0656  0.0443 -0.1630
  161loPI   PO4 2564  12.293  14.610   9.731  0.1399 -0.3076 -0.1954
  161loPI   GL1 2565  12.300  14.685   9.330 -0.1637  0.2213  0.0767
  161loPI   GL2 2566  12.638  14.838   9.275  0.1048  0.2233  0.0152
  161loPI   C1A 2567  12.369  14.374   9.056  0.0550 -0.1867 -0.0613
  161loPI   C2A 2568  12.374  14.337   8.680  0.1961  0.2971 -0.2529
  161loPI   C3A 2569  12.783  14.094   8.445  0.2572 -0.0546  0.0873
  161loPI   C4A 2570  12.962  13.827   8.273  0.2242  0.2438  0.0108
  161loPI   C5A 2571  12.930  13.629   7.859  0.2517 -0.0114  0.1939
  161loPI   C6A 2572  13.130  13.617   7.493 -0.3096  0.1749 -0.0246
  161loPI   C1B 2573  12.931  14.941   8.967 -0.0838  0.2207  0.1449
  161loPI   C2B 2574  13.232  14.786   8.717 -0.2247 -0.0531  0.2400
  161loPI   C3B 2575  13.285  14.966   8.357  0.1366  0.1559  0.0148
  161loPI   C4B 2576  13.283  15.356   8.113 -0.1381  0.2402 -0.0071
  162loPI    C1 2577  10.031   8.693  10.101  0.0533  0.1836  0.1353
  162loPI    C2 2578   9.937   8.379  10.331 -0.0169  0.1397  0.0477
  162loPI    C3 2579   9.840   8.750  10.448  0.3523  0.1598  0.3071
  162loPI   PO4 2580  10.049   8.458   9.828  0.0870  0.3420 -0.0608
  162loPI   GL1 2581  10.085   8.003   9.647  0.3022  0.2078  0.0027
  162loPI   GL2 2582  10.439   8.174   9.671 -0.1115 -0.1867 -0.0704
  162loPI   C1A 2583   9.854   7.856   9.304 -0.1419  0.1271  0.0624
  162loPI   C2A 2584   9.564   7.674   9.007  0.0093 -0.0395 -0.2059
  162loPI   C3A 2585   9.368   7.851   8.663  0.0314  0.0927  0.1874
  162loPI   C4A 2586   9.149   7.823   8.302  0.0724  0.2973  0.4055
  162loPI   C5A 2587   8.908   7.674   7.939  0.0331 -0.0317 -0.1004
  162loPI   C6A 2588   8.573   7.338   7.891  0.0724  0.1845 -0.1515
  162loPI   C1B 2589  10.394   7.897   9.280 -0.0096 -0.0386  0.0627
  162loPI   C2B 2590  10.276   7.909   8.867  0.3747 -0.0353 -0.0667
  162loPI   C3B 2591  10.192   7.994   8.385 -0.4151 -0.2123  0.2965
  162loPI   C4B 2592  10.139   7.888   7.935  0.1871  0.2758  0.2635
  163loPI    C1 2593   3.247   5.225  10.113  0.2168  0.0301  0.1422
  163loPI    C2 2594   3.162   5.423  10.450 -0.1426  0.1962 -0.0399
  163loPI    C3 2595   3.067   5.037  10.416 -0.0476  0.1624  0.0703
  163loPI   PO4 2596   3.416   5.444   9.938  0.0948 -0.2610 -0.1348
  163loPI   GL1 2597   3.486   5.566   9.556 -0.1618 -0.4550 -0.3565
  163loPI   GL2 2598   3.349   5.364   9.433  0.2583  0.1166 -0.0311
  163loPI   C1A 2599   3.375   5.722   9.089 -0.4017 -0.1051 -0.0454
  163loPI   C2A 2600   3.283   5.804   8.686 -0.1824 -0.0718 -0.2896
  163loPI   C3A 2601   3.454   5.868   8.269  0.2279 -0.1752  0.1223
  163loPI   C4A 2602   3.296   5.931   7.911 -0.2114  0.2918  0.0859
  163loPI   C5A 2603   2.928   5.723   7.701  0.1888  0.0143 -0.3316
  163loPI   C6A 2604   2.777   5.332   7.855  0.0461 -0.2210  0.4096
  163loPI   C1B 2605   3.358   5.249   9.083 -0.3037 -0.4215 -0.2148
  163loPI   C2B 2606   3.272   5.311   8.724 -0.1463  0.0143  0.0935
  163loPI   C3B 2607   3.519   5.428   8.433 -0.1346  0.1837  0.1548
  163loPI   C4B 2608   3.742   5.510   8.043 -0.1919  0.3053  0.1019
  164loPI    C1 2609   9.169  12.014  10.221  0.4534  0.0915 -0.1678
  164loPI    C2 2610   9.230  12.272  10.521  0.0221 -0.1312  0.1216
  164loPI    C3 2611   9.119  12.407  10.161  0.0032  0.1012  0.2131
  164loPI   PO4 2612   9.007  11.775  10.236 -0.1021  0.0899 -0.1218
  164loPI   GL1 2613   8.885  11.579   9.888  0.1101  0.0369 -0.0537
  164loPI   GL2 2614   9.082  11.310   9.996  0.2485  0.1290  0.2252
  164loPI   C1A 2615   8.591  11.511   9.633 -0.1813 -0.1895 -0.0309
  164loPI   C2A 2616   8.441  11.641   9.300  0.0785 -0.0261  0.0740
  164loPI   C3A 2617   8.316  11.675   8.895  0.1031 -0.2011  0.0171
  164loPI   C4A 2618   8.379  11.650   8.497 -0.1646 -0.0693  0.0905
  164loPI   C5A 2619   8.297  11.788   8.083 -0.1274  0.0957  0.0035
  164loPI   C6A 2620   8.121  12.158   7.873 -0.0421  0.2813  0.1674
  164loPI   C1B 2621   8.828  11.104   9.667  0.3151  0.3200  0.1032
  164loPI   C2B 2622   8.776  11.015   9.224  0.0458 -0.1363  0.0464
  164loPI   C3B 2623   8.979  11.146   8.946  0.1134 -0.0051 -0.0939
  164loPI   C4B 2624   9.215  10.954   8.673  0.2212 -0.0716  0.0548
  165loPI    C1 2625  16.573  14.922  10.378 -0.0011  0.1126  0.0432
  165loPI    C2 2626  16.716  15.133  10.687  0.0292 -0.1933  0.2425
  165loPI    C3 2627  16.322  15.119  10.619  0.0253 -0.0947  0.2446
  165loPI   PO4 2628  16.806  14.701  10.357 -0.2099 -0.2557 -0.0432
  165loPI   GL1 2629  17.023  14.791  10.037  0.0682 -0.1881  0.4678
  165loPI   GL2 2630  17.317  14.805   9.991  0.0245  0.2182 -0.0675
  165loPI   C1A 2631  16.919  14.687   9.626 -0.0253  0.0748  0.3611
  165loPI   C2A 2632  16.690  14.999   9.245 -0.1727 -0.1084 -0.0572
  165loPI   C3A 2633  16.658  15.170   8.801 -0.0845 -0.0041 -0.1773
  165loPI   C4A 2634  16.675  15.138   8.441  0.2616  0.0268 -0.1727
  165loPI   C5A 2635  16.813  15.271   8.125  0.2539  0.2839 -0.2266
  165loPI   C6A 2636  16.654  15.145   7.639  0.0431  0.2229 -0.3020
  165loPI   C1B 2637  17.411  14.806   9.585  0.0483 -0.3182  0.0649
  165loPI   C2B 2638  17.338  14.782   9.135  0.0121 -0.1491 -0.1060
  165loPI   C3B 2639  17.106  14.940   8.818 -0.0486  0.2043 -0.0312
  165loPI   C4B 2640  17.280  14.969   8.359 -0.1650 -0.0179 -0.1436
  166loPI    C1 2641   8.160   2.988  10.423  0.0696  0.3379 -0.1366
  166loPI    C2 2642   8.239   3.380  10.404 -0.1638  0.3980  0.0740
  166loPI    C3 2643   8.026   3.234  10.710  0.0178  0.0883  0.0562
  166loPI   PO4 2644   8.437   2.790  10.280 -0.0365  0.3681 -0.0563
  166loPI   GL1 2645   8.403   2.525   9.898  0.1854 -0.1183 -0.1980
  166loPI   GL2 2646   8.002   2.612  10.076 -0.0128  0.1358 -0.3077
  166loPI   C1A 2647   8.458   2.540   9.483  0.2993 -0.1457  0.3578
  166loPI   C2A 2648   8.563   2.637   9.027 -0.2755 -0.0250  0.0739
  166loPI   C3A 2649   8.369   2.523   8.685  0.2270 -0.0211  0.0074
  166loPI   C4A 2650   8.576   2.464   8.304 -0.3114 -0.2962 -0.0043
  166loPI   C5A 2651   8.868   2.162   8.182 -0.2086 -0.2462  0.1027
  166loPI   C6A 2652   9.323   1.920   8.000 -0.0625  0.2372 -0.2721
  166loPI   C1B 2653   7.951   2.643   9.682  0.1251  0.2137 -0.3808
  166loPI   C2B 2654   8.049   2.554   9.195  0.2255 -0.1277 -0.0324
  166loPI   C3B 2655   7.909   2.476   8.830  0.1198 -0.1565 -0.3483
  166loPI   C4B 2656   7.966   2.099   8.638 -0.1645  0.1474  0.0748
  167loPI    C1 2657   3.260  17.670  10.594  0.2903  0.0054 -0.0875
  167loPI    C2 2658   3.168  17.521  10.954 -0.0477  0.0121 -0.1675
  167loPI    C3 2659   3.073  17.899  10.864 -0.1799 -0.0621 -0.3453
  167loPI   PO4 2660   3.309  17.454  10.454 -0.0050  0.0376 -0.0489
  167loPI   GL1 2661   3.323  17.499   9.956 -0.0341  0.0169 -0.1293
  167loPI   GL2 2662   3.538  17.296  10.019 -0.0474 -0.1326  0.1065
  167loPI   C1A 2663   3.600  17.831   9.762  0.1659 -0.0393  0.1843
  167loPI   C2A 2664   3.583  17.970   9.354  0.0314 -0.1458 -0.0245
  167loPI   C3A 2665   3.557  18.152   9.082 -0.0520 -0.1071 -0.3321
  167loPI   C4A 2666   3.695  18.168   8.629  0.3153  0.0438  0.0813
  167loPI   C5A 2667   4.056  18.264   8.554  0.2525 -0.0213 -0.1688
  167loPI   C6A 2668   4.384  18.152   8.584  0.0118 -0.1401 -0.2164
  167loPI   C1B 2669   3.573  17.128   9.646  0.1681 -0.3232 -0.0654
  167loPI   C2B 2670   3.549  17.065   9.181 -0.0202 -0.4913 -0.0228
  167loPI   C3B 2671   3.437  17.138   8.720 -0.2171 -0.2326  0.4257
  167loPI   C4B 2672   3.480  17.213   8.313 -0.0674  0.3979  0.3640
  168loPI    C1 2673  16.091   0.919  10.762 -0.0562 -0.0094 -0.1450
  168loPI    C2 2674  15.721   1.058  10.698 -0.0929 -0.0800 -0.0883
  168loPI    C3 2675  15.836   0.958  11.068  0.0892  0.2453 -0.0539
  168loPI   PO4 2676  16.210   0.910  10.455 -0.1039  0.2428 -0.1817
  168loPI   GL1 2677  16.338   0.944  10.057 -0.4364  0.1744 -0.1093
  168loPI   GL2 2678  16.168   1.251  10.086 -0.0658 -0.0804 -0.0467
  168loPI   C1A 2679  16.562   1.115   9.641 -0.1498  0.2088  0.0991
  168loPI   C2A 2680  16.400   1.179   9.191 -0.0454  0.0321  0.0529
  168loPI   C3A 2681  16.283   1.162   8.798  0.0031  0.1737  0.0818
  168loPI   C4A 2682  16.226   1.184   8.351 -0.0856  0.1743  0.1713
  168loPI   C5A 2683  16.467   1.086   7.985 -0.0256 -0.1064 -0.1873
  168loPI   C6A 2684  16.423   0.981   7.655 -0.1234 -0.1923  0.0746
  168loPI   C1B 2685  16.195   1.550   9.799  0.0655 -0.2304  0.0121
  168loPI   C2B 2686  16.142   1.550   9.319  0.1606 -0.0232 -0.2787
  168loPI   C3B 2687  16.111   1.592   8.939  0.0625 -0.2560 -0.0430
  168loPI   C4B 2688  15.909   1.539   8.557 -0.2681 -0.0154  0.2788
  169loPI    C1 2689  13.001   6.822  10.444  0.2732 -0.0322  0.0764
  169loPI    C2 2690  13.024   6.765  10.840 -0.0978  0.0171  0.1089
  169loPI    C3 2691  12.957   7.131  10.694 -0.1396 -0.0300  0.0090
  169loPI   PO4 2692  12.816   6.775  10.245  0.2454  0.1139 -0.2472
  169loPI   GL1 2693  12.884   6.678   9.794 -0.0474  0.1548  0.2102
  169loPI   GL2 2694  12.980   6.895   9.447  0.2312  0.1780  0.0239
  169loPI   C1A 2695  12.754   6.379   9.516 -0.0141  0.0405 -0.0018
  169loPI   C2A 2696  12.477   6.279   9.174  0.2002 -0.0123 -0.2627
  169loPI   C3A 2697  12.485   6.439   8.736 -0.1288  0.1877  0.0423
  169loPI   C4A 2698  12.501   6.246   8.329 -0.0068 -0.0611 -0.1509
  169loPI   C5A 2699  12.376   5.939   8.097  0.2260  0.0664  0.2439
  169loPI   C6A 2700  12.322   5.452   7.892 -0.0943 -0.1572 -0.1121
  169loPI   C1B 2701  12.841   6.651   9.067  0.0261 -0.2163 -0.1328
  169loPI   C2B 2702  12.993   6.558   8.696  0.1930  0.0373 -0.1682
  169loPI   C3B 2703  12.979   6.394   8.326 -0.0311 -0.3436  0.1821
  169loPI   C4B 2704  12.667   6.397   7.937  0.3156  0.1327 -0.3352
  170loPI    C1 2705   2.001   6.101  10.406  0.2345 -0.1455 -0.0112
  170loPI    C2 2706   2.180   6.257  10.727  0.0689 -0.0838  0.0523
  170loPI    C3 2707   1.871   6.447  10.559  0.0232 -0.2198 -0.0188
  170loPI   PO4 2708   2.232   6.019  10.254  0.0495  0.1244  0.2482
  170loPI   GL1 2709   2.222   5.882   9.858  0.2222 -0.0159 -0.0531
  170loPI   GL2 2710   2.292   6.212   9.723  0.1325 -0.0266 -0.2114
  170loPI   C1A 2711   2.237   5.647   9.488 -0.0215  0.1209 -0.0402
  170loPI   C2A 2712   2.362   5.774   9.111 -0.0450 -0.0138 -0.1945
  170loPI   C3A 2713   2.280   5.777   8.692 -0.0779 -0.2135  0.5573
  170loPI   C4A 2714   2.479   5.692   8.301  0.0718  0.1613 -0.1776
  170loPI   C5A 2715   2.724   5.912   8.204  0.2860  0.0551 -0.0039
  170loPI   C6A 2716   2.894   6.215   7.853  0.2255 -0.0684 -0.2104
  170loPI   C1B 2717   2.007   6.094   9.410  0.1883 -0.0952  0.1217
  170loPI   C2B 2718   1.907   5.961   8.982 -0.0803  0.0169  0.2010
  170loPI   C3B 2719   1.788   5.954   8.553 -0.1207  0.2384 -0.3407
  170loPI   C4B 2720   1.770   5.879   8.125 -0.1234  0.1924 -0.2666
  171loPI    C1 2721   9.940  14.445  10.644  0.1163  0.1072 -0.0198
  171loPI    C2 2722  10.336  14.391  10.642  0.0859 -0.1315  0.0217
  171loPI    C3 2723  10.106  14.169  10.882 -0.0963 -0.1632 -0.1791
  171loPI   PO4 2724   9.853  14.472  10.358 -0.2089  0.2961 -0.0676
  171loPI   GL1 2725   9.945  14.276   9.980  0.1647 -0.1606  0.0279
  171loPI   GL2 2726   9.735  14.067  10.005  0.0345 -0.4104 -0.1236
  171loPI   C1A 2727   9.919  14.452   9.518 -0.0145  0.3792 -0.0876
  171loPI   C2A 2728   9.769  14.560   9.145  0.1476  0.0489 -0.0465
  171loPI   C3A 2729   9.695  14.621   8.789 -0.1307  0.1355  0.1665
  171loPI   C4A 2730   9.545  14.837   8.409  0.1209 -0.1756 -0.1752
  171loPI   C5A 2731   9.495  15.094   7.998  0.0025 -0.2096 -0.1532
  171loPI   C6A 2732   9.310  15.216   7.514  0.5349  0.0871 -0.0525
  171loPI   C1B 2733   9.737  14.011   9.574 -0.1466  0.1513 -0.0584
  171loPI   C2B 2734   9.615  14.092   9.184  0.0855  0.3472  0.2924
  171loPI   C3B 2735   9.550  14.109   8.759  0.1319  0.0836  0.1203
  171loPI   C4B 2736   9.555  14.319   8.333  0.0537  0.1577 -0.3181
  172loPI    C1 2737  10.654  16.767  10.058 -0.1202  0.1096  0.1117
  172loPI    C2 2738  10.263  16.832  10.001 -0.1403  0.0196  0.1473
  172loPI    C3 2739  10.385  16.521  10.223 -0.0381 -0.2790 -0.3137
  172loPI   PO4 2740  10.742  16.701   9.826 -0.2268 -0.1107 -0.0324
  172loPI   GL1 2741  10.835  16.630   9.450 -0.2164 -0.0615 -0.1455
  172loPI   GL2 2742  10.797  16.227   9.414 -0.0421 -0.3439  0.0646
  172loPI   C1A 2743  11.061  16.519   9.101 -0.3392 -0.3655 -0.2238
  172loPI   C2A 2744  10.989  16.303   8.797 -0.0553 -0.1431 -0.0673
  172loPI   C3A 2745  10.915  16.134   8.488  0.0093  0.0050  0.0839
  172loPI   C4A 2746  10.756  15.918   8.164 -0.1401  0.4034 -0.1899
  172loPI   C5A 2747  10.929  15.593   7.797 -0.0541 -0.3282  0.0354
  172loPI   C6A 2748  10.980  15.411   7.392 -0.2507 -0.3164 -0.4060
  172loPI   C1B 2749  10.540  16.378   9.120  0.1175 -0.0534  0.1708
  172loPI   C2B 2750  10.398  16.146   8.785  0.1117  0.0272 -0.2294
  172loPI   C3B 2751  10.333  15.908   8.387 -0.2908 -0.0900 -0.0092
  172loPI   C4B 2752  10.399  15.520   8.216 -0.0157  0.2471 -0.1551
  173loPI    C1 2753   9.587   5.304  10.131 -0.0175  0.0980 -0.1380
  173loPI    C2 2754   9.641   5.678   9.999  0.3484  0.1056  0.0202
  173loPI    C3 2755   9.695   5.593  10.386 -0.3118  0.0021  0.1005
  173loPI   PO4 2756   9.629   5.207   9.903  0.3773 -0.0335  0.1346
  173loPI   GL1 2757   9.554   5.047   9.483  0.1004 -0.0823 -0.0792
  173loPI   GL2 2758   9.794   4.775   9.590  0.0074 -0.4472 -0.0212
  173loPI   C1A 2759   9.456   5.054   9.072  0.1973  0.0594 -0.2017
  173loPI   C2A 2760   9.359   4.961   8.623  0.1967  0.1119  0.0047
  173loPI   C3A 2761   9.597   4.692   8.377 -0.0726 -0.0936  0.0191
  173loPI   C4A 2762   9.996   4.660   8.026  0.1426  0.2145 -0.3305
  173loPI   C5A 2763  10.496   4.755   7.909 -0.3302  0.3431 -0.0178
  173loPI   C6A 2764  10.718   5.004   7.765  0.1493 -0.1950 -0.0459
  173loPI   C1B 2765   9.905   4.840   9.147 -0.3386 -0.3453  0.1658
  173loPI   C2B 2766  10.030   4.604   8.822  0.0356 -0.0161  0.0517
  173loPI   C3B 2767  10.198   4.353   8.362 -0.1828 -0.0870  0.2465
  173loPI   C4B 2768  10.299   4.204   7.944 -0.1589 -0.1385 -0.2927
  174loPI    C1 2769   8.450  14.472  10.494  0.3233  0.0504 -0.1975
  174loPI    C2 2770   8.453  14.537  10.889 -0.0770 -0.0680 -0.1700
  174loPI    C3 2771   8.648  14.223  10.736  0.1585  0.0317 -0.0793
  174loPI   PO4 2772   8.334  14.720  10.315  0.1721  0.3473 -0.2398
  174loPI   GL1 2773   8.198  14.712   9.951 -0.2750  0.0976  0.1106
  174loPI   GL2 2774   8.114  15.052   9.952  0.0429 -0.1853 -0.0883
  174loPI   C1A 2775   8.227  14.666   9.477  0.0297  0.0648 -0.1124
  174loPI   C2A 2776   7.779  14.506   9.260  0.2526  0.1555  0.4096
  174loPI   C3A 2777   7.648  14.450   8.776  0.2088  0.2931  0.1399
  174loPI   C4A 2778   7.662  13.990   8.683 -0.2872  0.0581 -0.4331
  174loPI   C5A 2779   8.056  13.801   8.539 -0.0767 -0.0236  0.1025
  174loPI   C6A 2780   8.323  13.488   8.651  0.2578  0.0715 -0.0228
  174loPI   C1B 2781   8.037  15.132   9.486  0.0696 -0.0467 -0.2287
  174loPI   C2B 2782   7.881  14.934   9.104 -0.2718 -0.3975 -0.0397
  174loPI   C3B 2783   7.836  14.925   8.734  0.0213 -0.0248 -0.1375
  174loPI   C4B 2784   7.824  14.666   8.354  0.2207 -0.1562 -0.0718
  175loPI    C1 2785  10.312   5.990  10.113  0.0451  0.2997  0.1739
  175loPI    C2 2786  10.588   5.730   9.984 -0.2983  0.1102 -0.2027
  175loPI    C3 2787  10.645   5.929  10.326  0.2210 -0.0518 -0.1863
  175loPI   PO4 2788  10.080   5.902   9.960 -0.3605  0.0671 -0.2083
  175loPI   GL1 2789   9.860   5.893   9.537 -0.0571 -0.0923  0.1844
  175loPI   GL2 2790   9.528   5.635   9.522  0.1032  0.5139 -0.1943
  175loPI   C1A 2791   9.708   5.899   9.102 -0.0693  0.1361  0.0412
  175loPI   C2A 2792   9.923   5.822   8.772  0.0721 -0.0512  0.1652
  175loPI   C3A 2793   9.913   5.985   8.389 -0.0400  0.1895  0.2000
  175loPI   C4A 2794  10.138   6.127   8.013 -0.1066  0.3400  0.1258
  175loPI   C5A 2795  10.208   6.598   7.981 -0.1995  0.1884 -0.0566
  175loPI   C6A 2796  10.450   6.994   8.190 -0.1541  0.1226 -0.1696
  175loPI   C1B 2797   9.337   5.588   9.123  0.0213 -0.0589  0.1424
  175loPI   C2B 2798   9.319   5.443   8.687  0.0442 -0.2440 -0.2173
  175loPI   C3B 2799   9.254   5.586   8.193 -0.4033 -0.1015 -0.1198
  175loPI   C4B 2800   9.086   5.795   7.804  0.0190  0.1041 -0.2074
  176loPI    C1 2801   0.178   8.579  10.347 -0.1169 -0.0750  0.1749
  176loPI    C2 2802   0.056   8.896  10.135 -0.3405 -0.2422  0.0493
  176loPI    C3 2803   0.031   8.901  10.534  0.0638  0.0662  0.0771
  176loPI   PO4 2804   0.252   8.389  10.103 -0.1984  0.0627  0.2694
  176loPI   GL1 2805   0.164   8.336   9.707 -0.1423 -0.1351  0.0524
  176loPI   GL2 2806   0.139   8.696   9.701  0.5081 -0.1004 -0.4067
  176loPI   C1A 2807   0.267   8.304   9.291  0.2187 -0.0523 -0.1618
  176loPI   C2A 2808   0.457   8.042   9.057 -0.1892  0.3705 -0.4397
  176loPI   C3A 2809   0.590   7.761   8.755  0.4010  0.1463  0.0488
  176loPI   C4A 2810   0.600   7.656   8.356 -0.0521  0.0273  0.0628
  176loPI   C5A 2811   0.795   7.747   7.926  0.2072 -0.0454  0.1213
  176loPI   C6A 2812   1.169   7.572   7.816 -0.2765  0.5493  0.0586
  176loPI   C1B 2813  -0.219   8.432   9.446 -0.3506  0.0444  0.0319
  176loPI   C2B 2814  -0.413   8.255   9.131 -0.1078  0.0615  0.0030
  176loPI   C3B 2815  -0.484   8.046   8.699  0.0366  0.2485 -0.3327
  176loPI   C4B 2816  -0.233   7.927   8.297 -0.1993  0.0247 -0.2684
  177loPI    C1 2817   1.543  12.178  10.444 -0.3785 -0.4412 -0.1332
  177loPI    C2 2818   1.700  12.299  10.792 -0.0321 -0.1404 -0.3856
  177loPI    C3 2819   1.307  12.335  10.726 -0.0599  0.0519 -0.1284
  177loPI   PO4 2820   1.643  12.301  10.238  0.2911  0.0623 -0.0493
  177loPI   GL1 2821   1.489  12.334   9.779 -0.0702  0.0046 -0.2250
  177loPI   GL2 2822   1.290  12.578   9.814  0.0489  0.0870  0.2388
  177loPI   C1A 2823   1.168  12.207   9.474  0.0720 -0.2859  0.1732
  177loPI   C2A 2824   1.045  12.032   9.030  0.2133  0.0481  0.0858
  177loPI   C3A 2825   0.962  11.908   8.677  0.2442  0.3348 -0.2897
  177loPI   C4A 2826   1.071  11.928   8.261 -0.2681  0.0213  0.0033
  177loPI   C5A 2827   1.494  11.961   8.141 -0.4906  0.1033  0.3249
  177loPI   C6A 2828   1.914  12.062   7.991 -0.1070  0.2367 -0.2014
  177loPI   C1B 2829   1.254  12.685   9.408  0.2368  0.0584  0.0398
  177loPI   C2B 2830   1.249  12.782   9.089 -0.0064  0.2716 -0.1769
  177loPI   C3B 2831   1.358  12.781   8.721  0.0107 -0.3141 -0.1070
  177loPI   C4B 2832   1.358  12.917   8.382 -0.1613  0.0677  0.1543
  178loPI    C1 2833   1.551   6.789  10.479  0.1123 -0.0319  0.0192
  178loPI    C2 2834   1.387   6.950  10.807 -0.3746 -0.2541 -0.1062
  178loPI    C3 2835   1.374   6.554  10.749  0.3074 -0.2932 -0.0763
  178loPI   PO4 2836   1.455   7.010  10.308 -0.0175 -0.0109  0.0852
  178loPI   GL1 2837   1.132   7.186  10.077 -0.2216  0.2433  0.1211
  178loPI   GL2 2838   1.422   7.383  10.001  0.0618 -0.0430 -0.0540
  178loPI   C1A 2839   1.082   7.136   9.582 -0.0058 -0.1571  0.0936
  178loPI   C2A 2840   1.214   7.228   9.182  0.1215 -0.0055 -0.2157
  178loPI   C3A 2841   1.291   7.488   8.805  0.0635  0.1263 -0.2855
  178loPI   C4A 2842   1.325   7.517   8.445 -0.1386  0.0122  0.0533
  178loPI   C5A 2843   1.329   7.835   8.209  0.1143 -0.0154 -0.0241
  178loPI   C6A 2844   1.655   8.027   8.061 -0.0071  0.1666 -0.1887
  178loPI   C1B 2845   1.559   7.377   9.620 -0.0833 -0.0590 -0.0809
  178loPI   C2B 2846   1.702   7.502   9.195 -0.2710 -0.0260 -0.1267
  178loPI   C3B 2847   1.753   7.490   8.757 -0.2552 -0.4882 -0.0173
  178loPI   C4B 2848   1.762   7.575   8.337 -0.1855 -0.0436 -0.1150
  179loPI    C1 2849   7.725  11.250  10.542 -0.1674 -0.2018  0.0042
  179loPI    C2 2850   7.447  11.435  10.762  0.1043  0.1675  0.0467
  179loPI    C3 2851   7.763  11.267  10.939 -0.0373 -0.1679 -0.0096
  179loPI   PO4 2852   7.798  11.427  10.251 -0.0458  0.1380  0.1250
  179loPI   GL1 2853   7.701  11.606   9.916  0.0858  0.0520  0.0851
  179loPI   GL2 2854   7.384  11.722   9.787 -0.0692  0.0548 -0.1487
  179loPI   C1A 2855   7.888  11.647   9.584  0.0532  0.3060 -0.0693
  179loPI   C2A 2856   7.948  11.745   9.243 -0.0361 -0.1046  0.0178
  179loPI   C3A 2857   7.875  11.942   8.761  0.1266  0.1439  0.0685
  179loPI   C4A 2858   7.800  12.003   8.286 -0.0701  0.0930 -0.1350
  179loPI   C5A 2859   7.558  11.910   7.926  0.1941  0.2922 -0.2592
  179loPI   C6A 2860   7.129  11.709   7.755 -0.2874 -0.0072 -0.0662
  179loPI   C1B 2861   7.455  11.813   9.401  0.0327 -0.0094  0.0976
  179loPI   C2B 2862   7.521  11.722   8.959 -0.0590 -0.0454  0.1238
  179loPI   C3B 2863   7.525  11.666   8.488  0.1146  0.3695  0.0965
  179loPI   C4B 2864   7.380  11.484   8.141 -0.0903 -0.0903  0.1418
  180loPI    C1 2865   4.588  14.816  10.775 -0.0088  0.1518  0.0053
  180loPI    C2 2866   4.266  14.941  10.573 -0.1066 -0.0043  0.0633
  180loPI    C3 2867   4.240  14.624  10.815  0.0263  0.1407  0.2708
  180loPI   PO4 2868   4.766  14.846  10.553  0.1586 -0.1130 -0.1304
  180loPI   GL1 2869   4.760  14.804  10.090 -0.3276  0.2593 -0.2050
  180loPI   GL2 2870   5.064  14.779   9.803  0.1059 -0.0393 -0.1279
  180loPI   C1A 2871   4.554  14.795   9.796  0.0046 -0.0427 -0.1881
  180loPI   C2A 2872   4.470  14.494   9.326 -0.1905 -0.0477 -0.1157
  180loPI   C3A 2873   4.364  14.300   9.003 -0.1480  0.1463 -0.1741
  180loPI   C4A 2874   4.698  14.076   8.703  0.1673 -0.2257  0.1906
  180loPI   C5A 2875   5.084  14.134   8.514 -0.1356 -0.2676 -0.0283
  180loPI   C6A 2876   5.401  14.103   8.213 -0.0689 -0.5483 -0.1090
  180loPI   C1B 2877   5.098  14.428   9.484 -0.0004  0.0534 -0.0156
  180loPI   C2B 2878   5.005  14.341   8.995 -0.0935  0.0638  0.1589
  180loPI   C3B 2879   4.774  14.577   8.788  0.1101  0.0333 -0.2208
  180loPI   C4B 2880   4.834  15.008   8.641  0.0636 -0.2515  0.2599
  181loPI    C1 2881   9.739  18.311  10.473 -0.0396 -0.2112  0.0596
  181loPI    C2 2882  10.099  18.487  10.460 -0.0683 -0.1394  0.2157
  181loPI    C3 2883  10.057  18.129  10.633 -0.1036 -0.0687  0.3548
  181loPI   PO4 2884   9.664  18.361  10.251 -0.1345  0.0078 -0.0178
  181loPI   GL1 2885   9.676  18.302   9.900  0.2670 -0.4545  0.1143
  181loPI   GL2 2886   9.569  18.602   9.730  0.2032  0.2272 -0.1956
  181loPI   C1A 2887   9.932  18.448   9.471  0.2212 -0.4201 -0.0670
  181loPI   C2A 2888   9.844  18.410   9.052 -0.1922 -0.0159 -0.1260
  181loPI   C3A 2889   9.996  18.335   8.535  0.0219  0.0564  0.3573
  181loPI   C4A 2890  10.215  18.240   8.142  0.1785 -0.0381  0.0023
  181loPI   C5A 2891  10.125  17.931   7.862 -0.1821  0.0555  0.1974
  181loPI   C6A 2892   9.934  17.522   7.665 -0.2687  0.0732 -0.2366
  181loPI   C1B 2893   9.515  18.730   9.310  0.1700 -0.2417  0.1509
  181loPI   C2B 2894   9.469  18.804   8.815 -0.1302  0.2370 -0.2392
  181loPI   C3B 2895   9.584  18.536   8.512  0.0448 -0.1307  0.0437
  181loPI   C4B 2896   9.820  18.499   8.143  0.1929 -0.1074  0.2823
  182loPI    C1 2897  11.112  12.174   9.974  0.0159  0.1873 -0.0028
  182loPI    C2 2898  11.348  12.147   9.651 -0.0224  0.1281 -0.0260
  182loPI    C3 2899  11.398  11.894   9.957 -0.1204  0.0510 -0.0732
  182loPI   PO4 2900  10.946  12.221   9.972 -0.3664 -0.0382  0.0427
  182loPI   GL1 2901  10.595  12.076   9.734 -0.1434  0.0246 -0.2414
  182loPI   GL2 2902  10.558  12.438   9.678 -0.0193  0.0249 -0.1514
  182loPI   C1A 2903  10.686  12.011   9.251 -0.0709 -0.2247  0.1777
  182loPI   C2A 2904  10.709  11.868   8.876  0.0379  0.0510  0.0197
  182loPI   C3A 2905  10.777  11.966   8.541  0.0759  0.0271 -0.1013
  182loPI   C4A 2906  11.099  11.919   8.250  0.1706 -0.2594  0.4331
  182loPI   C5A 2907  11.154  12.070   7.894  0.1238 -0.0679 -0.0404
  182loPI   C6A 2908  11.008  12.056   7.394  0.2191  0.4307 -0.1297
  182loPI   C1B 2909  10.336  12.337   9.292  0.1034  0.3759 -0.2311
  182loPI   C2B 2910  10.378  12.332   8.833  0.0563  0.0405  0.3902
  182loPI   C3B 2911  10.496  12.410   8.402  0.2174  0.0401  0.1671
  182loPI   C4B 2912  10.496  12.638   8.075 -0.0923 -0.0000  0.0541
  183loPI    C1 2913   3.835  11.582  10.493 -0.0474 -0.0878 -0.1601
  183loPI    C2 2914   3.919  11.888  10.249 -0.3111  0.1057 -0.0141
  183loPI    C3 2915   3.874  11.952  10.642  0.0263 -0.1892  0.0785
  183loPI   PO4 2916   3.643  11.480  10.357  0.1282 -0.0771  0.1006
  183loPI   GL1 2917   3.783  11.417  10.021  0.0327  0.2427  0.2624
  183loPI   GL2 2918   3.784  11.345   9.691  0.0264 -0.0579 -0.0249
  183loPI   C1A 2919   4.030  11.769   9.719  0.0032  0.0368  0.2549
  183loPI   C2A 2920   3.977  11.856   9.304  0.0178  0.3471  0.2037
  183loPI   C3A 2921   4.036  11.788   8.922  0.1154  0.0249 -0.1497
  183loPI   C4A 2922   3.864  11.597   8.534  0.0285  0.1879  0.0649
  183loPI   C5A 2923   3.550  11.454   8.131 -0.1877 -0.4731 -0.1968
  183loPI   C6A 2924   3.219  11.249   7.965  0.2138 -0.0372  0.2125
  183loPI   C1B 2925   3.803  11.359   9.228  0.4577 -0.1059  0.2909
  183loPI   C2B 2926   3.953  11.200   8.820  0.0102 -0.1853  0.1928
  183loPI   C3B 2927   3.870  11.128   8.323 -0.0120 -0.0082  0.2225
  183loPI   C4B 2928   3.708  10.922   7.880  0.1463 -0.1416 -0.0283
  184loPI    C1 2929  12.998   2.441  10.087 -0.1974 -0.1262  0.0493
  184loPI    C2 2930  13.139   2.273  10.421 -0.0382 -0.1939 -0.0509
  184loPI    C3 2931  12.852   2.551  10.443  0.1492 -0.0128  0.1605
  184loPI   PO4 2932  13.140   2.482  10.007  0.3101 -0.0025 -0.1343
  184loPI   GL1 2933  13.012   2.743   9.707  0.1979 -0.1006 -0.0396
  184loPI   GL2 2934  12.992   3.021   9.646  0.0473  0.0056 -0.3502
  184loPI   C1A 2935  13.133   2.603   9.335  0.0497  0.2431  0.2844
  184loPI   C2A 2936  13.192   2.555   8.957  0.2497 -0.1282  0.1668
  184loPI   C3A 2937  13.290   2.608   8.533  0.3342 -0.0119 -0.2758
  184loPI   C4A 2938  13.468   2.562   8.103 -0.0456 -0.1889 -0.2908
  184loPI   C5A 2939  13.803   2.632   7.739  0.0599  0.1627  0.0327
  184loPI   C6A 2940  14.026   2.640   7.393  0.1083 -0.0091 -0.1083
  184loPI   C1B 2941  12.920   2.986   9.194  0.2230 -0.2696 -0.0221
  184loPI   C2B 2942  12.880   2.941   8.750  0.0555 -0.2259 -0.2365
  184loPI   C3B 2943  12.960   2.960   8.342 -0.2050 -0.0997  0.2338
  184loPI   C4B 2944  13.224   3.045   7.989 -0.2284  0.0336 -0.4282
  185loPI    C1 2945  15.250  10.682  10.460 -0.1421  0.1274 -0.1574
  185loPI    C2 2946  15.223  10.334  10.265 -0.1118 -0.0235  0.1021
  185loPI    C3 2947  15.393  10.347  10.626 -0.1745  0.2502  0.1238
  185loPI   PO4 2948  15.318  10.828  10.205  0.1470 -0.1734  0.3210
  185loPI   GL1 2949  15.443  11.076   9.849  0.1096  0.1154  0.2891
  185loPI   GL2 2950  15.178  10.880   9.619 -0.1579  0.1932  0.2774
  185loPI   C1A 2951  15.686  11.351   9.585 -0.0562 -0.0678  0.1703
  185loPI   C2A 2952  15.940  11.335   9.142 -0.3918 -0.0869 -0.1189
  185loPI   C3A 2953  15.875  11.187   8.783  0.1436 -0.0470 -0.2837
  185loPI   C4A 2954  15.879  10.782   8.663 -0.0723  0.0352 -0.2706
  185loPI   C5A 2955  16.147  10.528   8.701 -0.2013  0.2623 -0.1674
  185loPI   C6A 2956  16.365  10.110   8.808 -0.0780  0.0045  0.2397
  185loPI   C1B 2957  15.179  11.288   9.300  0.2544  0.2244 -0.1890
  185loPI   C2B 2958  15.461  11.410   9.032  0.1919  0.4151  0.1174
  185loPI   C3B 2959  15.562  11.573   8.638 -0.0165  0.0659  0.0026
  185loPI   C4B 2960  15.709  11.607   8.191  0.1877  0.3715  0.0802
  186loPI    C1 2961  10.815  14.641  10.148 -0.0303  0.1568  0.1021
  186loPI    C2 2962  11.073  14.572  10.446 -0.0918  0.0664  0.1349
  186loPI    C3 2963  10.824  14.283  10.326  0.0038  0.0688 -0.0740
  186loPI   PO4 2964  10.867  14.696   9.922  0.1045 -0.1268  0.0882
  186loPI   GL1 2965  10.511  14.903   9.753 -0.0915 -0.1529 -0.2813
  186loPI   GL2 2966  10.787  15.005   9.485  0.3881 -0.0483 -0.1838
  186loPI   C1A 2967  10.184  14.826   9.337  0.0919  0.1446 -0.0180
  186loPI   C2A 2968  10.084  14.912   8.927 -0.1824 -0.3237 -0.0131
  186loPI   C3A 2969   9.947  15.060   8.568  0.0757 -0.0505  0.0290
  186loPI   C4A 2970   9.967  14.998   8.162 -0.2803  0.2797 -0.0981
  186loPI   C5A 2971  10.090  15.218   7.804  0.1245  0.1584  0.1848
  186loPI   C6A 2972  10.182  15.585   7.576  0.2043 -0.2102 -0.1175
  186loPI   C1B 2973  10.635  14.756   9.202  0.0218  0.0257  0.0362
  186loPI   C2B 2974  10.691  14.722   8.694 -0.0533 -0.3308  0.0630
  186loPI   C3B 2975  10.728  14.462   8.303 -0.2073  0.1354 -0.2502
  186loPI   C4B 2976  10.402  14.128   8.207  0.0507 -0.0346  0.1939
  187loPI    C1 2977  13.312   7.549  10.274 -0.0218  0.1462  0.1312
  187loPI    C2 2978  13.083   7.240  10.166  0.1967  0.0136  0.0404
  187loPI    C3 2979  13.454   7.176  10.301  0.2349  0.2354  0.0436
  187loPI   PO4 2980  13.285   7.731  10.027  0.0443 -0.0205  0.0177
  187loPI   GL1 2981  13.613   7.981   9.773  0.1270 -0.1025  0.0467
  187loPI   GL2 2982  13.317   7.841   9.551  0.1933  0.0415  0.2577
  187loPI   C1A 2983  13.691   8.104   9.395  0.1009 -0.2418 -0.1367
  187loPI   C2A 2984  13.817   8.138   9.020 -0.0673  0.0585 -0.1120
  187loPI   C3A 2985  13.894   8.330   8.623  0.3255 -0.2297  0.1581
  187loPI   C4A 2986  14.041   8.352   8.111  0.1112  0.2297 -0.2076
  187loPI   C5A 2987  14.499   8.429   8.029  0.1881 -0.0235 -0.1646
  187loPI   C6A 2988  14.846   8.254   7.938  0.1090 -0.1313 -0.1775
  187loPI   C1B 2989  13.039   7.602   9.241 -0.0129  0.2247 -0.0188
  187loPI   C2B 2990  12.922   7.718   8.775  0.0111 -0.0422 -0.1182
  187loPI   C3B 2991  13.024   7.663   8.427 -0.0281  0.1506 -0.1966
  187loPI   C4B 2992  13.185   7.450   8.078  0.0049  0.3897  0.0732
  188loPI    C1 2993   7.884   9.386  10.236 -0.2473  0.1388  0.1738
  188loPI    C2 2994   7.822   9.036  10.420  0.3615 -0.1599 -0.1589
  188loPI    C3 2995   8.019   9.329  10.608 -0.0958 -0.0070  0.0977
  188loPI   PO4 2996   7.695   9.343  10.011 -0.1143  0.2228  0.2096
  188loPI   GL1 2997   7.657   9.224   9.575 -0.1736 -0.0175  0.0066
  188loPI   GL2 2998   7.281   9.287   9.435  0.2472 -0.4365  0.0021
  188loPI   C1A 2999   7.656   9.214   9.164 -0.0468  0.0065  0.1312
  188loPI   C2A 3000   7.673   9.266   8.733 -0.1402 -0.2156  0.2161
  188loPI   C3A 3001   7.748   9.345   8.275  0.1782 -0.2255 -0.0665
  188loPI   C4A 3002   7.946   9.249   7.874 -0.1144  0.0543 -0.2907
  188loPI   C5A 3003   7.980   8.909   7.619 -0.0367  0.1309  0.0160
  188loPI   C6A 3004   7.877   8.512   7.547  0.0354  0.0801 -0.3466
  188loPI   C1B 3005   7.168   9.353   8.979 -0.0303 -0.3009 -0.0418
  188loPI   C2B 3006   7.192   9.361   8.599 -0.0619 -0.1200 -0.0366
  188loPI   C3B 3007   7.251   9.555   8.196  0.4286  0.0915 -0.1254
  188loPI   C4B 3008   7.023   9.636   7.837 -0.0349  0.0375 -0.4453
  189loPI    C1 3009  13.030   5.570  10.737  0.0643 -0.1772 -0.1854
  189loPI    C2 3010  13.203   5.417  11.063  0.0516 -0.0116 -0.1000
  189loPI    C3 3011  13.310   5.779  10.931 -0.2844  0.1281  0.0010
  189loPI   PO4 3012  13.047   5.386  10.579  0.1319 -0.1196 -0.0112
  189loPI   GL1 3013  13.030   5.283  10.180  0.0792  0.0983 -0.2500
  189loPI   GL2 3014  13.108   5.447   9.935  0.0837 -0.1462 -0.1343
  189loPI   C1A 3015  12.645   5.372   9.791 -0.1938  0.0642 -0.1010
  189loPI   C2A 3016  12.633   5.349   9.389  0.0905  0.0430 -0.4818
  189loPI   C3A 3017  12.689   5.191   8.984 -0.1770 -0.1166 -0.0751
  189loPI   C4A 3018  12.587   5.072   8.579  0.0354  0.0786  0.0923
  189loPI   C5A 3019  12.522   5.033   8.166  0.1401  0.0195 -0.0390
  189loPI   C6A 3020  12.607   4.979   7.738 -0.0054  0.0391 -0.0069
  189loPI   C1B 3021  13.118   5.349   9.497  0.0036 -0.0284  0.1511
  189loPI   C2B 3022  13.031   5.536   9.080  0.0013 -0.2383  0.2096
  189loPI   C3B 3023  12.894   5.518   8.616 -0.0171 -0.1513 -0.0984
  189loPI   C4B 3024  12.612   5.594   8.333 -0.4164  0.0407 -0.2346
  190loPI    C1 3025  12.742   4.946  10.601  0.0176 -0.1045 -0.0798
  190loPI    C2 3026  12.568   4.894  10.958 -0.0205 -0.0552 -0.0911
  190loPI    C3 3027  12.948   5.016  10.936 -0.0750  0.1213 -0.0683
  190loPI   PO4 3028  12.728   4.804  10.406  0.0555 -0.2021 -0.0493
  190loPI   GL1 3029  12.771   4.842   9.970 -0.2018  0.2703  0.0040
  190loPI   GL2 3030  12.976   4.817   9.879 -0.2874  0.0121  0.0772
  190loPI   C1A 3031  12.524   4.872   9.588 -0.1614 -0.1987  0.4551
  190loPI   C2A 3032  12.319   4.937   9.261 -0.1379 -0.0233 -0.1947
  190loPI   C3A 3033  12.480   4.716   8.974 -0.0214 -0.4259  0.1936
  190loPI   C4A 3034  12.783   4.688   8.836 -0.0098 -0.3355  0.4426
  190loPI   C5A 3035  12.769   4.639   8.286 -0.1937 -0.0756 -0.0055
  190loPI   C6A 3036  13.026   4.724   8.031  0.2316 -0.2130 -0.2514
  190loPI   C1B 3037  13.030   4.884   9.354  0.0638 -0.0904  0.1388
  190loPI   C2B 3038  13.157   5.008   8.986 -0.0292 -0.2479  0.0798
  190loPI   C3B 3039  13.066   4.989   8.536  0.0971  0.1878 -0.1673
  190loPI   C4B 3040  12.962   5.262   8.160 -0.2410 -0.1226 -0.4119
  191loPI    C1 3041   7.087   9.852  10.119  0.1108  0.0317 -0.0246
  191loPI    C2 3042   7.245  10.002  10.454  0.0021  0.0042  0.0395
  191loPI    C3 3043   7.041   9.658  10.466 -0.0330  0.0218 -0.0484
  191loPI   PO4 3044   7.280   9.910   9.952  0.2810 -0.1769 -0.0014
  191loPI   GL1 3045   7.192   9.850   9.517 -0.5031  0.0660 -0.0558
  191loPI   GL2 3046   6.985   9.667   9.278  0.2130  0.0968  0.2351
  191loPI   C1A 3047   7.462   9.690   9.160 -0.0112  0.0394 -0.2151
  191loPI   C2A 3048   7.569   9.725   8.727 -0.2099  0.1493  0.0766
  191loPI   C3A 3049   7.624   9.930   8.292  0.1743  0.3132  0.0153
  191loPI   C4A 3050   7.763   9.770   8.023  0.1130 -0.0621  0.1391
  191loPI   C5A 3051   7.496   9.766   7.782 -0.3548 -0.0521  0.2666
  191loPI   C6A 3052   7.402   9.952   7.435  0.3325 -0.2188 -0.0039
  191loPI   C1B 3053   6.755   9.623   8.970  0.0394 -0.2704 -0.1955
  191loPI   C2B 3054   6.778   9.635   8.616 -0.0968 -0.2175  0.2661
  191loPI   C3B 3055   6.754   9.656   8.308  0.0973  0.1051 -0.0319
  191loPI   C4B 3056   6.613   9.919   8.003 -0.0488 -0.2308  0.0689
  192loPI    C1 3057   5.530   6.830  10.246 -0.1738  0.1448 -0.1867
  192loPI    C2 3058   5.764   7.153  10.280  0.0441 -0.0411  0.1338
  192loPI    C3 3059   5.876   6.806  10.444 -0.0691 -0.3491 -0.4125
  192loPI   PO4 3060   5.518   6.844   9.919 -0.0833 -0.2237 -0.1482
  192loPI   GL1 3061   5.498   6.966   9.548  0.0335 -0.0723  0.0459
  192loPI   GL2 3062   5.659   7.086   9.389  0.2237 -0.1443 -0.0528
  192loPI   C1A 3063   5.386   6.783   9.158 -0.1281  0.1079  0.2279
  192loPI   C2A 3064   5.427   6.714   8.729  0.1050 -0.0408 -0.2141
  192loPI   C3A 3065   5.379   6.637   8.320 -0.0602  0.1374 -0.2177
  192loPI   C4A 3066   5.592   6.578   7.836  0.1122  0.0458 -0.0390
  192loPI   C5A 3067   5.901   6.809   7.575 -0.1290  0.4594  0.0221
  192loPI   C6A 3068   6.133   7.191   7.452  0.2278 -0.0565  0.4399
  192loPI   C1B 3069   5.931   7.086   9.094 -0.0015  0.2053  0.0205
  192loPI   C2B 3070   6.136   7.101   8.746  0.0954  0.2336 -0.1289
  192loPI   C3B 3071   6.025   6.928   8.416  0.2102  0.1447 -0.0513
  192loPI   C4B 3072   5.975   6.772   8.134 -0.0988  0.1124 -0.0222
  193loPI    C1 3073  14.481   0.198  10.491  0.0160 -0.1017  0.1938
  193loPI    C2 3074  14.465  -0.183  10.612  0.0273 -0.1136  0.1584
  193loPI    C3 3075  14.222   0.090  10.775 -0.2497 -0.2105 -0.0845
  193loPI   PO4 3076  14.529   0.169  10.215 -0.1854 -0.1618 -0.0345
  193loPI   GL1 3077  14.574   0.025   9.833 -0.0743 -0.1250  0.0163
  193loPI   GL2 3078  14.280  -0.239   9.897  0.1285 -0.0160 -0.2420
  193loPI   C1A 3079  14.587   0.259   9.417  0.2085  0.1788 -0.2328
  193loPI   C2A 3080  14.525   0.266   8.958 -0.0523 -0.1041  0.0177
  193loPI   C3A 3081  14.434   0.142   8.449 -0.2979  0.2190  0.0230
  193loPI   C4A 3082  14.485   0.354   8.201  0.0235 -0.1518 -0.2398
  193loPI   C5A 3083  14.638   0.847   8.281 -0.1953 -0.0913 -0.2056
  193loPI   C6A 3084  14.817   1.122   8.173 -0.1735 -0.1865  0.3148
  193loPI   C1B 3085  14.253  -0.183   9.472 -0.0932  0.2040 -0.1894
  193loPI   C2B 3086  14.227  -0.190   9.138 -0.1440  0.0618 -0.1586
  193loPI   C3B 3087  14.203  -0.240   8.723  0.2146  0.1652  0.1790
  193loPI   C4B 3088  14.153  -0.212   8.280 -0.0550 -0.0814  0.2160
  194loPI    C1 3089   2.046   4.279  10.983  0.2234  0.0739 -0.0819
  194loPI    C2 3090   1.973   3.979  11.237  0.1777  0.1840  0.0355
  194loPI    C3 3091   2.203   4.286  11.350  0.2474  0.1800 -0.0939
  194loPI   PO4 3092   1.841   4.269  10.768 -0.0197  0.1252  0.1844
  194loPI   GL1 3093   1.929   4.307  10.226 -0.0164  0.1025 -0.0792
  194loPI   GL2 3094   2.160   4.495  10.128  0.0185 -0.3667 -0.1974
  194loPI   C1A 3095   1.882   4.223   9.768 -0.1577  0.1677 -0.2615
  194loPI   C2A 3096   1.970   3.912   9.413 -0.1275 -0.0100 -0.1994
  194loPI   C3A 3097   1.880   4.021   9.117  0.0836 -0.1688 -0.1894
  194loPI   C4A 3098   1.909   4.117   8.722  0.2018 -0.0990  0.3216
  194loPI   C5A 3099   1.657   4.167   8.308 -0.1905 -0.1008  0.1172
  194loPI   C6A 3100   1.658   4.030   7.872  0.0667  0.0154 -0.0522
  194loPI   C1B 3101   2.128   4.662   9.714 -0.1314  0.1057 -0.1871
  194loPI   C2B 3102   2.125   4.867   9.390 -0.0866  0.0074  0.2100
  194loPI   C3B 3103   2.066   5.273   9.222  0.3309  0.1855  0.0019
  194loPI   C4B 3104   1.961   5.404   8.831  0.0914  0.0178  0.0329
  195loPI    C1 3105   1.490   6.087  10.457 -0.0684  0.1804 -0.0183
  195loPI    C2 3106   1.283   6.095  10.799  0.0159 -0.0499  0.0401
  195loPI    C3 3107   1.678   6.029  10.805  0.0244 -0.0143 -0.0990
  195loPI   PO4 3108   1.436   6.314  10.269 -0.1048  0.0286 -0.0823
  195loPI   GL1 3109   1.382   6.731   9.927 -0.1948 -0.1795 -0.0332
  195loPI   GL2 3110   1.539   6.946   9.744 -0.1284  0.4064 -0.1668
  195loPI   C1A 3111   0.999   6.650   9.751 -0.2539  0.0011 -0.4194
  195loPI   C2A 3112   0.833   6.632   9.421 -0.0312  0.0028  0.2628
  195loPI   C3A 3113   0.778   6.960   9.189 -0.4305 -0.3034 -0.0663
  195loPI   C4A 3114   0.690   7.275   8.881 -0.0915 -0.0170  0.0066
  195loPI   C5A 3115   0.346   7.281   8.645  0.1849  0.3360  0.0319
  195loPI   C6A 3116   0.091   7.596   8.470 -0.1447 -0.0368 -0.3336
  195loPI   C1B 3117   1.499   6.897   9.373  0.0718 -0.0247 -0.0947
  195loPI   C2B 3118   1.433   6.966   8.850 -0.1712  0.1055  0.1620
  195loPI   C3B 3119   1.493   6.805   8.493  0.3538 -0.0592  0.2927
  195loPI   C4B 3120   1.562   6.689   8.040  0.3548  0.3597  0.0041
  196loPI    C1 3121  15.345   1.954  10.663  0.2054  0.1733  0.2408
  196loPI    C2 3122  15.660   1.770  10.828  0.0913  0.0187  0.2881
  196loPI    C3 3123  15.431   2.013  11.049 -0.0226 -0.1368  0.3426
  196loPI   PO4 3124  15.430   1.911  10.413 -0.1459 -0.1265 -0.1893
  196loPI   GL1 3125  15.616   2.251  10.285 -0.0293  0.1738  0.1411
  196loPI   GL2 3126  15.840   2.371  10.138 -0.0065  0.2271 -0.1502
  196loPI   C1A 3127  15.654   2.028   9.854  0.0934  0.0846 -0.3347
  196loPI   C2A 3128  15.799   1.957   9.500  0.0599 -0.2061 -0.1646
  196loPI   C3A 3129  15.803   1.945   9.150 -0.0673  0.1455  0.1471
  196loPI   C4A 3130  15.902   2.024   8.703 -0.2103  0.2154  0.1356
  196loPI   C5A 3131  15.987   2.335   8.387  0.0483  0.2081 -0.2073
  196loPI   C6A 3132  16.267   2.391   8.134 -0.0551  0.2149  0.1361
  196loPI   C1B 3133  15.919   2.488   9.703  0.2504  0.0038 -0.1616
  196loPI   C2B 3134  15.990   2.482   9.279  0.1776 -0.0047 -0.0196
  196loPI   C3B 3135  15.849   2.559   8.842  0.1973  0.0026 -0.2448
  196loPI   C4B 3136  15.730   2.804   8.484  0.4300  0.1025 -0.0140
  197loPI    C1 3137  18.144  11.210  10.301  0.0807 -0.0998 -0.0536
  197loPI    C2 3138  17.792  11.221  10.490  0.0640  0.3363 -0.1005
  197loPI    C3 3139  18.123  11.117  10.689 -0.0939 -0.1230 -0.0677
  197loPI   PO4 3140  18.010  10.998  10.057  0.0030  0.0322  0.3204
  197loPI   GL1 3141  18.081  11.060   9.640 -0.0934 -0.0850  0.0829
  197loPI   GL2 3142  18.130  11.369   9.599 -0.0981  0.1544 -0.0117
  197loPI   C1A 3143  17.921  11.195   9.181 -0.0068 -0.0471  0.0143
  197loPI   C2A 3144  17.726  11.449   8.963 -0.0456 -0.2444 -0.0371
  197loPI   C3A 3145  17.505  11.572   8.636  0.1636  0.2302 -0.1529
  197loPI   C4A 3146  17.355  11.330   8.236 -0.0819 -0.1024  0.2923
  197loPI   C5A 3147  16.987  11.236   8.080  0.0428 -0.0838 -0.2208
  197loPI   C6A 3148  16.532  11.375   8.304 -0.0270  0.1867 -0.0863
  197loPI   C1B 3149  18.256  11.536   9.143  0.2307  0.0078 -0.1772
  197loPI   C2B 3150  18.545  11.578   8.891 -0.0182  0.3991  0.0844
  197loPI   C3B 3151  18.832  11.770   8.616 -0.1223  0.2653 -0.1527
  197loPI   C4B 3152  18.980  11.586   8.275  0.2292 -0.2009  0.1460
  198loPI    C1 3153  14.736  10.191  10.256  0.0121 -0.0466  0.3970
  198loPI    C2 3154  14.791  10.580  10.182  0.0286 -0.1065  0.0771
  198loPI    C3 3155  14.433  10.448  10.302 -0.0903 -0.0452 -0.2029
  198loPI   PO4 3156  14.920  10.050  10.039  0.0600  0.3778 -0.0742
  198loPI   GL1 3157  15.014   9.973   9.559 -0.3961 -0.0014  0.0138
  198loPI   GL2 3158  15.166  10.003   9.321  0.2272  0.0729 -0.0687
  198loPI   C1A 3159  14.673   9.862   9.196 -0.0508  0.0708 -0.0839
  198loPI   C2A 3160  14.495   9.675   8.830 -0.2807 -0.1959  0.0776
  198loPI   C3A 3161  14.515   9.591   8.366  0.0369  0.0871  0.1503
  198loPI   C4A 3162  14.415   9.550   7.885 -0.1774 -0.2391  0.1664
  198loPI   C5A 3163  14.698   9.265   7.622 -0.0232  0.1370  0.3855
  198loPI   C6A 3164  14.992   9.448   7.397  0.3213  0.0313 -0.1314
  198loPI   C1B 3165  15.203  10.115   8.913 -0.5431  0.3744  0.3374
  198loPI   C2B 3166  15.274  10.127   8.523  0.1559 -0.0086 -0.1399
  198loPI   C3B 3167  15.460  10.176   8.098 -0.2772 -0.1486  0.2207
  198loPI   C4B 3168  15.205  10.292   7.774  0.3900  0.0265 -0.1530
  199loPI    C1 3169   6.935   4.768  10.441 -0.0692  0.0510  0.3844
  199loPI    C2 3170   7.315   4.892  10.441 -0.0851  0.1237 -0.1314
  199loPI    C3 3171   7.018   5.159  10.458 -0.1165  0.0767  0.0881
  199loPI   PO4 3172   6.884   4.588  10.268 -0.4322 -0.3181 -0.1205
  199loPI   GL1 3173   7.043   4.370   9.942  0.0135 -0.0822  0.1372
  199loPI   GL2 3174   6.899   4.660   9.681 -0.0029  0.3168  0.0059
  199loPI   C1A 3175   7.155   4.047   9.700  0.1398  0.1031 -0.3165
  199loPI   C2A 3176   7.254   3.853   9.307 -0.0139 -0.2437  0.2367
  199loPI   C3A 3177   7.351   4.032   8.932  0.2423 -0.0205 -0.2377
  199loPI   C4A 3178   7.154   4.317   8.561 -0.1025  0.0357 -0.1293
  199loPI   C5A 3179   7.176   4.389   8.122 -0.1874  0.2547  0.4448
  199loPI   C6A 3180   6.820   4.527   7.925  0.0161  0.1262  0.4024
  199loPI   C1B 3181   6.946   4.716   9.199  0.0693  0.2079 -0.1300
  199loPI   C2B 3182   6.794   4.742   8.803  0.3389 -0.1329  0.0911
  199loPI   C3B 3183   6.635   4.696   8.451 -0.2861  0.0839  0.0925
  199loPI   C4B 3184   6.509   4.883   8.067 -0.0435 -0.1634 -0.1889
  200loPI    C1 3185   3.471   2.062  10.763 -0.0179 -0.1114  0.0217
  200loPI    C2 3186   3.335   2.405  10.608  0.0563 -0.0757  0.0347
  200loPI    C3 3187   3.662   2.406  10.838  0.0912 -0.1637 -0.0142
  200loPI   PO4 3188   3.487   1.907  10.443  0.0322  0.2677 -0.1038
  200loPI   GL1 3189   3.347   1.852  10.016  0.3545  0.0716 -0.0062
  200loPI   GL2 3190   3.140   1.701   9.839  0.1263  0.1412 -0.2839
  200loPI   C1A 3191   3.548   2.007   9.584 -0.1598 -0.0742  0.2314
  200loPI   C2A 3192   3.685   2.128   9.184 -0.2865 -0.1553  0.1614
  200loPI   C3A 3193   3.928   2.198   8.758  0.0177  0.0426  0.1046
  200loPI   C4A 3194   3.873   2.501   8.376 -0.2539  0.1715 -0.0172
  200loPI   C5A 3195   3.453   2.686   8.224  0.2443  0.2030  0.0291
  200loPI   C6A 3196   3.197   2.335   8.341 -0.2654 -0.3010  0.0820
  200loPI   C1B 3197   3.169   1.859   9.348 -0.1510  0.0287 -0.3852
  200loPI   C2B 3198   3.388   1.869   8.946 -0.0225 -0.1071 -0.1147
  200loPI   C3B 3199   3.497   1.925   8.496 -0.1084  0.1153 -0.0360
  200loPI   C4B 3200   3.320   1.833   8.165 -0.0218  0.0207  0.2404
  201loPI    C1 3201   9.570  17.493  10.187  0.2793 -0.0424 -0.0650
  201loPI    C2 3202   9.610  17.550  10.580 -0.0796 -0.0980 -0.0164
  201loPI    C3 3203   9.597  17.864  10.333 -0.0185 -0.0564  0.0331
  201loPI   PO4 3204   9.405  17.314  10.052 -0.1036 -0.0226  0.0113
  201loPI   GL1 3205   9.264  17.288   9.663 -0.1216 -0.1428  0.1452
  201loPI   GL2 3206   9.425  17.084   9.609 -0.1435 -0.1288  0.1902
  201loPI   C1A 3207   8.942  17.434   9.264  0.1690  0.0313 -0.0810
  201loPI   C2A 3208   8.852  17.378   8.806 -0.0711  0.0023  0.0000
  201loPI   C3A 3209   8.821  17.556   8.548 -0.3874 -0.2864  0.1523
  201loPI   C4A 3210   9.004  17.723   8.212 -0.0530  0.1245 -0.0134
  201loPI   C5A 3211   8.949  17.670   7.764 -0.0399  0.3628 -0.0065
  201loPI   C6A 3212   8.976  17.534   7.446 -0.2240 -0.0835 -0.2067
  201loPI   C1B 3213   9.384  17.206   9.151 -0.3152 -0.0656 -0.1455
  201loPI   C2B 3214   9.334  17.414   8.873 -0.1921 -0.0709  0.3378
  201loPI   C3B 3215   9.467  17.632   8.495 -0.2496  0.2734  0.0242
  201loPI   C4B 3216   9.467  17.841   8.076  0.0871 -0.2546  0.3801
  202loPI    C1 3217   7.466   1.113  10.421  0.0594 -0.1528 -0.2983
  202loPI    C2 3218   7.611   1.273  10.758 -0.2222 -0.0322 -0.2317
  202loPI    C3 3219   7.426   0.919  10.768  0.0315 -0.1695 -0.3108
  202loPI   PO4 3220   7.462   1.283  10.260  0.0815 -0.0928 -0.0550
  202loPI   GL1 3221   7.400   1.286   9.766 -0.0283 -0.0651 -0.2404
  202loPI   GL2 3222   7.423   0.910   9.857  0.2088  0.0412 -0.0510
  202loPI   C1A 3223   7.232   1.395   9.395  0.0741  0.0625 -0.1389
  202loPI   C2A 3224   7.173   1.428   8.941 -0.0871 -0.2645  0.2066
  202loPI   C3A 3225   6.897   1.447   8.580  0.2275 -0.0028  0.0639
  202loPI   C4A 3226   6.488   1.660   8.369  0.0040 -0.0113 -0.0837
  202loPI   C5A 3227   6.302   1.793   8.025 -0.2558  0.0749  0.0515
  202loPI   C6A 3228   6.146   1.757   7.624  0.0379  0.0064 -0.2941
  202loPI   C1B 3229   7.326   0.781   9.484  0.0582  0.1116 -0.1376
  202loPI   C2B 3230   7.296   0.926   9.137 -0.2544  0.1084  0.1150
  202loPI   C3B 3231   7.200   0.959   8.742 -0.2279 -0.1144  0.2142
  202loPI   C4B 3232   7.160   1.077   8.403  0.1834 -0.1099 -0.0387
  203loPI    C1 3233   4.797  13.992  10.528 -0.0920 -0.1207 -0.1201
  203loPI    C2 3234   4.914  14.345  10.675 -0.2679  0.0895 -0.4731
  203loPI    C3 3235   4.589  14.165  10.823  0.0345 -0.1118 -0.0356
  203loPI   PO4 3236   4.814  14.039  10.249  0.1353 -0.1927  0.2273
  203loPI   GL1 3237   4.761  14.279   9.867  0.1057  0.1171 -0.1405
  203loPI   GL2 3238   4.408  14.244   9.739 -0.6768  0.2314  0.1279
  203loPI   C1A 3239   4.779  14.105   9.376  0.2618 -0.0479  0.0829
  203loPI   C2A 3240   4.960  13.770   9.029  0.1892 -0.3212  0.0537
  203loPI   C3A 3241   5.014  13.576   8.539 -0.1320 -0.0787 -0.1003
  203loPI   C4A 3242   4.869  13.264   8.297 -0.1263 -0.2503 -0.1609
  203loPI   C5A 3243   4.774  12.895   8.037 -0.0983  0.0076 -0.0569
  203loPI   C6A 3244   4.743  12.509   7.783  0.2986  0.0581 -0.0034
  203loPI   C1B 3245   4.225  14.127   9.470 -0.0604 -0.0224 -0.1443
  203loPI   C2B 3246   4.148  13.790   9.114 -0.0733  0.0070  0.2128
  203loPI   C3B 3247   4.350  13.735   8.714  0.0748  0.1180 -0.1975
  203loPI   C4B 3248   4.320  13.944   8.357 -0.1003  0.0701  0.2729
  204loPI    C1 3249  12.756  12.050  10.090  0.1047  0.1269  0.0345
  204loPI    C2 3250  12.374  12.031  10.209  0.1133  0.0845  0.0557
  204loPI    C3 3251  12.652  12.188  10.451  0.1239  0.0355  0.0756
  204loPI   PO4 3252  12.740  12.142   9.856 -0.1073 -0.0623  0.1964
  204loPI   GL1 3253  12.896  12.075   9.481  0.0053  0.1669  0.0319
  204loPI   GL2 3254  13.083  12.171   9.528 -0.0086 -0.1621 -0.0890
  204loPI   C1A 3255  12.956  11.999   9.019  0.1852  0.2864  0.0828
  204loPI   C2A 3256  13.002  11.906   8.617 -0.0806  0.2180  0.1567
  204loPI   C3A 3257  12.924  11.996   8.167 -0.0939  0.0154 -0.3688
  204loPI   C4A 3258  12.983  12.286   7.936  0.0485 -0.1048 -0.3054
  204loPI   C5A 3259  13.099  12.545   7.690 -0.3134  0.1523  0.2214
  204loPI   C6A 3260  13.382  12.527   7.186 -0.1802  0.2332 -0.1072
  204loPI   C1B 3261  13.148  12.440   9.170 -0.0299  0.0757  0.0123
  204loPI   C2B 3262  13.398  12.525   8.789 -0.3015  0.2952  0.1264
  204loPI   C3B 3263  13.714  12.567   8.392 -0.3832 -0.1031 -0.0045
  204loPI   C4B 3264  13.991  12.699   8.064 -0.2256 -0.2505 -0.1897
  205loPI    C1 3265  12.393   3.847  10.408  0.2075  0.0362  0.0182
  205loPI    C2 3266  12.519   4.051  10.728 -0.0599 -0.0904  0.2078
  205loPI    C3 3267  12.338   3.697  10.775 -0.0245 -0.1502 -0.0900
  205loPI   PO4 3268  12.528   3.821  10.212 -0.1596  0.2485 -0.1434
  205loPI   GL1 3269  12.853   3.834   9.801 -0.1666 -0.4118  0.1688
  205loPI   GL2 3270  12.596   3.615   9.768  0.1468  0.0600  0.0118
  205loPI   C1A 3271  13.070   3.954   9.419 -0.1537  0.1499  0.1853
  205loPI   C2A 3272  12.923   4.150   9.086  0.0060 -0.4227  0.0098
  205loPI   C3A 3273  12.790   4.219   8.739 -0.2961 -0.1558 -0.0643
  205loPI   C4A 3274  12.649   4.121   8.269 -0.1170 -0.0795  0.0533
  205loPI   C5A 3275  12.721   3.831   7.984 -0.2126 -0.0784 -0.0022
  205loPI   C6A 3276  12.882   3.974   7.673  0.0380 -0.0447 -0.1053
  205loPI   C1B 3277  12.559   3.756   9.427 -0.1853  0.0455 -0.0100
  205loPI   C2B 3278  12.557   3.788   9.046  0.0296  0.3897  0.2095
  205loPI   C3B 3279  12.495   3.829   8.639 -0.1735  0.1976 -0.3365
  205loPI   C4B 3280  12.316   3.725   8.319 -0.2103  0.1207  0.0547
  206loPI    C1 3281   3.040   1.604  10.458  0.0459  0.0114 -0.0365
  206loPI    C2 3282   2.982   1.424  10.810 -0.0121  0.0242 -0.0393
  206loPI    C3 3283   2.980   1.823  10.787 -0.0318  0.0230 -0.0582
  206loPI   PO4 3284   3.253   1.443  10.405 -0.0563 -0.2229  0.0314
  206loPI   GL1 3285   3.416   1.303  10.021  0.1389 -0.1158 -0.0777
  206loPI   GL2 3286   3.433   1.053  10.037 -0.1549 -0.0266 -0.1367
  206loPI   C1A 3287   3.755   1.501   9.793 -0.3307  0.3107  0.2536
  206loPI   C2A 3288   4.087   1.333   9.553 -0.1986  0.0131  0.0515
  206loPI   C3A 3289   4.180   1.311   9.142  0.0832  0.0792 -0.1890
  206loPI   C4A 3290   4.303   1.349   8.768  0.2479 -0.0592  0.0170
  206loPI   C5A 3291   4.385   1.450   8.390  0.0024 -0.1221 -0.0345
  206loPI   C6A 3292   4.047   1.713   8.359  0.1511 -0.1408  0.3796
  206loPI   C1B 3293   3.288   1.289   9.551 -0.0026 -0.1575 -0.3608
  206loPI   C2B 3294   3.007   1.059   9.292  0.0806 -0.1724  0.1084
  206loPI   C3B 3295   2.941   1.144   8.783  0.1644  0.0516  0.1641
  206loPI   C4B 3296   2.887   1.356   8.413 -0.0459  0.0936  0.0005
  207loPI    C1 3297   0.994   3.471  10.365 -0.0437 -0.1639  0.0429
  207loPI    C2 3298   1.340   3.546  10.180 -0.0897 -0.0819 -0.0107
  207loPI    C3 3299   1.294   3.642  10.566 -0.0881  0.0046 -0.0318
  207loPI   PO4 3300   0.808   3.452  10.117  0.1050 -0.1900  0.0524
  207loPI   GL1 3301   0.902   3.281   9.796 -0.0111 -0.1105 -0.0368
  207loPI   GL2 3302   0.697   3.139   9.708 -0.0401 -0.0868 -0.5139
  207loPI   C1A 3303   1.058   3.116   9.405 -0.1033  0.0628  0.1083
  207loPI   C2A 3304   0.860   3.059   9.009  0.1022  0.0334  0.1036
  207loPI   C3A 3305   0.862   2.736   8.620 -0.0773  0.1270  0.1293
  207loPI   C4A 3306   1.163   2.375   8.487  0.0322 -0.0910 -0.1805
  207loPI   C5A 3307   1.271   2.119   8.227  0.0066 -0.0571 -0.1635
  207loPI   C6A 3308   1.340   2.243   7.878 -0.0138  0.2098 -0.2309
  207loPI   C1B 3309   0.575   3.287   9.321  0.3087 -0.2892 -0.0971
  207loPI   C2B 3310   0.481   3.360   8.860 -0.0971 -0.0433  0.1446
  207loPI   C3B 3311   0.513   3.180   8.482 -0.1930  0.1927 -0.0172
  207loPI   C4B 3312   0.649   3.180   8.033  0.0146  0.1914  0.0176
  208loPI    C1 3313  14.739  16.767  10.488  0.0864 -0.0845 -0.1321
  208loPI    C2 3314  14.478  16.465  10.485 -0.1054  0.0754  0.0990
  208loPI    C3 3315  14.476  16.727  10.786  0.2476  0.1451  0.0442
  208loPI   PO4 3316  14.714  16.924  10.227 -0.0416 -0.1660  0.3097
  208loPI   GL1 3317  14.968  16.994   9.808  0.0436  0.2033  0.0662
  208loPI   GL2 3318  15.263  17.031   9.896  0.1563  0.1219  0.2193
  208loPI   C1A 3319  14.811  16.823   9.378 -0.2381  0.2981 -0.0535
  208loPI   C2A 3320  14.636  16.845   8.864 -0.0816  0.0095 -0.0325
  208loPI   C3A 3321  14.843  16.853   8.464 -0.2115 -0.0197 -0.1680
  208loPI   C4A 3322  15.125  16.775   8.059 -0.1137 -0.2602  0.1948
  208loPI   C5A 3323  15.514  16.944   7.835  0.1306 -0.1864 -0.4217
  208loPI   C6A 3324  15.760  17.204   7.748 -0.1368  0.2022  0.1056
  208loPI   C1B 3325  15.307  16.913   9.444 -0.1217  0.1116  0.1337
  208loPI   C2B 3326  15.065  17.035   9.035  0.0996  0.1549 -0.0196
  208loPI   C3B 3327  14.974  17.301   8.621 -0.1908 -0.3333  0.0584
  208loPI   C4B 3328  14.997  17.298   8.195 -0.0260  0.0332 -0.1609
  209loPI    C1 3329   2.243   0.642  10.688 -0.1776 -0.0554 -0.3738
  209loPI    C2 3330   2.454   0.349  10.515 -0.1306 -0.1766 -0.1156
  209loPI    C3 3331   2.309   0.300  10.885 -0.0823  0.1442 -0.0515
  209loPI   PO4 3332   2.448   0.840  10.567  0.1238 -0.0748 -0.3307
  209loPI   GL1 3333   2.640   0.674  10.171  0.0928  0.0614  0.0046
  209loPI   GL2 3334   2.802   0.583   9.927 -0.0969 -0.0202  0.2493
  209loPI   C1A 3335   2.317   0.761   9.904  0.3698  0.1980  0.1575
  209loPI   C2A 3336   2.140   0.684   9.413 -0.2201  0.0991 -0.2419
  209loPI   C3A 3337   1.978   0.718   9.029  0.1381  0.1471  0.1228
  209loPI   C4A 3338   2.039   0.835   8.564  0.2804 -0.1418 -0.1359
  209loPI   C5A 3339   1.786   0.758   8.173 -0.1282 -0.0322 -0.2709
  209loPI   C6A 3340   1.589   0.693   7.845 -0.1735  0.1419  0.0669
  209loPI   C1B 3341   2.662   0.735   9.493 -0.1229 -0.0620 -0.2132
  209loPI   C2B 3342   2.511   0.602   8.997 -0.0846 -0.0672 -0.0664
  209loPI   C3B 3343   2.462   0.458   8.593  0.2142 -0.0694 -0.3390
  209loPI   C4B 3344   2.274   0.746   8.173  0.0590 -0.1481  0.0379
  210loPI    C1 3345   2.820  17.173  10.278 -0.1712  0.0179 -0.0599
  210loPI    C2 3346   2.892  17.147  10.670  0.0550 -0.0308 -0.1030
  210loPI    C3 3347   2.786  17.498  10.509  0.1751  0.0388 -0.0324
  210loPI   PO4 3348   3.010  16.983  10.204  0.0490 -0.1009 -0.2973
  210loPI   GL1 3349   3.121  16.767   9.919 -0.0508 -0.1216  0.0449
  210loPI   GL2 3350   3.344  16.626  10.082  0.1460  0.0400  0.0854
  210loPI   C1A 3351   3.160  16.943   9.513 -0.1072  0.1148  0.1461
  210loPI   C2A 3352   3.089  17.207   9.154 -0.0602 -0.1539  0.1054
  210loPI   C3A 3353   2.918  17.128   8.751 -0.1388  0.0972  0.1246
  210loPI   C4A 3354   2.963  16.770   8.551  0.0442 -0.2904 -0.1612
  210loPI   C5A 3355   3.058  16.406   8.542  0.0232  0.1107  0.1485
  210loPI   C6A 3356   3.094  15.970   8.500  0.0352  0.4807  0.0857
  210loPI   C1B 3357   3.533  16.625   9.706 -0.0410 -0.0183 -0.0792
  210loPI   C2B 3358   3.629  16.594   9.309  0.1761  0.0871 -0.2752
  210loPI   C3B 3359   3.926  16.454   9.194 -0.0046 -0.1007  0.3930
  210loPI   C4B 3360   4.109  16.436   8.787 -0.1801 -0.1508 -0.2348
  211loPI    C1 3361   3.928   8.932  10.115  0.2395 -0.0790 -0.0965
  211loPI    C2 3362   3.942   8.698  10.439 -0.0539  0.0017 -0.0225
  211loPI    C3 3363   4.173   9.024  10.418  0.1878 -0.1669 -0.0274
  211loPI   PO4 3364   3.689   8.978  10.023  0.1798 -0.1966 -0.4430
  211loPI   GL1 3365   3.460   8.924   9.707 -0.0968  0.3161  0.0316
  211loPI   GL2 3366   3.648   8.628   9.623  0.0761 -0.1990  0.2215
  211loPI   C1A 3367   3.375   9.091   9.415  0.1673 -0.0294  0.2287
  211loPI   C2A 3368   3.328   9.190   8.934  0.2420  0.1038 -0.1471
  211loPI   C3A 3369   3.038   9.135   8.616 -0.0610 -0.0759 -0.0831
  211loPI   C4A 3370   2.851   9.204   8.318  0.1323  0.0002 -0.0689
  211loPI   C5A 3371   2.506   9.191   8.109  0.1956  0.0070  0.1371
  211loPI   C6A 3372   2.110   9.149   7.935 -0.2598  0.1453  0.1157
  211loPI   C1B 3373   3.561   8.703   9.210  0.0854  0.0438 -0.0745
  211loPI   C2B 3374   3.529   8.774   8.712 -0.1493  0.0262 -0.0811
  211loPI   C3B 3375   3.686   8.761   8.258  0.1079 -0.0679  0.0189
  211loPI   C4B 3376   3.824   8.880   7.888 -0.3432  0.0292  0.0904
  212loPI    C1 3377  12.091   5.121  10.737  0.0534 -0.1177  0.0579
  212loPI    C2 3378  11.795   5.115  11.006  0.0862 -0.1486  0.0933
  212loPI    C3 3379  12.159   5.243  11.112  0.0695 -0.0503  0.0331
  212loPI   PO4 3380  11.926   5.228  10.465 -0.1180 -0.0928  0.0647
  212loPI   GL1 3381  11.907   5.162  10.055 -0.1704 -0.0076  0.2406
  212loPI   GL2 3382  12.152   5.041   9.885 -0.2022  0.0583  0.0674
  212loPI   C1A 3383  11.913   4.993   9.520 -0.2558  0.1249  0.1958
  212loPI   C2A 3384  11.856   5.055   9.025  0.0590 -0.1142  0.0214
  212loPI   C3A 3385  11.727   5.268   8.683  0.1063 -0.1450  0.1122
  212loPI   C4A 3386  11.701   5.402   8.269  0.0504 -0.2040  0.1176
  212loPI   C5A 3387  11.822   5.764   8.052 -0.1035 -0.1977 -0.0976
  212loPI   C6A 3388  11.945   6.235   8.173 -0.0381  0.2102  0.2361
  212loPI   C1B 3389  12.187   5.451   9.580 -0.0688  0.1265 -0.0270
  212loPI   C2B 3390  12.118   5.464   9.221 -0.3071  0.1979 -0.1295
  212loPI   C3B 3391  12.196   5.336   8.846  0.1077 -0.1418 -0.1671
  212loPI   C4B 3392  12.160   5.351   8.388 -0.2592  0.3924  0.1181
  213loPI    C1 3393  13.859  17.464  10.347 -0.0039  0.1690  0.0671
  213loPI    C2 3394  14.078  17.414  10.678  0.0403  0.2118  0.0446
  213loPI    C3 3395  13.728  17.606  10.697 -0.0769 -0.0052  0.1110
  213loPI   PO4 3396  13.745  17.246  10.280  0.0769 -0.0730  0.0576
  213loPI   GL1 3397  13.476  17.209   9.953  0.0177 -0.0122  0.0150
  213loPI   GL2 3398  13.384  17.513   9.892 -0.1440  0.1444  0.0792
  213loPI   C1A 3399  13.614  17.176   9.576  0.3891  0.2212  0.0478
  213loPI   C2A 3400  13.624  17.244   9.129 -0.0961 -0.2009  0.3822
  213loPI   C3A 3401  13.453  17.194   8.760 -0.0481 -0.2430 -0.0674
  213loPI   C4A 3402  13.287  17.057   8.345 -0.2114 -0.0846  0.1849
  213loPI   C5A 3403  13.196  16.616   8.139  0.1181  0.1736  0.0630
  213loPI   C6A 3404  12.968  16.387   7.821 -0.0350  0.2200 -0.1380
  213loPI   C1B 3405  13.621  17.736   9.577 -0.2045  0.0015  0.0867
  213loPI   C2B 3406  13.891  17.683   9.215 -0.2120 -0.1233 -0.1602
  213loPI   C3B 3407  13.981  17.562   8.839  0.0108 -0.0869  0.1950
  213loPI   C4B 3408  14.160  17.543   8.396  0.0252  0.2436 -0.2534
  214loPI    C1 3409  10.095  15.778  10.343 -0.2560 -0.0669 -0.1418
  214loPI    C2 3410   9.886  15.495  10.153  0.1215 -0.2326 -0.3210
  214loPI    C3 3411  10.161  15.392  10.425 -0.1539 -0.0099  0.0513
  214loPI   PO4 3412  10.176  15.966  10.074  0.0956 -0.0633  0.1066
  214loPI   GL1 3413  10.173  15.975   9.629 -0.0790 -0.3477 -0.0206
  214loPI   GL2 3414   9.843  16.231   9.509 -0.0130 -0.0896 -0.1976
  214loPI   C1A 3415  10.128  15.826   9.201 -0.1085  0.0229 -0.1188
  214loPI   C2A 3416  10.112  15.583   8.885 -0.3874  0.0184 -0.1001
  214loPI   C3A 3417   9.947  15.649   8.446 -0.1142  0.1001 -0.2041
  214loPI   C4A 3418   9.912  15.674   8.034 -0.1504  0.3362  0.2297
  214loPI   C5A 3419   9.656  15.643   7.622 -0.0701  0.0104 -0.1120
  214loPI   C6A 3420   9.406  15.619   7.254 -0.3234 -0.0356 -0.4196
  214loPI   C1B 3421   9.929  16.307   9.127  0.0792 -0.0085 -0.1048
  214loPI   C2B 3422   9.907  16.242   8.706 -0.1447 -0.1300 -0.2435
  214loPI   C3B 3423   9.997  16.264   8.317  0.1155 -0.1877 -0.2094
  214loPI   C4B 3424   9.840  16.178   7.970 -0.3665 -0.0977  0.1380
  215loPI    C1 3425  13.282  10.072   9.855 -0.2344 -0.0627  0.1711
  215loPI    C2 3426  13.498  10.001   9.526 -0.1959  0.1350  0.1522
  215loPI    C3 3427  13.655   9.930   9.888 -0.2010  0.0150  0.1315
  215loPI   PO4 3428  13.091  10.274   9.697 -0.0469  0.0323 -0.1555
  215loPI   GL1 3429  13.107  10.185   9.314  0.0518  0.1902 -0.0077
  215loPI   GL2 3430  13.067   9.820   9.396 -0.0138 -0.1178  0.0696
  215loPI   C1A 3431  13.218   9.955   8.924  0.1707  0.0254  0.1520
  215loPI   C2A 3432  13.286   9.971   8.525  0.0244 -0.3722 -0.2315
  215loPI   C3A 3433  13.139  10.015   8.150 -0.0955 -0.1889  0.3157
  215loPI   C4A 3434  13.289   9.968   7.738  0.0484  0.3641 -0.0955
  215loPI   C5A 3435  13.297   9.660   7.453  0.3097  0.2960 -0.2049
  215loPI   C6A 3436  13.453   9.276   7.531 -0.2589 -0.2875  0.2445
  215loPI   C1B 3437  12.769   9.823   9.095 -0.1085 -0.1391 -0.1662
  215loPI   C2B 3438  12.765   9.720   8.693 -0.0209 -0.4532  0.0791
  215loPI   C3B 3439  12.711   9.682   8.274  0.1300  0.0853 -0.0883
  215loPI   C4B 3440  12.820   9.711   7.896 -0.2330  0.2980 -0.0051
  216loPI    C1 3441   1.783   2.850  10.644 -0.0267 -0.0896 -0.0653
  216loPI    C2 3442   2.180   2.805  10.619 -0.0460 -0.1985 -0.1879
  216loPI    C3 3443   2.009   2.891  10.971  0.0859 -0.1519 -0.1347
  216loPI   PO4 3444   1.708   2.674  10.483  0.0647  0.0319  0.1075
  216loPI   GL1 3445   1.693   2.504  10.096 -0.5100  0.4980 -0.0800
  216loPI   GL2 3446   1.380   2.488  10.019  0.3420 -0.3897 -0.0159
  216loPI   C1A 3447   1.846   2.799   9.680 -0.2688  0.2255 -0.2910
  216loPI   C2A 3448   2.011   3.173   9.517 -0.0375 -0.2530 -0.3886
  216loPI   C3A 3449   2.164   3.446   9.153 -0.3324 -0.0038  0.0298
  216loPI   C4A 3450   2.232   3.345   8.722 -0.3461  0.1539 -0.0367
  216loPI   C5A 3451   2.227   3.187   8.289  0.1279  0.0448  0.0500
  216loPI   C6A 3452   1.875   3.120   8.146  0.2207  0.1870  0.1415
  216loPI   C1B 3453   1.485   2.360   9.528 -0.2203 -0.2497  0.2014
  216loPI   C2B 3454   1.821   2.293   9.506  0.1533 -0.0509  0.0717
  216loPI   C3B 3455   1.969   2.175   9.235 -0.0955  0.0052  0.0837
  216loPI   C4B 3456   1.800   1.816   8.927  0.0205 -0.0945  0.3516
  217loPI    C1 3457   0.907  18.005  10.922  0.2107  0.0222 -0.0270
  217loPI    C2 3458   0.613  17.819  11.119  0.2315  0.0124 -0.0048
  217loPI    C3 3459   0.985  17.812  11.263  0.2486 -0.0023 -0.0495
  217loPI   PO4 3460   0.810  17.912  10.638 -0.1926 -0.4167 -0.0293
  217loPI   GL1 3461   0.761  17.998  10.264 -0.2145 -0.0137 -0.3138
  217loPI   GL2 3462   0.438  17.863  10.157  0.1075 -0.0269  0.2727
  217loPI   C1A 3463   0.893  18.122   9.853 -0.2888  0.1361  0.0620
  217loPI   C2A 3464   0.780  18.287   9.451  0.2275  0.2690 -0.1333
  217loPI   C3A 3465   0.672  18.464   9.118  0.0114  0.1494  0.2535
  217loPI   C4A 3466   0.613  18.815   8.852 -0.0425  0.1671  0.1623
  217loPI   C5A 3467   0.358  19.116   8.668 -0.1701  0.1543 -0.0416
  217loPI   C6A 3468  -0.000  19.359   8.650  0.0905 -0.1003  0.0828
  217loPI   C1B 3469   0.083  17.814   9.841  0.0457 -0.2483 -0.0357
  217loPI   C2B 3470   0.025  17.797   9.489  0.2502  0.1954  0.0297
  217loPI   C3B 3471  -0.022  17.856   9.077  0.3620 -0.3678  0.2530
  217loPI   C4B 3472   0.071  17.773   8.694 -0.0662 -0.2366 -0.0405
  218loPI    C1 3473   0.324   2.118  10.951  0.1869 -0.0418 -0.4249
  218loPI    C2 3474   0.014   2.331  10.813 -0.0821  0.1140  0.3698
  218loPI    C3 3475  -0.048   2.031  11.071  0.3896 -0.2406  0.0874
  218loPI   PO4 3476   0.496   1.924  10.711  0.0296 -0.1208 -0.0550
  218loPI   GL1 3477   0.466   1.936  10.301 -0.3533 -0.3941 -0.2569
  218loPI   GL2 3478   0.086   2.038  10.267  0.2308 -0.1067  0.1053
  218loPI   C1A 3479   0.634   2.220  10.056 -0.0995  0.2253  0.0096
  218loPI   C2A 3480   0.625   2.385   9.678 -0.1776  0.0575 -0.0069
  218loPI   C3A 3481   0.652   2.673   9.343 -0.4306  0.2877  0.2524
  218loPI   C4A 3482   0.390   2.684   8.935 -0.3607  0.0189 -0.1566
  218loPI   C5A 3483   0.139   2.831   8.554  0.1194  0.3335 -0.1640
  218loPI   C6A 3484   0.108   3.003   8.108  0.1410 -0.3092  0.1998
  218loPI   C1B 3485   0.270   1.768   9.954  0.0032 -0.0409  0.0396
  218loPI   C2B 3486   0.472   1.759   9.584  0.1947 -0.0009 -0.1067
  218loPI   C3B 3487   0.514   1.326   9.484  0.1497 -0.0848  0.0564
  218loPI   C4B 3488   0.311   0.979   9.365 -0.0301  0.2136 -0.0696
  219loPI    C1 3489   1.727  13.593  10.624 -0.2957  0.3659 -0.0207
  219loPI    C2 3490   1.987  13.769  10.872  0.0049  0.0521 -0.1050
  219loPI    C3 3491   1.710  13.520  11.017  0.0860 -0.0171 -0.0681
  219loPI   PO4 3492   1.889  13.496  10.442 -0.1108 -0.4069 -0.1506
  219loPI   GL1 3493   1.985  13.648   9.994 -0.1240  0.0089  0.0670
  219loPI   GL2 3494   2.297  13.418   9.824 -0.2348 -0.1684 -0.0504
  219loPI   C1A 3495   1.913  13.597   9.513 -0.1279  0.3299  0.2222
  219loPI   C2A 3496   1.763  13.631   9.178  0.3732  0.2188 -0.2569
  219loPI   C3A 3497   1.742  13.752   8.783  0.3381  0.2309 -0.4002
  219loPI   C4A 3498   1.492  13.751   8.359 -0.0824 -0.1264 -0.0109
  219loPI   C5A 3499   1.047  13.903   8.341  0.1593  0.0702  0.1709
  219loPI   C6A 3500   0.767  14.165   8.204 -0.2060  0.3052  0.3595
  219loPI   C1B 3501   2.435  13.553   9.458 -0.1850  0.0063 -0.0651
  219loPI   C2B 3502   2.203  13.430   9.161 -0.0127 -0.1632  0.1973
  219loPI   C3B 3503   2.012  13.323   8.854 -0.0734  0.1737  0.1772
  219loPI   C4B 3504   1.970  12.948   8.558 -0.3052 -0.0852  0.0592
  220loPI    C1 3505  14.202  14.145   9.917  0.0377  0.0411 -0.0718
  220loPI    C2 3506  14.334  14.284   9.565  0.1167  0.1008 -0.0190
  220loPI    C3 3507  14.577  14.279   9.883  0.0821 -0.0620  0.0061
  220loPI   PO4 3508  13.955  14.291   9.931  0.3346  0.1054 -0.2702
  220loPI   GL1 3509  13.867  14.352   9.518  0.1711 -0.0572  0.1479
  220loPI   GL2 3510  13.749  14.705   9.466 -0.1307 -0.1843  0.0372
  220loPI   C1A 3511  14.142  14.084   9.186  0.4236  0.2446  0.1662
  220loPI   C2A 3512  13.877  14.005   8.752 -0.2743 -0.0655 -0.2011
  220loPI   C3A 3513  13.669  14.044   8.462 -0.3785 -0.3294 -0.0930
  220loPI   C4A 3514  13.444  13.924   8.125  0.1882 -0.1310 -0.1094
  220loPI   C5A 3515  13.124  14.102   7.942  0.1931 -0.1808  0.0472
  220loPI   C6A 3516  12.685  14.117   7.976  0.2136  0.1742 -0.0401
  220loPI   C1B 3517  13.876  14.912   9.174 -0.3021  0.1274  0.1797
  220loPI   C2B 3518  13.967  14.928   8.697 -0.2248  0.1537 -0.5346
  220loPI   C3B 3519  14.319  14.785   8.414  0.0614 -0.1487  0.1897
  220loPI   C4B 3520  14.573  14.924   8.006  0.1630 -0.1403 -0.1293
  221loPI    C1 3521  13.818  13.057  10.275  0.3744 -0.4866  0.2554
  221loPI    C2 3522  14.103  13.304  10.406 -0.0039  0.2017 -0.1581
  221loPI    C3 3523  13.762  13.266  10.611  0.1038 -0.0914 -0.0268
  221loPI   PO4 3524  13.776  13.075  10.006  0.2911 -0.3576 -0.0553
  221loPI   GL1 3525  13.790  13.097   9.545 -0.0520 -0.2230 -0.2890
  221loPI   GL2 3526  13.512  12.890   9.621 -0.2092 -0.1034 -0.1746
  221loPI   C1A 3527  13.967  13.240   9.093  0.1170  0.0742 -0.1722
  221loPI   C2A 3528  13.849  13.464   8.755  0.2895 -0.2988 -0.0487
  221loPI   C3A 3529  13.962  13.621   8.361 -0.0284 -0.0350 -0.0313
  221loPI   C4A 3530  13.865  13.646   7.913  0.1428 -0.0882 -0.2679
  221loPI   C5A 3531  13.545  13.913   7.658 -0.0364 -0.3002 -0.0453
  221loPI   C6A 3532  13.315  14.132   7.482 -0.0375 -0.1260 -0.0228
  221loPI   C1B 3533  13.476  12.833   9.138 -0.0726  0.0472  0.0785
  221loPI   C2B 3534  13.729  12.920   8.776  0.1277  0.1010 -0.0476
  221loPI   C3B 3535  13.613  13.103   8.433 -0.1578  0.2657 -0.1087
  221loPI   C4B 3536  13.673  13.030   7.981 -0.0863  0.0023  0.0080
  222loPI    C1 3537   7.807  16.532  10.499 -0.1109 -0.0309 -0.1583
  222loPI    C2 3538   7.575  16.248  10.659  0.3307 -0.2280  0.1536
  222loPI    C3 3539   7.622  16.597  10.848  0.3666 -0.2263  0.1417
  222loPI   PO4 3540   7.810  16.531  10.271  0.0052  0.0757 -0.2487
  222loPI   GL1 3541   7.596  16.620   9.902 -0.3508 -0.3734 -0.0417
  222loPI   GL2 3542   7.376  16.664   9.832 -0.1877  0.1398 -0.1201
  222loPI   C1A 3543   7.969  16.612   9.618 -0.0302 -0.3420 -0.0279
  222loPI   C2A 3544   7.989  16.476   9.219 -0.1690  0.0312  0.0935
  222loPI   C3A 3545   7.968  16.070   9.041 -0.0616  0.3556  0.0672
  222loPI   C4A 3546   8.022  16.012   8.558  0.0150 -0.2061 -0.0745
  222loPI   C5A 3547   8.260  15.727   8.250 -0.2779 -0.2378  0.1451
  222loPI   C6A 3548   8.476  15.734   7.826  0.0771  0.1724  0.0756
  222loPI   C1B 3549   7.291  16.610   9.484 -0.1237 -0.2008 -0.1691
  222loPI   C2B 3550   7.036  16.773   9.092 -0.1083 -0.0445 -0.0809
  222loPI   C3B 3551   6.793  17.029   9.165 -0.0097 -0.0661  0.1668
  222loPI   C4B 3552   6.839  16.959   9.618 -0.3952  0.0193  0.1580
  223loPI    C1 3553   4.591   4.726  10.334  0.0840 -0.1043 -0.0594
  223loPI    C2 3554   4.373   4.790  10.663 -0.0432 -0.1768 -0.1290
  223loPI    C3 3555   4.772   4.817  10.679 -0.0637  0.0940 -0.0329
  223loPI   PO4 3556   4.507   4.512  10.220  0.1732  0.1429  0.0439
  223loPI   GL1 3557   4.483   4.190   9.828 -0.0167 -0.0001 -0.0010
  223loPI   GL2 3558   4.677   3.956   9.778 -0.0155 -0.0107 -0.1526
  223loPI   C1A 3559   4.468   4.107   9.370  0.1872 -0.1273 -0.2371
  223loPI   C2A 3560   4.839   4.080   9.072 -0.1079 -0.1782  0.1026
  223loPI   C3A 3561   4.968   4.275   8.752  0.1305 -0.1225  0.0022
  223loPI   C4A 3562   5.115   4.133   8.446  0.1801  0.3439 -0.0007
  223loPI   C5A 3563   5.310   3.756   8.301  0.0395 -0.4708  0.0398
  223loPI   C6A 3564   5.646   3.501   8.179  0.1852 -0.1694 -0.1145
  223loPI   C1B 3565   4.774   3.717   9.429  0.1658  0.3940  0.0723
  223loPI   C2B 3566   4.583   3.296   9.292  0.0569  0.0000 -0.0415
  223loPI   C3B 3567   4.199   3.252   9.117 -0.0379 -0.1383  0.1791
  223loPI   C4B 3568   3.969   2.946   8.761 -0.0830 -0.2210  0.0322
  224loPI    C1 3569   1.471  17.310  10.539  0.1142 -0.0107 -0.0485
  224loPI    C2 3570   1.842  17.379  10.671  0.1439 -0.0800 -0.0952
  224loPI    C3 3571   1.564  17.236  10.921  0.1741 -0.1182 -0.0835
  224loPI   PO4 3572   1.548  17.234  10.253 -0.0725 -0.2289 -0.1866
  224loPI   GL1 3573   1.735  17.253   9.848  0.0259 -0.1230  0.1721
  224loPI   GL2 3574   1.734  17.546   9.877 -0.2213  0.1845  0.0948
  224loPI   C1A 3575   1.487  17.293   9.532  0.0246  0.1926  0.2749
  224loPI   C2A 3576   1.197  17.347   9.101  0.0662  0.0206 -0.2101
  224loPI   C3A 3577   1.147  17.542   8.698 -0.0349  0.1325 -0.0593
  224loPI   C4A 3578   0.971  17.369   8.309  0.1257 -0.1372  0.2219
  224loPI   C5A 3579   0.895  17.016   8.245 -0.0580  0.1354  0.0964
  224loPI   C6A 3580   0.681  16.690   8.519 -0.2287  0.0164 -0.1861
  224loPI   C1B 3581   1.782  17.681   9.483 -0.3801 -0.0580 -0.2025
  224loPI   C2B 3582   2.020  17.763   9.089  0.2508 -0.2492 -0.1928
  224loPI   C3B 3583   2.102  17.861   8.645  0.0090  0.0329  0.0717
  224loPI   C4B 3584   1.921  18.100   8.259 -0.0681  0.0964 -0.1298
  225loPI    C1 3585  10.778   3.858   9.958 -0.1508  0.1444 -0.0570
  225loPI    C2 3586  10.999   3.959  10.276  0.1496  0.0868 -0.2435
  225loPI    C3 3587  10.648   3.775  10.327  0.2968 -0.1202  0.0493
  225loPI   PO4 3588  10.870   4.142   9.742 -0.1704  0.0805  0.1521
  225loPI   GL1 3589  11.311   4.146   9.582 -0.0157 -0.1882  0.2346
  225loPI   GL2 3590  11.253   3.824   9.675  0.2162  0.2805  0.1298
  225loPI   C1A 3591  11.244   4.288   9.185  0.0140 -0.2037  0.1533
  225loPI   C2A 3592  10.898   4.599   9.036 -0.2988 -0.0854 -0.1063
  225loPI   C3A 3593  10.875   4.914   8.665 -0.2246  0.0958  0.2475
  225loPI   C4A 3594  10.905   4.846   8.204 -0.0074  0.2421  0.1635
  225loPI   C5A 3595  11.179   4.678   7.876 -0.0829  0.0204 -0.1993
  225loPI   C6A 3596  11.460   4.684   7.669  0.3307 -0.1023 -0.2473
  225loPI   C1B 3597  11.429   3.789   9.269 -0.1509 -0.1166 -0.2309
  225loPI   C2B 3598  11.381   3.799   8.847  0.1306 -0.0204  0.0303
  225loPI   C3B 3599  11.545   3.799   8.386 -0.3176 -0.0856  0.2510
  225loPI   C4B 3600  11.294   4.082   8.100  0.2178  0.0141  0.0050
  226loPI    C1 3601   5.300   6.314  10.293  0.2268 -0.1320  0.0737
  226loPI    C2 3602   4.975   6.435  10.492  0.2356  0.0389 -0.0132
  226loPI    C3 3603   5.338   6.483  10.654  0.2334  0.0544 -0.0127
  226loPI   PO4 3604   5.331   6.406  10.088 -0.4014  0.0710 -0.1724
  226loPI   GL1 3605   5.523   6.458   9.612 -0.0936  0.1676  0.1863
  226loPI   GL2 3606   5.422   6.105   9.717 -0.0882 -0.2474 -0.4781
  226loPI   C1A 3607   5.464   6.318   9.173  0.2469 -0.1996 -0.0139
  226loPI   C2A 3608   5.274   6.276   8.817  0.1503 -0.3604  0.0685
  226loPI   C3A 3609   5.458   6.110   8.480 -0.0461 -0.1783  0.0085
  226loPI   C4A 3610   5.434   6.158   8.035 -0.0090  0.0206  0.0142
  226loPI   C5A 3611   5.199   6.005   7.754 -0.1706  0.1222 -0.0128
  226loPI   C6A 3612   4.706   6.003   7.697  0.0154 -0.0217 -0.1678
  226loPI   C1B 3613   5.398   5.895   9.394  0.1802 -0.1880  0.3203
  226loPI   C2B 3614   5.374   5.577   9.307 -0.0634 -0.0506  0.0200
  226loPI   C3B 3615   5.659   5.407   8.953 -0.0116  0.0658  0.0139
  226loPI   C4B 3616   5.774   5.304   8.547 -0.2893  0.2676  0.6270
  227loPI    C1 3617  15.839   2.616  10.541  0.2628 -0.0235  0.0840
  227loPI    C2 3618  16.100   2.438  10.786  0.2424 -0.0189  0.1091
  227loPI    C3 3619  15.719   2.316  10.777  0.2222  0.0411  0.1457
  227loPI   PO4 3620  16.032   2.787  10.447 -0.1233 -0.1225  0.1024
  227loPI   GL1 3621  15.850   3.127  10.259 -0.1685 -0.2767  0.1646
  227loPI   GL2 3622  16.011   2.963   9.961  0.0440 -0.0636 -0.4969
  227loPI   C1A 3623  15.845   3.441  10.012 -0.2744 -0.2120  0.0381
  227loPI   C2A 3624  15.755   3.629   9.626  0.0568 -0.0842 -0.0639
  227loPI   C3A 3625  15.759   3.731   9.230  0.2623 -0.2212  0.2698
  227loPI   C4A 3626  15.559   3.838   8.773  0.2424 -0.0512  0.0177
  227loPI   C5A 3627  15.111   3.954   8.367 -0.3200  0.1310  0.0815
  227loPI   C6A 3628  14.652   3.998   8.075  0.0753  0.0772 -0.0201
  227loPI   C1B 3629  15.598   2.900   9.805 -0.1175 -0.2303  0.2488
  227loPI   C2B 3630  15.251   2.826   9.451  0.0048  0.1572 -0.4371
  227loPI   C3B 3631  15.119   3.029   9.129  0.0394 -0.0367 -0.0721
  227loPI   C4B 3632  15.317   2.823   8.748 -0.1387  0.1282  0.0964
  228loPI    C1 3633   0.489   9.086  10.634 -0.2705  0.0571 -0.0876
  228loPI    C2 3634   0.407   8.938  10.997  0.4368 -0.1479  0.0047
  228loPI    C3 3635   0.565   9.303  10.961  0.1298 -0.0237 -0.1219
  228loPI   PO4 3636   0.578   8.815  10.536  0.2422 -0.4107  0.3662
  228loPI   GL1 3637   0.534   8.783  10.069 -0.0383 -0.1069  0.0657
  228loPI   GL2 3638   0.635   8.635   9.897  0.1640 -0.0611 -0.0672
  228loPI   C1A 3639   0.562   9.218   9.776 -0.1853  0.0246  0.2422
  228loPI   C2A 3640   0.773   9.231   9.395  0.0681  0.1504  0.1263
  228loPI   C3A 3641   0.807   9.211   8.979  0.1444  0.0379 -0.3274
  228loPI   C4A 3642   0.800   9.245   8.708  0.1811  0.1098 -0.0206
  228loPI   C5A 3643   0.599   9.179   8.301 -0.1528  0.0277  0.2105
  228loPI   C6A 3644   0.450   9.308   7.887 -0.2139  0.0673  0.2020
  228loPI   C1B 3645   0.645   8.756   9.512 -0.0641  0.1368 -0.1602
  228loPI   C2B 3646   0.575   8.783   9.076 -0.0205  0.0744 -0.0206
  228loPI   C3B 3647   0.312   9.023   8.758 -0.0896  0.2508 -0.3758
  228loPI   C4B 3648   0.090   9.119   8.355  0.1174 -0.0796  0.3328
  229loPI    C1 3649   8.856  10.581  10.692  0.1921 -0.1436 -0.1086
  229loPI    C2 3650   9.249  10.565  10.765  0.1693  0.0053  0.0548
  229loPI    C3 3651   9.046  10.230  10.685  0.3510 -0.0576 -0.1514
  229loPI   PO4 3652   8.853  10.757  10.428  0.2884 -0.1146 -0.4078
  229loPI   GL1 3653   8.858  10.692   9.995  0.3392  0.2439  0.2278
  229loPI   GL2 3654   9.114  10.809   9.860 -0.1639  0.0500  0.2477
  229loPI   C1A 3655   8.635  10.552   9.620  0.0109 -0.0495 -0.0159
  229loPI   C2A 3656   8.811  10.524   9.208 -0.1837 -0.1305  0.3198
  229loPI   C3A 3657   8.802  10.572   8.795 -0.0472  0.2977  0.1025
  229loPI   C4A 3658   8.710  10.909   8.558 -0.2694 -0.0168 -0.4296
  229loPI   C5A 3659   8.314  11.210   8.683 -0.0153  0.0872  0.3855
  229loPI   C6A 3660   8.045  11.412   8.296  0.1266  0.2746 -0.2801
  229loPI   C1B 3661   9.126  10.742   9.471  0.0703  0.0122  0.1409
  229loPI   C2B 3662   9.275  10.799   9.193  0.2311  0.1609 -0.0736
  229loPI   C3B 3663   9.636  10.765   8.920  0.0813 -0.4199  0.5623
  229loPI   C4B 3664   9.848  10.700   8.563 -0.1151 -0.5716 -0.3144
  230loPI    C1 3665  15.398   8.667   9.988 -0.0624 -0.0501  0.1159
  230loPI    C2 3666  15.068   8.461  10.082 -0.0078 -0.2117 -0.0404
  230loPI    C3 3667  15.279   8.642  10.369 -0.1338 -0.2570  0.0818
  230loPI   PO4 3668  15.406   8.648   9.750 -0.0362 -0.0765  0.1192
  230loPI   GL1 3669  15.562   8.703   9.282 -0.0346  0.1409  0.0695
  230loPI   GL2 3670  15.643   9.004   9.336 -0.0090 -0.1152 -0.1075
  230loPI   C1A 3671  15.663   8.609   8.687 -0.3679  0.2357 -0.0639
  230loPI   C2A 3672  15.865   8.527   8.244 -0.1819 -0.0569 -0.0083
  230loPI   C3A 3673  15.871   8.479   7.754  0.0031 -0.0874  0.3221
  230loPI   C4A 3674  15.534   8.214   7.487  0.0850  0.2238  0.1607
  230loPI   C5A 3675  15.035   8.182   7.482 -0.1933  0.2053  0.1581
  230loPI   C6A 3676  14.739   7.921   7.545 -0.2311 -0.0282 -0.1544
  230loPI   C1B 3677  15.789   9.052   8.948  0.2008  0.0782 -0.1239
  230loPI   C2B 3678  15.793   9.210   8.548 -0.1737 -0.0833  0.3902
  230loPI   C3B 3679  15.924   9.073   8.077  0.1631  0.1587 -0.4535
  230loPI   C4B 3680  15.928   8.980   7.664 -0.2967  0.0269 -0.0581
  231loPI    C1 3681   5.879   4.629  10.246 -0.0380  0.2622 -0.3059
  231loPI    C2 3682   5.479   4.629  10.264 -0.0322  0.1310 -0.1556
  231loPI    C3 3683   5.688   4.907  10.461 -0.0441  0.0926 -0.0886
  231loPI   PO4 3684   5.905   4.591  10.020  0.0738 -0.1465 -0.4578
  231loPI   GL1 3685   5.837   4.200   9.825  0.1312  0.3330 -0.2883
  231loPI   GL2 3686   6.171   4.252   9.818 -0.1366 -0.1525  0.0700
  231loPI   C1A 3687   5.832   3.898   9.530  0.0267  0.2762  0.1878
  231loPI   C2A 3688   5.838   3.890   9.165 -0.3201 -0.0126 -0.0475
  231loPI   C3A 3689   5.777   3.809   8.756  0.1162  0.0869 -0.0577
  231loPI   C4A 3690   6.001   3.555   8.516  0.1290  0.1222 -0.0705
  231loPI   C5A 3691   6.128   3.538   8.060 -0.1158  0.0555 -0.1285
  231loPI   C6A 3692   6.300   3.219   7.806  0.2858 -0.0160 -0.0872
  231loPI   C1B 3693   6.130   4.281   9.388  0.0624 -0.1133 -0.0527
  231loPI   C2B 3694   6.146   4.206   8.917  0.0858 -0.0662  0.2394
  231loPI   C3B 3695   6.043   4.112   8.480 -0.1085  0.1051  0.2196
  231loPI   C4B 3696   6.202   4.472   8.258 -0.5536  0.2643 -0.0893
  232loPI    C1 3697   7.168  17.788  10.672 -0.0165  0.2017 -0.1595
  232loPI    C2 3698   7.192  17.559  11.000 -0.2392 -0.0848 -0.3381
  232loPI    C3 3699   7.498  17.573  10.743 -0.0737  0.1216 -0.1338
  232loPI   PO4 3700   6.944  17.686  10.514 -0.2196 -0.0961 -0.1839
  232loPI   GL1 3701   6.741  17.680  10.055 -0.2024 -0.2024 -0.2484
  232loPI   GL2 3702   7.059  17.858  10.016 -0.0443  0.0946  0.0269
  232loPI   C1A 3703   6.376  17.480   9.842 -0.2543 -0.0611  0.0931
  232loPI   C2A 3704   6.099  17.402   9.542 -0.2647  0.0635  0.0851
  232loPI   C3A 3705   6.102  17.499   9.074  0.1217 -0.1251  0.0643
  232loPI   C4A 3706   6.120  17.308   8.674  0.1475  0.2441  0.0179
  232loPI   C5A 3707   6.486  17.045   8.661 -0.0837 -0.2840 -0.2817
  232loPI   C6A 3708   6.897  16.815   8.528  0.2831  0.1000  0.0144
  232loPI   C1B 3709   6.707  17.883   9.562 -0.0965 -0.1347 -0.4163
  232loPI   C2B 3710   6.530  18.038   9.148 -0.0284  0.2700  0.1449
  232loPI   C3B 3711   6.462  18.090   8.678 -0.0722 -0.0496 -0.0895
  232loPI   C4B 3712   6.088  17.821   8.546 -0.2469 -0.0336 -0.2162
  233loPI    C1 3713   6.452  15.587  10.600 -0.2130  0.0124 -0.0253
  233loPI    C2 3714   6.437  15.332  10.908  0.0071  0.0033 -0.0208
  233loPI    C3 3715   6.405  15.725  10.973  0.2073  0.0120  0.0330
  233loPI   PO4 3716   6.234  15.514  10.479 -0.1159 -0.0119  0.0725
  233loPI   GL1 3717   6.238  15.416  10.074  0.0517  0.2383 -0.1415
  233loPI   GL2 3718   6.626  15.245  10.028  0.0661 -0.0527  0.1601
  233loPI   C1A 3719   6.166  15.237   9.651 -0.3268  0.0875 -0.3533
  233loPI   C2A 3720   6.155  15.144   9.206 -0.1966  0.0369  0.0672
  233loPI   C3A 3721   6.167  15.283   8.755  0.1582 -0.2432 -0.4266
  233loPI   C4A 3722   6.212  15.373   8.351  0.1845 -0.0175 -0.2574
  233loPI   C5A 3723   6.225  15.411   7.927 -0.0347 -0.1787  0.1216
  233loPI   C6A 3724   6.236  15.738   7.650  0.1417 -0.4583  0.1887
  233loPI   C1B 3725   6.606  15.456   9.525 -0.3215  0.2550 -0.1771
  233loPI   C2B 3726   6.619  15.464   9.036  0.0549 -0.0784  0.3734
  233loPI   C3B 3727   6.597  15.471   8.645  0.2551 -0.0100 -0.0397
  233loPI   C4B 3728   6.701  15.533   8.193  0.1843 -0.0799 -0.0665
  234loPI    C1 3729   7.426   8.893  10.042  0.0083  0.3041 -0.0178
  234loPI    C2 3730   7.695   8.622   9.921 -0.2290  0.1103 -0.1198
  234loPI    C3 3731   7.584   8.636  10.305 -0.0306  0.2313 -0.0653
  234loPI   PO4 3732   7.223   8.930   9.727  0.0384  0.1180 -0.1981
  234loPI   GL1 3733   7.006   8.793   9.470 -0.3991  0.2038  0.2436
  234loPI   GL2 3734   6.845   8.448   9.507  0.0287  0.1637  0.2496
  234loPI   C1A 3735   6.818   8.988   9.159  0.3285 -0.1273  0.0089
  234loPI   C2A 3736   6.700   9.150   8.807 -0.1299  0.0633  0.0493
  234loPI   C3A 3737   6.582   9.172   8.351  0.1578 -0.0348 -0.1129
  234loPI   C4A 3738   6.855   9.237   8.018  0.0104  0.1952 -0.2372
  234loPI   C5A 3739   7.338   9.269   7.767 -0.0319 -0.1052  0.2656
  234loPI   C6A 3740   7.650   9.239   7.493  0.2192 -0.2826 -0.3162
  234loPI   C1B 3741   6.815   8.491   9.041  0.1560 -0.0440 -0.1022
  234loPI   C2B 3742   6.648   8.675   8.772  0.1608  0.1423 -0.1490
  234loPI   C3B 3743   6.666   8.680   8.285 -0.0172  0.2547  0.1369
  234loPI   C4B 3744   6.370   8.927   7.998  0.0994 -0.2484  0.0841
  235loPI    C1 3745  12.911  17.299   9.976  0.0552  0.2764  0.1020
  235loPI    C2 3746  12.544  17.454   9.940 -0.0095  0.1048  0.0124
  235loPI    C3 3747  12.655  17.282  10.283 -0.0570  0.0454 -0.0017
  235loPI   PO4 3748  12.997  17.149   9.836  0.1892 -0.1582 -0.2416
  235loPI   GL1 3749  13.063  17.199   9.501  0.1671 -0.1187  0.0324
  235loPI   GL2 3750  12.744  17.438   9.434  0.1944  0.1229  0.0838
  235loPI   C1A 3751  13.045  17.217   9.067  0.1075 -0.0700  0.2235
  235loPI   C2A 3752  12.891  17.305   8.691 -0.5444 -0.1750 -0.1940
  235loPI   C3A 3753  12.839  17.351   8.257  0.2075 -0.0845  0.1550
  235loPI   C4A 3754  12.621  17.346   7.800  0.4603  0.1243  0.0752
  235loPI   C5A 3755  12.479  17.465   7.392  0.0485 -0.0225  0.4746
  235loPI   C6A 3756  12.516  17.785   6.974 -0.2543 -0.1703 -0.0150
  235loPI   C1B 3757  12.803  17.651   8.994  0.1114 -0.4341  0.3453
  235loPI   C2B 3758  12.701  17.842   8.606 -0.2101 -0.1089  0.1470
  235loPI   C3B 3759  12.581  17.819   8.205 -0.0974  0.0848  0.2819
  235loPI   C4B 3760  12.546  17.845   7.780 -0.1366 -0.1782 -0.0046
  236loPI    C1 3761  11.778   6.101  10.332  0.4608  0.2509  0.3174
  236loPI    C2 3762  11.485   5.935  10.547  0.1652  0.3308 -0.0146
  236loPI    C3 3763  11.828   5.738  10.491  0.0977  0.1470  0.2038
  236loPI   PO4 3764  11.660   6.102  10.077  0.4343 -0.0181 -0.3239
  236loPI   GL1 3765  11.762   6.167   9.694 -0.0742  0.1986  0.0278
  236loPI   GL2 3766  11.709   5.780   9.664  0.1010 -0.0264 -0.0878
  236loPI   C1A 3767  11.554   6.190   9.326 -0.2975 -0.0010 -0.0553
  236loPI   C2A 3768  11.326   6.191   8.900  0.0351  0.1037 -0.2580
  236loPI   C3A 3769  10.976   6.303   8.679 -0.3719  0.0925  0.2300
  236loPI   C4A 3770  11.108   6.328   8.242  0.1010  0.2598 -0.2076
  236loPI   C5A 3771  11.386   6.130   7.920  0.0960 -0.0043  0.3115
  236loPI   C6A 3772  11.763   6.028   7.668  0.0018  0.1114 -0.1448
  236loPI   C1B 3773  11.270   5.853   9.521  0.2984 -0.0244  0.0625
  236loPI   C2B 3774  11.044   6.167   9.286 -0.2010  0.3141  0.1025
  236loPI   C3B 3775  11.217   6.587   9.156  0.4337 -0.0900  0.3347
  236loPI   C4B 3776  11.290   6.776   8.826 -0.2185  0.1242  0.1937
  237loPI    C1 3777  11.673  16.195   9.904  0.1287 -0.0970  0.0669
  237loPI    C2 3778  11.456  16.397  10.173 -0.1220 -0.0161 -0.1909
  237loPI    C3 3779  11.396  16.005  10.121 -0.0450 -0.0400 -0.1020
  237loPI   PO4 3780  11.870  16.413   9.862  0.0610 -0.1737  0.1215
  237loPI   GL1 3781  11.859  16.639   9.482  0.1202  0.2503  0.1310
  237loPI   GL2 3782  11.996  16.354   9.342 -0.0426 -0.0978 -0.2515
  237loPI   C1A 3783  11.619  16.720   9.126  0.0162 -0.1735 -0.1996
  237loPI   C2A 3784  11.589  16.629   8.695  0.2389  0.1167 -0.0305
  237loPI   C3A 3785  11.561  16.605   8.323  0.2705 -0.1911  0.0875
  237loPI   C4A 3786  11.426  16.748   7.880  0.3804  0.0254 -0.2131
  237loPI   C5A 3787  11.319  17.010   7.581  0.1380  0.1994 -0.2064
  237loPI   C6A 3788  11.529  17.392   7.333  0.2044 -0.0587  0.0129
  237loPI   C1B 3789  11.932  16.313   8.890  0.0968 -0.1739 -0.2037
  237loPI   C2B 3790  11.921  16.264   8.458  0.3431 -0.2675 -0.0519
  237loPI   C3B 3791  11.741  16.186   8.102 -0.0181 -0.0929  0.1277
  237loPI   C4B 3792  11.633  15.764   7.886 -0.1276 -0.1072  0.2903
  238loPI    C1 3793   1.066   2.994  10.571  0.2175  0.0713 -0.1923
  238loPI    C2 3794   1.177   2.665  10.770 -0.0525  0.0558 -0.0622
  238loPI    C3 3795   0.969   2.951  10.957 -0.2101  0.0937 -0.2924
  238loPI   PO4 3796   1.339   3.004  10.410 -0.3783  0.2705  0.0098
  238loPI   GL1 3797   1.201   2.998  10.034  0.2622 -0.1659  0.1416
  238loPI   GL2 3798   1.403   3.013   9.703 -0.1606 -0.0039  0.2713
  238loPI   C1A 3799   1.015   2.741   9.771 -0.2190 -0.1459  0.1316
  238loPI   C2A 3800   1.169   2.638   9.285  0.1704  0.1334  0.0155
  238loPI   C3A 3801   1.303   2.788   8.901  0.0107 -0.0553 -0.0681
  238loPI   C4A 3802   1.357   2.919   8.507 -0.0591 -0.1233  0.5276
  238loPI   C5A 3803   1.431   3.363   8.431  0.1329 -0.0394  0.0306
  238loPI   C6A 3804   1.494   3.707   8.214  0.0617 -0.3464 -0.1446
  238loPI   C1B 3805   1.589   2.941   9.269  0.0819 -0.1017  0.4055
  238loPI   C2B 3806   1.638   2.541   9.093 -0.0223 -0.3131 -0.0056
  238loPI   C3B 3807   1.442   2.272   8.956  0.1827 -0.3524 -0.1910
  238loPI   C4B 3808   1.387   1.898   8.620  0.2180  0.3889  0.2265
  239loPI    C1 3809  15.312   1.387  10.726  0.2268  0.2051 -0.0678
  239loPI    C2 3810  15.540   1.387  11.054  0.1447 -0.1512 -0.0076
  239loPI    C3 3811  15.231   1.134  11.024 -0.0922  0.1530 -0.1942
  239loPI   PO4 3812  15.479   1.413  10.488 -0.2648 -0.1186 -0.0244
  239loPI   GL1 3813  15.607   1.189  10.122  0.1387  0.1884  0.1261
  239loPI   GL2 3814  15.318   1.172   9.878 -0.1188 -0.1422  0.3922
  239loPI   C1A 3815  15.655   1.508   9.628  0.0872 -0.1390 -0.1226
  239loPI   C2A 3816  15.577   1.536   9.227 -0.1047 -0.3552 -0.3062
  239loPI   C3A 3817  15.466   1.640   8.809 -0.2000 -0.0077  0.3325
  239loPI   C4A 3818  15.521   1.791   8.454 -0.3327 -0.2095 -0.0786
  239loPI   C5A 3819  15.229   2.048   8.220 -0.0902  0.3305  0.0682
  239loPI   C6A 3820  14.950   2.195   8.012 -0.0624 -0.3402  0.3376
  239loPI   C1B 3821  15.422   1.119   9.465  0.1073  0.1931  0.0319
  239loPI   C2B 3822  15.333   1.159   9.014  0.0543  0.0492 -0.1044
  239loPI   C3B 3823  15.057   1.039   8.657  0.1919 -0.5136 -0.2433
  239loPI   C4B 3824  14.635   1.103   8.736 -0.2662 -0.0286 -0.2317
  240loPI    C1 3825   1.448  18.081  10.628 -0.1886 -0.0708  0.0894
  240loPI    C2 3826   1.415  17.719  10.794  0.0839 -0.1026  0.0781
  240loPI    C3 3827   1.385  18.046  11.022 -0.3046 -0.1261  0.0662
  240loPI   PO4 3828   1.267  18.078  10.488 -0.4163 -0.1674  0.0631
  240loPI   GL1 3829   1.343  18.091  10.080  0.1656  0.0647 -0.2435
  240loPI   GL2 3830   1.241  17.789   9.939 -0.3963  0.0732 -0.3622
  240loPI   C1A 3831   1.661  18.098   9.723 -0.2436 -0.0260  0.0908
  240loPI   C2A 3832   1.870  18.193   9.328 -0.2214  0.5241 -0.2271
  240loPI   C3A 3833   1.743  18.234   8.900  0.0967  0.2717  0.1806
  240loPI   C4A 3834   1.570  18.134   8.621 -0.0590 -0.0123  0.0742
  240loPI   C5A 3835   1.221  18.037   8.539 -0.1882 -0.0019  0.0479
  240loPI   C6A 3836   0.784  18.013   8.422  0.0291 -0.0939 -0.0902
  240loPI   C1B 3837   1.255  17.693   9.596  0.3547 -0.0206 -0.1205
  240loPI   C2B 3838   0.934  17.783   9.304  0.0330 -0.0921  0.0356
  240loPI   C3B 3839   0.924  18.017   8.937  0.1984 -0.4005  0.0742
  240loPI   C4B 3840   1.270  18.342   8.977  0.1565 -0.2094  0.2700
  241loPI    C1 3841  13.594   6.492  10.163 -0.2971 -0.1447  0.1858
  241loPI    C2 3842  13.753   6.366  10.508  0.1533 -0.1241 -0.0071
  241loPI    C3 3843  13.501   6.677  10.506 -0.0398 -0.2722  0.3271
  241loPI   PO4 3844  13.586   6.201  10.023 -0.1746  0.0833 -0.2335
  241loPI   GL1 3845  13.881   6.100   9.696 -0.3254 -0.0361  0.0073
  241loPI   GL2 3846  13.750   5.826   9.680 -0.1131 -0.0922  0.0346
  241loPI   C1A 3847  13.721   6.179   9.350  0.0747  0.1249  0.4471
  241loPI   C2A 3848  13.641   5.927   8.913  0.0372 -0.1782 -0.0553
  241loPI   C3A 3849  13.789   5.960   8.515 -0.4296  0.5295 -0.0412
  241loPI   C4A 3850  13.911   6.066   8.101 -0.0252  0.1841 -0.0277
  241loPI   C5A 3851  13.744   5.939   7.741  0.0702 -0.0796  0.1045
  241loPI   C6A 3852  13.488   5.954   7.481 -0.4024  0.1245  0.1211
  241loPI   C1B 3853  13.919   5.724   9.305  0.1485  0.2241  0.0863
  241loPI   C2B 3854  13.987   5.635   8.828 -0.3594 -0.2205 -0.0946
  241loPI   C3B 3855  14.060   5.566   8.303 -0.1867  0.0312  0.2479
  241loPI   C4B 3856  14.193   5.396   7.905 -0.1265 -0.1102  0.1660
  242loPI    C1 3857   0.506  18.308  10.794 -0.0331 -0.1086  0.1276
  242loPI    C2 3858   0.424  18.698  10.824  0.0183 -0.0654 -0.2447
  242loPI    C3 3859   0.798  18.568  10.879 -0.0142 -0.0748 -0.0375
  242loPI   PO4 3860   0.333  18.259  10.523  0.1624 -0.2268 -0.2143
  242loPI   GL1 3861   0.053  18.161  10.259  0.0970 -0.0061 -0.0892
  242loPI   GL2 3862  -0.150  18.460  10.362 -0.2800 -0.1531 -0.0156
  242loPI   C1A 3863  -0.244  18.176   9.945  0.2856 -0.0245 -0.1274
  242loPI   C2A 3864  -0.378  18.081   9.610  0.0032  0.0355 -0.0890
  242loPI   C3A 3865  -0.482  18.126   9.154 -0.2695  0.2812  0.0504
  242loPI   C4A 3866  -0.515  18.002   8.770  0.1713  0.0711 -0.1404
  242loPI   C5A 3867  -0.921  17.890   8.577 -0.1804 -0.1943 -0.1405
  242loPI   C6A 3868  -1.251  17.737   8.304 -0.4899  0.4211  0.0855
  242loPI   C1B 3869   0.042  18.648  10.083 -0.1728  0.1849  0.2205
  242loPI   C2B 3870   0.172  18.883   9.693 -0.1252 -0.0353  0.0588
  242loPI   C3B 3871   0.254  18.775   9.171 -0.0933  0.0885  0.1658
  242loPI   C4B 3872   0.009  18.803   8.810  0.3486 -0.0061  0.0026
  243loPI    C1 3873  17.463  12.502  10.509 -0.2655 -0.0256 -0.0370
  243loPI    C2 3874  17.285  12.713  10.799 -0.3896 -0.0351 -0.1057
  243loPI    C3 3875  17.163  12.341  10.718 -0.0100 -0.2292  0.1810
  243loPI   PO4 3876  17.489  12.755  10.296  0.2674  0.4188  0.2322
  243loPI   GL1 3877  17.654  12.895   9.984 -0.1991  0.0147  0.0218
  243loPI   GL2 3878  17.376  13.127   9.992  0.0806 -0.2599 -0.3434
  243loPI   C1A 3879  17.473  12.928   9.605  0.1462 -0.0689  0.0775
  243loPI   C2A 3880  17.396  13.132   9.222 -0.3374  0.0214 -0.0719
  243loPI   C3A 3881  17.245  13.283   8.865  0.3445  0.0511  0.3979
  243loPI   C4A 3882  17.076  13.402   8.372 -0.1087 -0.1732 -0.2207
  243loPI   C5A 3883  16.695  13.320   8.195 -0.0401  0.2091  0.0502
  243loPI   C6A 3884  16.369  13.457   8.160 -0.0555  0.4537  0.1103
  243loPI   C1B 3885  17.407  13.470   9.676  0.0578  0.1131 -0.3156
  243loPI   C2B 3886  17.536  13.626   9.189  0.0797  0.1112  0.0693
  243loPI   C3B 3887  17.611  13.618   8.815 -0.0037  0.3832 -0.4211
  243loPI   C4B 3888  17.799  13.318   8.524  0.2080  0.2265  0.2333
  244loPI    C1 3889   9.088  16.064  10.464 -0.1511  0.1401 -0.0229
  244loPI    C2 3890   8.923  15.901  10.790 -0.0897  0.0960 -0.0138
  244loPI    C3 3891   9.297  16.043  10.804 -0.0115 -0.0968 -0.1209
  244loPI   PO4 3892   8.906  15.936  10.271 -0.0104  0.0441  0.1599
  244loPI   GL1 3893   9.032  15.948   9.856  0.1629 -0.0389  0.0654
  244loPI   GL2 3894   9.001  15.644   9.644 -0.0643  0.0821 -0.1141
  244loPI   C1A 3895   8.927  16.218   9.443 -0.2189  0.3187  0.0440
  244loPI   C2A 3896   8.912  16.249   8.990  0.0799 -0.1993 -0.0098
  244loPI   C3A 3897   8.946  16.280   8.604  0.0361  0.6034  0.2883
  244loPI   C4A 3898   8.916  16.383   8.171 -0.0734  0.3719  0.3467
  244loPI   C5A 3899   8.840  16.459   7.843  0.1582 -0.1282 -0.0117
  244loPI   C6A 3900   8.892  16.326   7.495  0.4282 -0.0219 -0.1980
  244loPI   C1B 3901   8.718  15.481   9.390  0.1518  0.0411  0.0614
  244loPI   C2B 3902   8.658  15.367   8.962 -0.2316  0.2397 -0.1018
  244loPI   C3B 3903   8.635  15.333   8.580 -0.1537 -0.1029  0.0010
  244loPI   C4B 3904   8.462  15.274   8.112  0.1537 -0.0521  0.0754
  245loPI    C1 3905   7.898   3.862  10.896 -0.1485  0.0498  0.0720
  245loPI    C2 3906   8.027   3.535  11.087 -0.0281  0.0041 -0.0852
  245loPI    C3 3907   8.093   3.898  11.243  0.1360 -0.0288 -0.0764
  245loPI   PO4 3908   7.959   3.813  10.535  0.2981  0.2581 -0.0232
  245loPI   GL1 3909   7.914   3.840  10.140 -0.4376 -0.2038 -0.0035
  245loPI   GL2 3910   8.109   4.216  10.196 -0.0823 -0.0833  0.1150
  245loPI   C1A 3911   8.054   3.709   9.748 -0.3649 -0.2011 -0.2049
  245loPI   C2A 3912   8.037   3.579   9.349  0.0437  0.3158  0.1740
  245loPI   C3A 3913   7.996   3.683   8.888 -0.0788 -0.0614  0.0441
  245loPI   C4A 3914   7.903   3.564   8.461 -0.1148 -0.3327  0.0579
  245loPI   C5A 3915   7.643   3.324   8.183 -0.0632 -0.0025 -0.0228
  245loPI   C6A 3916   7.283   3.431   8.222  0.0290 -0.2924 -0.2759
  245loPI   C1B 3917   8.243   4.260   9.762 -0.1408 -0.1457  0.0483
  245loPI   C2B 3918   8.398   4.190   9.319 -0.1525  0.0903 -0.0805
  245loPI   C3B 3919   8.402   3.965   9.002 -0.1256 -0.0647 -0.2962
  245loPI   C4B 3920   8.357   3.863   8.617  0.1512  0.1896  0.1021
  246loPI    C1 3921  16.068  13.924  10.334  0.0530  0.0829 -0.1688
  246loPI    C2 3922  15.878  13.828  10.672 -0.0261  0.2481 -0.1652
  246loPI    C3 3923  15.875  13.575  10.362  0.0644  0.0868 -0.0363
  246loPI   PO4 3924  15.980  14.187  10.185 -0.3763  0.2528  0.0774
  246loPI   GL1 3925  16.251  14.491   9.982 -0.0934  0.3975  0.2519
  246loPI   GL2 3926  16.462  14.522   9.977  0.0404  0.0958 -0.5278
  246loPI   C1A 3927  16.280  14.534   9.565 -0.1334  0.0535  0.0045
  246loPI   C2A 3928  16.460  14.560   9.169 -0.1440 -0.0956  0.3004
  246loPI   C3A 3929  16.449  14.725   8.827 -0.0518 -0.2518 -0.0894
  246loPI   C4A 3930  16.211  14.934   8.490 -0.3835  0.1017  0.1183
  246loPI   C5A 3931  16.322  15.029   8.097 -0.2756  0.0467  0.0116
  246loPI   C6A 3932  16.332  15.509   8.049  0.1187  0.1741 -0.0192
  246loPI   C1B 3933  16.456  15.006   9.810 -0.0839 -0.0306 -0.0036
  246loPI   C2B 3934  16.218  15.302   9.468 -0.2648 -0.0830 -0.0140
  246loPI   C3B 3935  16.217  15.229   8.948  0.0966  0.2494 -0.0325
  246loPI   C4B 3936  16.118  15.473   8.576  0.2949 -0.0694  0.2251
  247loPI    C1 3937   3.337   7.338  10.259  0.1519  0.1545 -0.2929
  247loPI    C2 3938   3.251   6.973  10.120  0.1514  0.0709 -0.0770
  247loPI    C3 3939   3.199   7.056  10.507  0.0733  0.3256 -0.1405
  247loPI   PO4 3940   3.632   7.426  10.130  0.0594  0.1853 -0.0846
  247loPI   GL1 3941   3.576   7.692   9.778  0.1735  0.0584  0.1872
  247loPI   GL2 3942   3.877   7.614   9.731 -0.0169  0.1362 -0.0237
  247loPI   C1A 3943   3.453   7.782   9.302  0.1480 -0.0988  0.1140
  247loPI   C2A 3944   3.258   7.767   8.941 -0.1392 -0.1427  0.2988
  247loPI   C3A 3945   3.155   7.680   8.537 -0.1366 -0.0155 -0.1504
  247loPI   C4A 3946   3.223   7.821   8.109  0.2100 -0.1947 -0.1845
  247loPI   C5A 3947   3.385   7.631   7.812  0.0189 -0.0362  0.0185
  247loPI   C6A 3948   3.543   7.321   7.434  0.1941 -0.0400 -0.2539
  247loPI   C1B 3949   4.049   7.825   9.313 -0.1821  0.2188 -0.0548
  247loPI   C2B 3950   3.789   7.920   8.860  0.1342 -0.0378 -0.0889
  247loPI   C3B 3951   3.611   7.738   8.513  0.0372  0.1314  0.0244
  247loPI   C4B 3952   3.735   7.506   8.245  0.2037 -0.0742  0.3777
  248loPI    C1 3953   5.830  11.229  10.243 -0.0838 -0.0045 -0.0531
  248loPI    C2 3954   6.150  11.231  10.003  0.0414 -0.0103  0.1120
  248loPI    C3 3955   6.194  11.168  10.395 -0.1436  0.1633  0.1631
  248loPI   PO4 3956   5.640  11.132   9.974  0.1331 -0.1321 -0.0354
  248loPI   GL1 3957   5.721  11.165   9.603  0.1594 -0.0936  0.3062
  248loPI   GL2 3958   5.763  11.478   9.617  0.1364  0.0160 -0.1964
  248loPI   C1A 3959   5.816  11.341   9.157  0.0910  0.0993 -0.0630
  248loPI   C2A 3960   5.886  11.338   8.759 -0.0208 -0.0830 -0.1758
  248loPI   C3A 3961   5.775  11.476   8.484  0.0676  0.0715  0.5100
  248loPI   C4A 3962   5.810  11.527   8.035  0.2751  0.1949 -0.0623
  248loPI   C5A 3963   5.849  11.824   7.631 -0.0927 -0.3020  0.3833
  248loPI   C6A 3964   5.774  12.071   7.352 -0.0342  0.0459  0.2628
  248loPI   C1B 3965   6.263  11.375   9.389  0.3338  0.1054  0.2529
  248loPI   C2B 3966   6.543  11.454   9.184 -0.3122 -0.0695  0.0621
  248loPI   C3B 3967   6.515  11.649   8.788 -0.3816  0.2029  0.0816
  248loPI   C4B 3968   6.465  11.917   8.331  0.0939 -0.0831  0.0475
  249loPI    C1 3969  10.589   0.968  10.232  0.0022 -0.0912 -0.0369
  249loPI    C2 3970  10.471   1.339  10.326 -0.2020 -0.1748  0.0432
  249loPI    C3 3971  10.397   1.036  10.576  0.2980 -0.2124  0.1557
  249loPI   PO4 3972  10.869   1.049  10.096  0.3508  0.1842 -0.2950
  249loPI   GL1 3973  11.054   1.222   9.751  0.0854  0.2232 -0.1851
  249loPI   GL2 3974  10.922   1.336   9.407 -0.1247 -0.1299 -0.0289
  249loPI   C1A 3975  11.119   0.835   9.453 -0.2592 -0.4530  0.2748
  249loPI   C2A 3976  11.166   0.854   8.979 -0.1571  0.0435  0.1293
  249loPI   C3A 3977  10.961   0.883   8.640  0.1077  0.0011 -0.1695
  249loPI   C4A 3978  10.786   0.625   8.242 -0.0506  0.4311  0.1378
  249loPI   C5A 3979  10.589   0.748   7.830  0.0945 -0.0533 -0.0681
  249loPI   C6A 3980  10.391   0.768   7.477  0.0317 -0.0969 -0.2682
  249loPI   C1B 3981  10.911   1.339   8.989 -0.2270 -0.1870  0.2576
  249loPI   C2B 3982  11.078   1.393   8.604  0.0421  0.0922 -0.1552
  249loPI   C3B 3983  11.231   1.384   8.216  0.0219  0.0827 -0.0869
  249loPI   C4B 3984  11.469   1.235   7.883  0.0148  0.1936 -0.0290
  250loPI    C1 3985   9.636  10.289  10.222  0.1325  0.0487  0.1804
  250loPI    C2 3986   9.491  10.630  10.072 -0.1866 -0.1798 -0.0441
  250loPI    C3 3987   9.251  10.384  10.277  0.0407 -0.2735  0.1129
  250loPI   PO4 3988   9.799  10.229   9.948 -0.1902  0.2478 -0.1330
  250loPI   GL1 3989   9.976  10.184   9.539  0.3884  0.0400 -0.2373
  250loPI   GL2 3990  10.262  10.356   9.353 -0.2197  0.2288  0.0510
  250loPI   C1A 3991   9.871   9.893   9.348  0.0976 -0.2631  0.2872
  250loPI   C2A 3992  10.129   9.442   9.142 -0.1871  0.0464  0.0587
  250loPI   C3A 3993  10.343   9.333   8.757 -0.1432  0.0849  0.0825
  250loPI   C4A 3994  10.525   9.040   8.561 -0.2734  0.0571  0.0257
  250loPI   C5A 3995  10.355   8.882   8.149  0.1491 -0.0157  0.2033
  250loPI   C6A 3996  10.044   8.883   7.910 -0.1723 -0.1446 -0.0554
  250loPI   C1B 3997  10.423  10.279   9.010 -0.1075  0.0211 -0.2466
  250loPI   C2B 3998  10.339  10.184   8.588 -0.0802  0.0617 -0.1582
  250loPI   C3B 3999  10.270  10.353   8.269 -0.2156  0.3757 -0.1437
  250loPI   C4B 4000  10.031  10.301   7.965  0.1116  0.0813 -0.5648
  251loPI    C1 4001   6.294   8.424  10.122  0.1757  0.1545 -0.2449
  251loPI    C2 4002   6.618   8.200  10.195  0.2369  0.2313 -0.2782
  251loPI    C3 4003   6.533   8.511  10.432 -0.2599 -0.2654  0.2272
  251loPI   PO4 4004   6.241   8.474   9.878  0.2850  0.0519 -0.0316
  251loPI   GL1 4005   6.340   8.362   9.455 -0.0268  0.3907 -0.1615
  251loPI   GL2 4006   6.043   8.194   9.447  0.1975 -0.0716 -0.2437
  251loPI   C1A 4007   6.303   8.372   8.985 -0.1610 -0.2492  0.2681
  251loPI   C2A 4008   6.361   8.362   8.477 -0.0795  0.2940 -0.0937
  251loPI   C3A 4009   6.177   8.492   8.138  0.1948 -0.0941 -0.1034
  251loPI   C4A 4010   5.864   8.618   7.759 -0.1361 -0.1219  0.1186
  251loPI   C5A 4011   5.679   8.635   7.364 -0.0391  0.0969 -0.1629
  251loPI   C6A 4012   5.632   8.729   6.960 -0.0897 -0.1686  0.1015
  251loPI   C1B 4013   6.084   7.933   9.118  0.1884 -0.1281 -0.0341
  251loPI   C2B 4014   6.067   8.045   8.701  0.2562 -0.1465  0.0623
  251loPI   C3B 4015   6.034   7.982   8.263  0.0966 -0.1449  0.0730
  251loPI   C4B 4016   6.158   8.088   7.800  0.1346  0.1066 -0.1630
  252loPI    C1 4017   8.061   1.594  10.467  0.4101  0.0454  0.0060
  252loPI    C2 4018   7.943   1.970  10.538 -0.0311 -0.0374 -0.2506
  252loPI    C3 4019   7.858   1.680  10.800  0.0046 -0.0191 -0.2185
  252loPI   PO4 4020   7.908   1.526  10.287  0.0309  0.0503 -0.1618
  252loPI   GL1 4021   7.706   1.743   9.992 -0.2091  0.1340 -0.1266
  252loPI   GL2 4022   7.748   2.056  10.092  0.0169 -0.1523  0.3497
  252loPI   C1A 4023   7.748   1.644   9.558  0.0743  0.0555 -0.2930
  252loPI   C2A 4024   7.636   1.656   9.075  0.4025  0.1095  0.0126
  252loPI   C3A 4025   7.633   1.610   8.565 -0.2431  0.0246  0.2127
  252loPI   C4A 4026   7.745   1.453   8.159 -0.1569 -0.0424  0.1773
  252loPI   C5A 4027   8.061   1.298   7.855  0.4993  0.1300 -0.1856
  252loPI   C6A 4028   8.008   1.123   7.428 -0.1707 -0.0884 -0.1373
  252loPI   C1B 4029   7.943   2.132   9.732 -0.0875  0.3150 -0.0050
  252loPI   C2B 4030   8.245   2.121   9.401 -0.0532  0.3179 -0.0260
  252loPI   C3B 4031   8.369   2.176   9.016 -0.0209  0.1613 -0.0144
  252loPI   C4B 4032   8.613   2.053   8.606 -0.0189  0.0382  0.2483
  253loPI    C1 4033  15.012   8.998   9.993  0.3885 -0.3801  0.0053
  253loPI    C2 4034  15.257   9.187  10.245 -0.0036 -0.0096  0.1218
  253loPI    C3 4035  14.931   9.003  10.385  0.1305 -0.3841 -0.0460
  253loPI   PO4 4036  14.911   9.151   9.832  0.1899 -0.2295 -0.1126
  253loPI   GL1 4037  14.638   9.140   9.583  0.1260  0.2448 -0.0341
  253loPI   GL2 4038  14.444   8.952   9.460  0.1209  0.1574  0.2723
  253loPI   C1A 4039  14.653   9.267   9.171  0.2710  0.1849  0.0211
  253loPI   C2A 4040  14.770   9.247   8.751 -0.1260  0.0403 -0.1789
  253loPI   C3A 4041  14.938   9.266   8.334 -0.1655  0.1591  0.0833
  253loPI   C4A 4042  15.116   9.376   7.902  0.2441 -0.0254 -0.2406
  253loPI   C5A 4043  15.373   9.189   7.569  0.1118  0.2697  0.2016
  253loPI   C6A 4044  15.679   9.433   7.483  0.2714  0.3252 -0.2117
  253loPI   C1B 4045  14.542   8.820   8.975 -0.0666  0.1542 -0.1352
  253loPI   C2B 4046  14.840   8.591   8.704 -0.1703  0.1908 -0.4900
  253loPI   C3B 4047  14.982   8.716   8.237 -0.1433 -0.0633 -0.2689
  253loPI   C4B 4048  14.840   8.747   7.862 -0.2237  0.1659 -0.0134
  254loPI    C1 4049   2.424  11.082  10.504 -0.0144 -0.1080 -0.0167
  254loPI    C2 4050   2.727  11.051  10.245  0.0591 -0.1555  0.0743
  254loPI    C3 4051   2.788  11.214  10.604 -0.1817  0.4984 -0.1669
  254loPI   PO4 4052   2.200  11.168  10.350  0.2358  0.1768  0.0705
  254loPI   GL1 4053   2.184  11.039   9.971 -0.1976 -0.1535 -0.0071
  254loPI   GL2 4054   2.466  11.196   9.807 -0.0481 -0.1582 -0.0180
  254loPI   C1A 4055   2.067  11.140   9.490  0.2141 -0.0851 -0.3527
  254loPI   C2A 4056   2.097  11.293   9.050  0.0251  0.0264 -0.2628
  254loPI   C3A 4057   2.187  11.217   8.589 -0.0947 -0.1805  0.2070
  254loPI   C4A 4058   2.295  10.998   8.322  0.1575 -0.1110 -0.1561
  254loPI   C5A 4059   2.425  10.670   8.278  0.0145 -0.1571  0.0760
  254loPI   C6A 4060   2.754  10.372   8.524  0.1095  0.2644  0.2649
  254loPI   C1B 4061   2.490  11.120   9.347 -0.1009 -0.2643  0.0763
  254loPI   C2B 4062   2.224  10.794   9.070  0.3250  0.1449  0.1234
  254loPI   C3B 4063   2.276  10.503   8.724 -0.0193 -0.0237 -0.1388
  254loPI   C4B 4064   2.235  10.156   8.429  0.0051  0.2573 -0.1691
  255loPI    C1 4065  18.275  17.350  10.813  0.0797 -0.0673 -0.0496
  255loPI    C2 4066  18.660  17.249  10.848  0.0754 -0.0319  0.1055
  255loPI    C3 4067  18.500  17.518  11.097  0.0069  0.1214 -0.1016
  255loPI   PO4 4068  18.190  17.160  10.770  0.1994 -0.1814  0.0364
  255loPI   GL1 4069  18.041  16.965  10.421 -0.0215  0.1794  0.0977
  255loPI   GL2 4070  17.734  16.882  10.521 -0.0336  0.2850  0.0618
  255loPI   C1A 4071  18.079  16.814  10.010  0.1245  0.1806 -0.1932
  255loPI   C2A 4072  17.909  16.609   9.644  0.1550 -0.0375 -0.0805
  255loPI   C3A 4073  18.029  16.590   9.177 -0.0860  0.2107 -0.0756
  255loPI   C4A 4074  18.002  16.735   8.699 -0.0794 -0.1725 -0.3704
  255loPI   C5A 4075  18.019  16.736   8.251  0.0957 -0.1043  0.0398
  255loPI   C6A 4076  18.241  17.001   7.995  0.0539  0.0561 -0.1966
  255loPI   C1B 4077  17.481  17.157  10.147 -0.1754 -0.4720  0.1577
  255loPI   C2B 4078  17.457  17.320   9.808  0.0445 -0.2263  0.1852
  255loPI   C3B 4079  17.383  17.233   9.430  0.0546  0.3806 -0.0457
  255loPI   C4B 4080  17.405  17.399   8.963  0.0486  0.1253 -0.2316
  256loPI    C1 4081   4.114   4.350  10.502 -0.0216 -0.0427  0.0079
  256loPI    C2 4082   4.031   4.023  10.717 -0.2316  0.0992  0.1466
  256loPI    C3 4083   4.081   4.375  10.900  0.2559  0.1015  0.0246
  256loPI   PO4 4084   3.976   4.303  10.238 -0.1896  0.0012  0.2008
  256loPI   GL1 4085   3.920   4.546   9.954  0.1203 -0.2198  0.1383
  256loPI   GL2 4086   3.673   4.308   9.816  0.5026 -0.0263  0.3154
  256loPI   C1A 4087   4.146   4.422   9.589 -0.0792 -0.1619 -0.1616
  256loPI   C2A 4088   4.118   4.359   9.083 -0.1425 -0.1585  0.0766
  256loPI   C3A 4089   4.143   4.556   8.652  0.0376  0.0562 -0.0064
  256loPI   C4A 4090   3.905   4.764   8.506  0.0663 -0.1223 -0.2645
  256loPI   C5A 4091   3.696   4.994   8.203 -0.0290  0.1712 -0.0444
  256loPI   C6A 4092   3.572   5.095   7.678  0.0366 -0.0197  0.2864
  256loPI   C1B 4093   3.614   4.380   9.407  0.0776  0.0629 -0.1401
  256loPI   C2B 4094   3.482   4.083   9.147  0.0452 -0.0431  0.0730
  256loPI   C3B 4095   3.468   3.836   8.747 -0.0540 -0.0297  0.2133
  256loPI   C4B 4096   3.407   3.633   8.356 -0.0532  0.4100  0.2230
  257loPI    C1 4097  13.087   0.176  10.273 -0.0343 -0.1237  0.0860
  257loPI    C2 4098  13.413   0.058  10.473 -0.1152  0.0774  0.3425
  257loPI    C3 4099  13.313   0.445  10.463 -0.0878  0.0790 -0.1320
  257loPI   PO4 4100  13.023  -0.024  10.030  0.0054  0.3068 -0.2376
  257loPI   GL1 4101  13.227   0.068   9.592  0.2051  0.2093  0.2098
  257loPI   GL2 4102  13.205   0.319   9.683  0.2631 -0.1206 -0.1702
  257loPI   C1A 4103  13.062   0.026   9.180 -0.2761  0.2883 -0.0196
  257loPI   C2A 4104  12.942  -0.107   8.865 -0.0314  0.0955 -0.0777
  257loPI   C3A 4105  13.138  -0.094   8.558  0.1131  0.1152 -0.1321
  257loPI   C4A 4106  13.104  -0.224   8.247 -0.0192  0.0537  0.2252
  257loPI   C5A 4107  13.022  -0.555   7.969  0.1173  0.1476 -0.1405
  257loPI   C6A 4108  13.156  -0.949   7.820  0.0348 -0.0718  0.0852
  257loPI   C1B 4109  12.963   0.505   9.343  0.1026  0.0610 -0.0689
  257loPI   C2B 4110  12.896   0.544   8.918  0.1373  0.1869 -0.1251
  257loPI   C3B 4111  12.955   0.326   8.507 -0.0986 -0.1309  0.1506
  257loPI   C4B 4112  12.989   0.342   8.139 -0.0355  0.3256 -0.1861
  258loPI    C1 4113   8.642   1.885  10.550 -0.2359  0.1266 -0.2086
  258loPI    C2 4114   8.415   1.788  10.865 -0.1213  0.1727 -0.1111
  258loPI    C3 4115   8.743   2.012  10.916  0.1181 -0.1492 -0.2049
  258loPI   PO4 4116   8.570   1.685  10.393  0.0116  0.3000 -0.1859
  258loPI   GL1 4117   8.360   1.526  10.077 -0.3014 -0.1052 -0.2688
  258loPI   GL2 4118   8.511   1.207  10.146  0.2330 -0.2077 -0.2446
  258loPI   C1A 4119   8.269   1.716   9.684  0.1997 -0.0112  0.1632
  258loPI   C2A 4120   8.157   1.702   9.187  0.2025  0.1341  0.0155
  258loPI   C3A 4121   8.254   1.648   8.663 -0.2300 -0.1426 -0.1303
  258loPI   C4A 4122   8.313   1.649   8.171 -0.1235 -0.2392  0.1036
  258loPI   C5A 4123   8.343   2.075   8.086 -0.1329 -0.1060 -0.0659
  258loPI   C6A 4124   8.104   2.504   8.172  0.1174 -0.2301  0.0008
  258loPI   C1B 4125   8.442   1.164   9.698 -0.3883 -0.1686 -0.0101
  258loPI   C2B 4126   8.315   1.257   9.395  0.4458  0.2836  0.0502
  258loPI   C3B 4127   8.169   1.248   8.918 -0.0551 -0.0829  0.2080
  258loPI   C4B 4128   8.111   1.213   8.473 -0.4137 -0.1957 -0.0903
  259loPI    C1 4129   8.112   6.479  10.514  0.2839  0.1300 -0.2009
  259loPI    C2 4130   8.418   6.223  10.497  0.1191 -0.0793 -0.0711
  259loPI    C3 4131   8.180   6.228  10.818  0.1677  0.2948 -0.0372
  259loPI   PO4 4132   8.022   6.476  10.305  0.1044  0.1605 -0.2135
  259loPI   GL1 4133   7.743   6.489   9.872  0.3433 -0.0033 -0.0347
  259loPI   GL2 4134   7.601   6.783   9.737  0.1550  0.2307 -0.4644
  259loPI   C1A 4135   7.570   6.450   9.408 -0.1655 -0.1863 -0.0193
  259loPI   C2A 4136   7.403   6.717   9.250 -0.3397  0.0101  0.1110
  259loPI   C3A 4137   7.165   6.747   8.896 -0.0256  0.4926 -0.1529
  259loPI   C4A 4138   7.001   6.722   8.477  0.3865  0.1025 -0.1569
  259loPI   C5A 4139   6.797   7.031   8.252  0.1491 -0.5215  0.0674
  259loPI   C6A 4140   6.455   7.226   8.371  0.0656 -0.0830  0.0817
  259loPI   C1B 4141   7.846   6.860   9.287 -0.3641  0.2588 -0.0735
  259loPI   C2B 4142   7.707   6.832   8.849 -0.4511 -0.2870 -0.3441
  259loPI   C3B 4143   7.581   6.685   8.511 -0.1760  0.0158  0.1676
  259loPI   C4B 4144   7.455   6.580   8.268 -0.1991 -0.0669 -0.0437
  260loPI    C1 4145   7.443   3.882  10.526  0.1394  0.0328  0.1907
  260loPI    C2 4146   7.271   3.687  10.830 -0.0785 -0.0583  0.0120
  260loPI    C3 4147   7.402   4.062  10.881 -0.3776  0.0320  0.1383
  260loPI   PO4 4148   7.190   3.851  10.323 -0.2660  0.2547 -0.1093
  260loPI   GL1 4149   7.024   3.685  10.020  0.4071 -0.0703  0.0352
  260loPI   GL2 4150   7.414   3.662   9.929  0.3493  0.1781 -0.3565
  260loPI   C1A 4151   6.864   3.678   9.638  0.0246  0.0568  0.0720
  260loPI   C2A 4152   6.775   3.648   9.230  0.1281  0.0477 -0.0883
  260loPI   C3A 4153   7.046   3.595   8.948  0.2946 -0.0116  0.1580
  260loPI   C4A 4154   6.966   3.838   8.573 -0.1939  0.2675  0.0078
  260loPI   C5A 4155   6.991   3.875   8.100  0.0841  0.1960  0.0560
  260loPI   C6A 4156   7.200   4.066   7.723 -0.1311 -0.2046 -0.1894
  260loPI   C1B 4157   7.594   3.542   9.549  0.2469 -0.1256 -0.2551
  260loPI   C2B 4158   7.592   3.484   9.087 -0.0758  0.0365 -0.1658
  260loPI   C3B 4159   7.463   3.651   8.675 -0.0060 -0.1449  0.0602
  260loPI   C4B 4160   7.468   4.035   8.356 -0.0183 -0.0372 -0.2901
  261loPI    C1 4161  11.879  13.731  10.026  0.2929  0.0697  0.1549
  261loPI    C2 4162  12.142  13.664  10.320  0.0351 -0.2501  0.3190
  261loPI    C3 4163  11.808  13.444  10.296 -0.0429 -0.0945 -0.1001
  261loPI   PO4 4164  12.041  13.785   9.813 -0.0542  0.1856 -0.1606
  261loPI   GL1 4165  12.198  13.743   9.362 -0.1751  0.0868 -0.1193
  261loPI   GL2 4166  12.486  13.546   9.363 -0.0903 -0.1582 -0.2709
  261loPI   C1A 4167  12.164  13.961   9.063  0.0679  0.2281 -0.2614
  261loPI   C2A 4168  11.882  14.228   8.790 -0.2044 -0.0581  0.0118
  261loPI   C3A 4169  11.929  14.160   8.376 -0.0678 -0.0892  0.0494
  261loPI   C4A 4170  12.136  13.954   7.984 -0.0714  0.2001 -0.3661
  261loPI   C5A 4171  12.490  13.732   7.735  0.1501 -0.0071 -0.2267
  261loPI   C6A 4172  12.494  13.566   7.290  0.1203  0.0284  0.2369
  261loPI   C1B 4173  12.310  13.462   8.933 -0.0977  0.1196  0.1262
  261loPI   C2B 4174  12.290  13.284   8.546 -0.1446  0.0833 -0.4108
  261loPI   C3B 4175  12.323  13.023   8.246  0.2033  0.4211 -0.0737
  261loPI   C4B 4176  12.298  12.858   7.799  0.2439 -0.1990 -0.1096
  262loPI    C1 4177   0.422  10.088  10.948  0.0286 -0.1051  0.1248
  262loPI    C2 4178   0.041  10.197  10.891  0.1179  0.0744 -0.1471
  262loPI    C3 4179   0.130   9.815  10.965 -0.0954 -0.0083 -0.3054
  262loPI   PO4 4180   0.606  10.137  10.695  0.1899  0.2649 -0.0928
  262loPI   GL1 4181   0.752   9.908  10.256  0.0688  0.1829  0.1258
  262loPI   GL2 4182   0.768   9.634  10.138 -0.1495  0.0082  0.1636
  262loPI   C1A 4183   0.636  10.173   9.883  0.3472  0.1026  0.1127
  262loPI   C2A 4184   0.823  10.160   9.504 -0.1111  0.1124 -0.0496
  262loPI   C3A 4185   0.900  10.110   8.994  0.2107  0.0797  0.0941
  262loPI   C4A 4186   0.704  10.091   8.584 -0.0508 -0.0153  0.2086
  262loPI   C5A 4187   0.748  10.077   8.144 -0.1462 -0.0565 -0.0642
  262loPI   C6A 4188   0.818  10.463   7.852  0.1308  0.0110  0.0670
  262loPI   C1B 4189   0.780   9.669   9.698  0.0512 -0.1089 -0.2277
  262loPI   C2B 4190   0.753   9.700   9.267  0.1759 -0.2142 -0.1960
  262loPI   C3B 4191   0.771   9.678   8.837 -0.2221 -0.0296  0.1761
  262loPI   C4B 4192   0.808   9.632   8.396  0.3499 -0.0099 -0.0722
  263loPI    C1 4193  13.420   1.332  10.493  0.1326 -0.0364  0.0563
  263loPI    C2 4194  13.486   0.940  10.536 -0.0720 -0.0450  0.3164
  263loPI    C3 4195  13.526   1.185  10.850 -0.0764  0.1233  0.1868
  263loPI   PO4 4196  13.280   1.294  10.205 -0.3166  0.2560  0.1566
  263loPI   GL1 4197  13.314   1.475   9.719 -0.0136  0.0970  0.0075
  263loPI   GL2 4198  13.055   1.696   9.574 -0.1833  0.0904 -0.0502
  263loPI   C1A 4199  13.501   1.289   9.364 -0.2601 -0.1340  0.2384
  263loPI   C2A 4200  13.615   1.149   8.909  0.1861 -0.1632  0.0106
  263loPI   C3A 4201  13.588   1.125   8.587 -0.2435  0.0429  0.2169
  263loPI   C4A 4202  13.358   1.204   8.211 -0.1137  0.4706 -0.0993
  263loPI   C5A 4203  13.256   1.478   7.858  0.0872 -0.0298  0.2118
  263loPI   C6A 4204  13.262   1.958   7.836  0.3251 -0.1938 -0.1243
  263loPI   C1B 4205  13.079   1.619   9.316 -0.0175 -0.2004 -0.0795
  263loPI   C2B 4206  12.940   1.743   8.882 -0.0725 -0.0741  0.0693
  263loPI   C3B 4207  12.871   2.047   8.561  0.2762  0.5956  0.1369
  263loPI   C4B 4208  13.071   2.256   8.281  0.1548  0.2036  0.0349
  264loPI    C1 4209  10.599   5.065   9.806  0.3622  0.0633 -0.1292
  264loPI    C2 4210  10.491   4.713   9.963  0.0019  0.2198 -0.0143
  264loPI    C3 4211  10.843   4.876  10.060  0.0565  0.0160  0.1358
  264loPI   PO4 4212  10.473   5.268   9.866 -0.0891  0.3540  0.0433
  264loPI   GL1 4213  10.035   5.399   9.602  0.1014 -0.2011 -0.1330
  264loPI   GL2 4214  10.247   5.142   9.401  0.2267  0.1768  0.1045
  264loPI   C1A 4215   9.963   5.470   9.191 -0.3615 -0.1853 -0.1067
  264loPI   C2A 4216   9.785   5.309   8.790 -0.0142  0.0073  0.1665
  264loPI   C3A 4217   9.655   5.310   8.271  0.0272 -0.0164 -0.4779
  264loPI   C4A 4218   9.415   5.077   8.071 -0.2313  0.0457 -0.4138
  264loPI   C5A 4219   9.043   4.871   8.188 -0.0730  0.3105  0.1915
  264loPI   C6A 4220   8.869   4.709   8.511 -0.2590  0.1737  0.0007
  264loPI   C1B 4221  10.453   5.452   9.161  0.1288 -0.1691 -0.1014
  264loPI   C2B 4222  10.700   5.460   8.832 -0.2351 -0.2039 -0.0064
  264loPI   C3B 4223  10.716   5.304   8.497  0.1515  0.0883  0.2973
  264loPI   C4B 4224  10.519   5.176   8.211 -0.0946 -0.2579  0.0541
  265loPI    C1 4225   1.639   1.220  11.018 -0.1792  0.2874  0.0604
  265loPI    C2 4226   1.545   1.501  11.286  0.0959  0.1932  0.2609
  265loPI    C3 4227   1.754   1.179  11.399  0.1425  0.1107 -0.0513
  265loPI   PO4 4228   1.718   1.388  10.819 -0.0964 -0.1450  0.0173
  265loPI   GL1 4229   1.702   1.404  10.372 -0.1155  0.2242 -0.1186
  265loPI   GL2 4230   2.124   1.222  10.313 -0.3647 -0.0402 -0.0402
  265loPI   C1A 4231   1.481   1.381   9.948 -0.2231  0.1155  0.1461
  265loPI   C2A 4232   1.366   1.237   9.594 -0.1069  0.1360 -0.3151
  265loPI   C3A 4233   1.145   1.232   9.267  0.1753  0.1212 -0.1842
  265loPI   C4A 4234   1.028   1.095   8.982 -0.1229 -0.3733 -0.0366
  265loPI   C5A 4235   1.023   0.876   8.595  0.0942  0.2575 -0.1007
  265loPI   C6A 4236   1.243   0.811   8.189  0.1439 -0.0454 -0.1813
  265loPI   C1B 4237   1.834   0.931  10.016  0.1545  0.2465  0.0152
  265loPI   C2B 4238   1.726   0.855   9.568 -0.2925  0.0543  0.2370
  265loPI   C3B 4239   1.546   0.832   9.127  0.1404 -0.1736  0.1388
  265loPI   C4B 4240   1.469   0.802   8.696  0.2319 -0.0977 -0.0741
  266loPI    C1 4241  11.553  18.319  10.095  0.1006 -0.1881  0.0697
  266loPI    C2 4242  11.395  18.376  10.458 -0.0004 -0.0214  0.0007
  266loPI    C3 4243  11.790  18.324  10.417  0.0155 -0.0043  0.1303
  266loPI   PO4 4244  11.297  18.453   9.970  0.0817 -0.3486 -0.0284
  266loPI   GL1 4245  11.155  18.585   9.544 -0.0030  0.0937 -0.2610
  266loPI   GL2 4246  11.011  18.744   9.644  0.2274  0.1873  0.0196
  266loPI   C1A 4247  10.969  18.784   9.175 -0.2370 -0.1628 -0.0744
  266loPI   C2A 4248  10.683  18.765   8.787 -0.1612  0.2465 -0.2337
  266loPI   C3A 4249  10.340  18.682   8.469  0.1651  0.1321 -0.0500
  266loPI   C4A 4250  10.182  18.915   8.107 -0.0205  0.2000 -0.0830
  266loPI   C5A 4251  10.011  18.735   7.752 -0.1456 -0.0640 -0.2362
  266loPI   C6A 4252  10.227  18.403   7.627  0.0998  0.0674  0.1927
  266loPI   C1B 4253  10.589  18.662   9.505  0.0787 -0.3832  0.0999
  266loPI   C2B 4254  10.450  18.531   9.160  0.0594 -0.2861  0.0028
  266loPI   C3B 4255  10.321  18.345   8.892 -0.0164  0.0492  0.5255
  266loPI   C4B 4256  10.557  18.095   8.559  0.2775 -0.1268  0.0710
  267loPI    C1 4257   4.227   9.551  10.396  0.0711  0.2517 -0.1290
  267loPI    C2 4258   4.608   9.483  10.293 -0.0140 -0.2456 -0.1424
  267loPI    C3 4259   4.471   9.358  10.648 -0.0552  0.3305  0.0563
  267loPI   PO4 4260   4.063   9.447  10.163 -0.0279  0.2136  0.1266
  267loPI   GL1 4261   3.870   9.615   9.845 -0.0364 -0.2670 -0.0218
  267loPI   GL2 4262   3.551   9.912   9.747 -0.0900 -0.2146 -0.1441
  267loPI   C1A 4263   3.574   9.516   9.483 -0.2227 -0.0923 -0.1850
  267loPI   C2A 4264   3.488   9.713   8.979 -0.0501  0.0422  0.3891
  267loPI   C3A 4265   3.610   9.661   8.603 -0.0604  0.1097 -0.0207
  267loPI   C4A 4266   3.619   9.224   8.437 -0.1576 -0.4819  0.2811
  267loPI   C5A 4267   3.297   9.090   8.099  0.1114  0.1470 -0.0171
  267loPI   C6A 4268   3.287   8.806   7.757  0.1174 -0.1677  0.0252
  267loPI   C1B 4269   3.692  10.075   9.266 -0.0821 -0.2491 -0.1358
  267loPI   C2B 4270   3.690  10.224   8.806  0.3599  0.2734 -0.2213
  267loPI   C3B 4271   3.699  10.137   8.326 -0.5899 -0.2467 -0.5990
  267loPI   C4B 4272   3.724  10.311   7.912 -0.1702  0.0585  0.0048
  268loPI    C1 4273  15.746   9.366  10.118  0.0443  0.0716  0.2131
  268loPI    C2 4274  16.055   9.131  10.211  0.1078  0.1446  0.1885
  268loPI    C3 4275  15.681   8.996  10.256  0.1454 -0.0305 -0.0080
  268loPI   PO4 4276  15.771   9.502   9.891 -0.0376 -0.1549 -0.1064
  268loPI   GL1 4277  15.988   9.492   9.487 -0.2521  0.0385  0.2939
  268loPI   GL2 4278  16.029   9.688   9.213  0.0811  0.2567  0.1401
  268loPI   C1A 4279  16.198   9.212   9.162 -0.0000 -0.1163  0.2590
  268loPI   C2A 4280  16.400   9.176   8.744  0.0992  0.2522  0.0063
  268loPI   C3A 4281  16.436   9.258   8.268  0.0543 -0.0229 -0.3076
  268loPI   C4A 4282  16.511   9.614   8.018  0.0404 -0.1572 -0.0713
  268loPI   C5A 4283  16.388  10.033   7.833 -0.0624  0.1119  0.0400
  268loPI   C6A 4284  16.540  10.412   7.822  0.1522  0.0196  0.1778
  268loPI   C1B 4285  16.078   9.599   8.785  0.0551  0.0949  0.0693
  268loPI   C2B 4286  16.046   9.613   8.276  0.1589  0.3626 -0.1408
  268loPI   C3B 4287  15.773   9.780   7.880  0.0204 -0.1647  0.0898
  268loPI   C4B 4288  15.297   9.838   7.721 -0.0990  0.2808  0.3486
  269loPI    C1 4289  10.807   1.583  10.055  0.0214 -0.1087  0.1836
  269loPI    C2 4290  11.180   1.531  10.191  0.0416 -0.2960  0.0607
  269loPI    C3 4291  10.908   1.719  10.418  0.2446 -0.0408  0.0975
  269loPI   PO4 4292  10.827   1.681   9.826  0.1591 -0.2731 -0.1002
  269loPI   GL1 4293  11.150   1.781   9.526 -0.1350 -0.0492  0.2435
  269loPI   GL2 4294  11.419   1.560   9.724  0.1937 -0.0214 -0.0372
  269loPI   C1A 4295  10.842   1.798   9.194 -0.1076  0.1889 -0.3437
  269loPI   C2A 4296  10.847   1.827   8.815 -0.5928 -0.0077 -0.2865
  269loPI   C3A 4297  10.922   1.878   8.434  0.0472  0.1567 -0.2619
  269loPI   C4A 4298  10.711   2.138   8.117  0.1665  0.2471 -0.0150
  269loPI   C5A 4299  10.615   2.292   7.755  0.0690 -0.1581  0.3155
  269loPI   C6A 4300  10.635   2.401   7.252 -0.1018 -0.0859  0.0031
  269loPI   C1B 4301  11.366   1.221   9.296  0.1019  0.1499 -0.0881
  269loPI   C2B 4302  11.541   1.251   8.876  0.0902  0.0006 -0.2548
  269loPI   C3B 4303  11.548   1.073   8.490  0.0328 -0.1987  0.0119
  269loPI   C4B 4304  11.364   0.827   8.164 -0.3379  0.0502 -0.4493
  270loPI    C1 4305  15.408   5.049  10.578  0.0870 -0.1070 -0.0009
  270loPI    C2 4306  15.256   4.705  10.444  0.1942 -0.1581  0.0078
  270loPI    C3 4307  15.235   4.795  10.833 -0.0756 -0.0308 -0.0341
  270loPI   PO4 4308  15.489   5.199  10.334 -0.1104  0.1638  0.1298
  270loPI   GL1 4309  15.357   5.016   9.987  0.1566  0.2074  0.2037
  270loPI   GL2 4310  15.259   5.214   9.810 -0.1249  0.0119  0.1121
  270loPI   C1A 4311  15.295   4.557   9.947  0.0138  0.1461 -0.0762
  270loPI   C2A 4312  15.302   4.343   9.570  0.0100  0.0502 -0.2836
  270loPI   C3A 4313  15.521   4.299   9.190  0.1922  0.1616  0.1579
  270loPI   C4A 4314  15.782   4.323   8.855  0.0947 -0.0545 -0.1362
  270loPI   C5A 4315  16.124   4.296   8.466 -0.0586  0.1045 -0.0137
  270loPI   C6A 4316  16.108   4.469   8.069  0.0803 -0.1351  0.0735
  270loPI   C1B 4317  15.278   5.377   9.428 -0.1039 -0.1871 -0.2630
  270loPI   C2B 4318  15.143   5.363   8.968  0.3071  0.2803  0.0389
  270loPI   C3B 4319  14.960   5.284   8.553 -0.0898  0.1933  0.0883
  270loPI   C4B 4320  14.781   5.345   8.151  0.2266  0.0701 -0.3064
  271loPI    C1 4321   9.714  12.211  10.353 -0.0577  0.1709 -0.1542
  271loPI    C2 4322   9.678  12.587  10.484 -0.0246  0.1759 -0.1595
  271loPI    C3 4323   9.738  12.290  10.744  0.0343  0.1851 -0.1625
  271loPI   PO4 4324   9.616  12.166  10.196 -0.0282 -0.1228 -0.1252
  271loPI   GL1 4325   9.457  12.195   9.789  0.1792  0.1336  0.0853
  271loPI   GL2 4326   9.136  12.040   9.738 -0.1080  0.0924 -0.0310
  271loPI   C1A 4327   9.551  11.880   9.396 -0.3924 -0.0398  0.2569
  271loPI   C2A 4328   9.720  11.793   8.960  0.0032 -0.2276  0.0379
  271loPI   C3A 4329   9.866  11.605   8.622 -0.2181  0.2005 -0.1456
  271loPI   C4A 4330   9.987  11.345   8.251  0.0221 -0.0021 -0.3594
  271loPI   C5A 4331   9.860  11.214   7.867  0.1568  0.3326 -0.1281
  271loPI   C6A 4332   9.767  11.087   7.510  0.4219  0.0726 -0.1869
  271loPI   C1B 4333   9.251  12.188   9.276  0.1492  0.0975 -0.0323
  271loPI   C2B 4334   9.369  12.198   8.904 -0.3124  0.1287 -0.0693
  271loPI   C3B 4335   9.407  11.950   8.594  0.1596  0.1057  0.0914
  271loPI   C4B 4336   9.651  11.984   8.241  0.0751  0.0264 -0.0397
  272loPI    C1 4337  17.009  12.511  10.284  0.1283 -0.1005  0.0559
  272loPI    C2 4338  17.223  12.530   9.946 -0.1170 -0.3429 -0.1170
  272loPI    C3 4339  16.958  12.817  10.031 -0.0743 -0.2954 -0.1431
  272loPI   PO4 4340  16.808  12.254  10.241 -0.0255 -0.1038  0.1919
  272loPI   GL1 4341  16.756  12.215   9.868  0.0809 -0.3748  0.1356
  272loPI   GL2 4342  16.600  12.465   9.787 -0.4003  0.0067 -0.2055
  272loPI   C1A 4343  16.754  11.988   9.459 -0.0329  0.0345 -0.2001
  272loPI   C2A 4344  16.943  11.990   9.059 -0.2991  0.5257 -0.1005
  272loPI   C3A 4345  17.150  11.937   8.745 -0.1904  0.1975  0.2690
  272loPI   C4A 4346  17.457  11.958   8.334  0.3727 -0.0944 -0.3739
  272loPI   C5A 4347  17.710  11.659   8.197 -0.0142  0.0129 -0.0676
  272loPI   C6A 4348  18.017  11.336   8.047  0.0466 -0.1039  0.1746
  272loPI   C1B 4349  16.608  12.375   9.284  0.0394  0.1635 -0.4132
  272loPI   C2B 4350  16.716  12.468   8.943  0.0843  0.2939 -0.1169
  272loPI   C3B 4351  16.647  12.431   8.477 -0.1478  0.0196  0.0334
  272loPI   C4B 4352  16.589  12.038   8.148 -0.1756  0.0036  0.2128
  273loPI    C1 4353   8.033  10.177  10.555 -0.1195 -0.0345  0.2060
  273loPI    C2 4354   7.838  10.500  10.687 -0.1812  0.0134  0.0017
  273loPI    C3 4355   7.674  10.137  10.726 -0.1557  0.0162  0.1419
  273loPI   PO4 4356   8.032  10.309  10.237  0.2134 -0.0475 -0.0083
  273loPI   GL1 4357   7.839  10.598   9.921  0.0569 -0.3116  0.1463
  273loPI   GL2 4358   7.566  10.678   9.743  0.0152  0.1321  0.2497
  273loPI   C1A 4359   8.058  10.466   9.581  0.2015  0.0855 -0.1899
  273loPI   C2A 4360   8.193  10.588   9.201 -0.5173  0.0018 -0.2886
  273loPI   C3A 4361   8.239  10.657   8.728 -0.2654 -0.0394 -0.2381
  273loPI   C4A 4362   8.330  10.722   8.307 -0.4106 -0.1740  0.0145
  273loPI   C5A 4363   8.491  11.081   8.108 -0.1030  0.0623  0.0154
  273loPI   C6A 4364   8.934  11.239   8.083  0.0973 -0.0690 -0.3227
  273loPI   C1B 4365   7.689  10.657   9.379 -0.2716 -0.1004 -0.1395
  273loPI   C2B 4366   7.761  10.745   8.920  0.0864 -0.1107  0.0966
  273loPI   C3B 4367   7.881  10.913   8.477  0.0457  0.2359  0.0052
  273loPI   C4B 4368   7.588  10.932   8.090 -0.0289 -0.0759  0.3391
  274loPI    C1 4369   8.719  12.121  10.652 -0.0189 -0.1473 -0.5957
  274loPI    C2 4370   9.025  11.866  10.688 -0.1501 -0.2378 -0.0322
  274loPI    C3 4371   8.672  11.779  10.855 -0.1273  0.4176  0.3917
  274loPI   PO4 4372   8.713  12.203  10.440  0.4175  0.2583 -0.1231
  274loPI   GL1 4373   8.458  12.302  10.174  0.1552  0.2963  0.3374
  274loPI   GL2 4374   8.703  12.040   9.929  0.1101  0.2697 -0.0910
  274loPI   C1A 4375   8.621  12.543   9.791 -0.0152 -0.0846 -0.0631
  274loPI   C2A 4376   9.062  12.563   9.561  0.1208  0.1210  0.1394
  274loPI   C3A 4377   9.066  12.615   9.056 -0.0553 -0.1291  0.0550
  274loPI   C4A 4378   8.956  12.654   8.676  0.2610  0.0019  0.2990
  274loPI   C5A 4379   9.101  12.349   8.240  0.0167  0.0422  0.0293
  274loPI   C6A 4380   9.416  12.425   7.946  0.1211 -0.0344  0.0148
  274loPI   C1B 4381   8.744  12.117   9.455  0.2727 -0.1891  0.0847
  274loPI   C2B 4382   8.614  12.527   9.228  0.3405  0.0289  0.3257
  274loPI   C3B 4383   8.418  12.712   8.937 -0.0496 -0.0062 -0.0909
  274loPI   C4B 4384   8.502  12.666   8.559  0.0396  0.0049 -0.1147
  275loPI    C1 4385   4.664   8.589  10.372 -0.1136  0.1339 -0.1276
  275loPI    C2 4386   4.742   8.978  10.330  0.0882  0.1255  0.1441
  275loPI    C3 4387   4.744   8.813  10.694 -0.0050 -0.1285  0.0310
  275loPI   PO4 4388   4.415   8.595  10.192  0.0858  0.0113  0.0829
  275loPI   GL1 4389   4.214   8.676   9.762 -0.2372 -0.1439 -0.4256
  275loPI   GL2 4390   4.446   8.790   9.650  0.1526  0.0773 -0.3221
  275loPI   C1A 4391   4.342   8.326   9.506 -0.3001  0.0112  0.3180
  275loPI   C2A 4392   4.303   8.217   9.078 -0.1491 -0.0829 -0.0174
  275loPI   C3A 4393   4.274   8.153   8.682  0.0570 -0.2870 -0.1218
  275loPI   C4A 4394   4.038   8.095   8.293  0.0640  0.0733  0.1519
  275loPI   C5A 4395   4.125   8.319   7.846  0.2825  0.1553 -0.3302
  275loPI   C6A 4396   4.203   8.641   7.649  0.1254  0.2320 -0.1561
  275loPI   C1B 4397   4.389   9.106   9.415 -0.0279 -0.0817 -0.0381
  275loPI   C2B 4398   4.423   9.350   8.954 -0.0837 -0.1905  0.2491
  275loPI   C3B 4399   4.467   9.445   8.590 -0.3081  0.0546 -0.2619
  275loPI   C4B 4400   4.643   9.164   8.294  0.0684  0.0225 -0.2019
  276loPI    C1 4401   8.861  14.778  10.419 -0.2151 -0.1566  0.0184
  276loPI    C2 4402   8.665  14.958  10.718 -0.0694  0.0044  0.0182
  276loPI    C3 4403   8.910  14.651  10.795 -0.1490 -0.0526  0.0453
  276loPI   PO4 4404   9.006  15.070  10.240  0.2016 -0.2024 -0.0819
  276loPI   GL1 4405   9.049  15.133   9.799 -0.1205 -0.0887 -0.1966
  276loPI   GL2 4406   9.314  15.014   9.860 -0.2320  0.1047 -0.2692
  276loPI   C1A 4407   9.021  14.972   9.407 -0.2133  0.2127  0.3580
  276loPI   C2A 4408   8.916  14.977   9.035 -0.0668 -0.0118  0.1472
  276loPI   C3A 4409   8.717  14.833   8.687  0.0555  0.0181  0.1104
  276loPI   C4A 4410   8.328  14.933   8.476  0.3282  0.0688 -0.0866
  276loPI   C5A 4411   8.113  14.876   8.024  0.2907 -0.2405  0.0447
  276loPI   C6A 4412   7.773  15.006   7.797 -0.0087 -0.0562  0.0613
  276loPI   C1B 4413   9.550  14.898   9.512  0.0595  0.0416 -0.2121
  276loPI   C2B 4414   9.417  14.962   9.061  0.0711 -0.2170  0.0158
  276loPI   C3B 4415   9.176  15.083   8.622 -0.0711  0.0629  0.0891
  276loPI   C4B 4416   9.033  15.166   8.155 -0.2051 -0.0627 -0.2037
  277loPI    C1 4417  13.917  11.337  10.130  0.2157 -0.2071  0.0237
  277loPI    C2 4418  14.089  11.437  10.477  0.1782 -0.2102  0.0433
  277loPI    C3 4419  13.713  11.302  10.472 -0.0103  0.2959 -0.0502
  277loPI   PO4 4420  14.123  11.302   9.987 -0.3088  0.1157  0.0465
  277loPI   GL1 4421  14.196  11.062   9.637  0.0048  0.2222  0.2664
  277loPI   GL2 4422  13.912  10.740   9.552  0.1451  0.0968 -0.0451
  277loPI   C1A 4423  14.385  10.900   9.230 -0.2432 -0.2289  0.1095
  277loPI   C2A 4424  14.487  10.792   8.824 -0.2073  0.1462  0.1949
  277loPI   C3A 4425  14.520  10.751   8.402  0.1475 -0.1460  0.1147
  277loPI   C4A 4426  14.357  11.040   8.156 -0.2566  0.0636  0.3190
  277loPI   C5A 4427  14.158  11.477   8.151 -0.3397  0.0771  0.1157
  277loPI   C6A 4428  13.819  11.760   8.305 -0.1790  0.0566 -0.1390
  277loPI   C1B 4429  13.859  11.009   9.132 -0.1596 -0.3317  0.0384
  277loPI   C2B 4430  13.620  10.864   8.873  0.3587  0.0207 -0.3765
  277loPI   C3B 4431  13.517  10.705   8.401  0.2631 -0.2997  0.0351
  277loPI   C4B 4432  13.730  10.823   7.996  0.0663 -0.0768  0.1752
  278loPI    C1 4433  10.268  17.161  10.384  0.0721 -0.0630 -0.2084
  278loPI    C2 4434  10.011  17.249  10.678  0.0299 -0.0292 -0.2552
  278loPI    C3 4435  10.394  17.170  10.764 -0.0218 -0.1953 -0.1735
  278loPI   PO4 4436  10.147  17.389  10.210  0.0821  0.0224 -0.1947
  278loPI   GL1 4437  10.004  17.291   9.818  0.1015 -0.1662 -0.1232
  278loPI   GL2 4438   9.887  17.623   9.815  0.0856  0.2232  0.5946
  278loPI   C1A 4439  10.140  17.495   9.378  0.3734  0.0790 -0.0287
  278loPI   C2A 4440  10.403  17.338   9.019  0.0716 -0.0526 -0.0426
  278loPI   C3A 4441  10.413  17.236   8.603  0.0581  0.0288 -0.1004
  278loPI   C4A 4442  10.553  16.943   8.263 -0.0486  0.2243 -0.2444
  278loPI   C5A 4443  10.501  16.756   7.866  0.0754 -0.0966 -0.0985
  278loPI   C6A 4444  10.516  16.492   7.547  0.0334  0.0091  0.3092
  278loPI   C1B 4445   9.856  17.932   9.597  0.0716 -0.1030  0.0987
  278loPI   C2B 4446   9.560  18.177   9.354  0.0128  0.0948 -0.0922
  278loPI   C3B 4447   9.306  18.368   8.996  0.2155 -0.0047 -0.0940
  278loPI   C4B 4448   8.921  18.490   8.755  0.0866 -0.2402  0.1618
  279loPI    C1 4449  14.694   7.820   9.950 -0.2115 -0.0842 -0.0899
  279loPI    C2 4450  14.579   8.096   9.684  0.0652  0.0035 -0.1219
  279loPI    C3 4451  14.672   8.205  10.057 -0.0699 -0.0835 -0.0618
  279loPI   PO4 4452  14.884   7.662   9.857 -0.3673  0.1351 -0.0021
  279loPI   GL1 4453  15.191   7.666   9.616  0.1336 -0.0407  0.1906
  279loPI   GL2 4454  14.888   7.396   9.434  0.1147  0.0439  0.2616
  279loPI   C1A 4455  15.408   7.430   9.306  0.1119  0.2047 -0.2409
  279loPI   C2A 4456  15.464   7.461   8.889 -0.1356 -0.0086  0.0494
  279loPI   C3A 4457  15.707   7.573   8.585 -0.0497 -0.1668  0.0540
  279loPI   C4A 4458  15.769   7.569   8.184 -0.2002  0.0193  0.0493
  279loPI   C5A 4459  15.702   7.435   7.772 -0.2664 -0.0427 -0.1683
  279loPI   C6A 4460  15.693   7.462   7.341 -0.1382 -0.0600 -0.2592
  279loPI   C1B 4461  14.958   7.560   8.977  0.1557 -0.0235  0.1514
  279loPI   C2B 4462  14.808   7.555   8.613  0.0117 -0.2811  0.0212
  279loPI   C3B 4463  14.884   7.563   8.234  0.1457 -0.3556  0.2945
  279loPI   C4B 4464  14.980   7.555   7.798  0.1637  0.0764  0.1285
  280loPI    C1 4465   2.961  14.598  10.591 -0.2037  0.1757  0.4927
  280loPI    C2 4466   2.656  14.340  10.573  0.0813 -0.1378 -0.1836
  280loPI    C3 4467   2.914  14.325  10.879 -0.0557 -0.4814 -0.0805
  280loPI   PO4 4468   3.029  14.605  10.374  0.1703 -0.1535 -0.1752
  280loPI   GL1 4469   2.963  14.706   9.990  0.0295  0.0979 -0.0088
  280loPI   GL2 4470   2.711  14.392  10.079  0.2988 -0.2104  0.2061
  280loPI   C1A 4471   3.050  14.747   9.570 -0.1619 -0.0278 -0.0885
  280loPI   C2A 4472   3.187  14.676   9.217 -0.0142 -0.0442  0.2349
  280loPI   C3A 4473   3.454  14.561   8.880  0.0252 -0.1252 -0.0698
  280loPI   C4A 4474   3.352  14.289   8.450  0.2542 -0.2778 -0.1814
  280loPI   C5A 4475   3.382  14.036   8.172  0.0186  0.1379  0.0918
  280loPI   C6A 4476   3.519  13.768   8.013  0.2440 -0.2233  0.1367
  280loPI   C1B 4477   2.671  14.291   9.612 -0.2676  0.1118  0.0350
  280loPI   C2B 4478   2.787  14.334   9.174  0.1726  0.1096  0.1270
  280loPI   C3B 4479   2.895  14.291   8.755  0.5686 -0.2274  0.0299
  280loPI   C4B 4480   2.818  13.975   8.562 -0.2686 -0.0868  0.1384
  281loPI    C1 4481  14.701  17.487  10.474 -0.3259 -0.0162 -0.1643
  281loPI    C2 4482  14.595  17.170  10.694  0.0555 -0.1446 -0.1599
  281loPI    C3 4483  14.859  17.435  10.838  0.0360 -0.0367 -0.3206
  281loPI   PO4 4484  14.717  17.446  10.176 -0.4840  0.2765 -0.2724
  281loPI   GL1 4485  14.544  17.668   9.866 -0.0107  0.2291  0.1296
  281loPI   GL2 4486  14.919  17.577   9.790  0.2178 -0.0779  0.0714
  281loPI   C1A 4487  14.332  17.639   9.494  0.0251  0.2179 -0.3314
  281loPI   C2A 4488  14.414  17.709   9.074  0.0234  0.0127 -0.3432
  281loPI   C3A 4489  14.580  17.771   8.758 -0.1784 -0.2083 -0.2417
  281loPI   C4A 4490  14.606  17.876   8.290 -0.2180 -0.0099  0.3317
  281loPI   C5A 4491  14.567  18.169   7.971 -0.2393  0.0425 -0.0725
  281loPI   C6A 4492  14.308  18.469   7.836 -0.0179  0.0847  0.0089
  281loPI   C1B 4493  14.754  17.405   9.448 -0.2958  0.1269 -0.0586
  281loPI   C2B 4494  14.636  17.245   9.168 -0.0911  0.0106 -0.1289
  281loPI   C3B 4495  14.447  17.284   8.749  0.0797 -0.0783 -0.1399
  281loPI   C4B 4496  14.365  17.047   8.401 -0.2068  0.3870 -0.0313
  282loPI    C1 4497   4.299  11.731  10.527  0.0612 -0.0287  0.2189
  282loPI    C2 4498   4.562  11.569  10.781  0.0730 -0.1629  0.1218
  282loPI    C3 4499   4.189  11.647  10.902  0.1528  0.0167  0.2563
  282loPI   PO4 4500   4.290  11.463  10.326 -0.0658 -0.0974 -0.3942
  282loPI   GL1 4501   4.381  11.372   9.916 -0.1220 -0.0517 -0.0799
  282loPI   GL2 4502   4.728  11.379   9.921 -0.2312 -0.1093 -0.1001
  282loPI   C1A 4503   4.258  11.398   9.510  0.0227 -0.1460 -0.3232
  282loPI   C2A 4504   4.387  11.323   9.106 -0.3351  0.1423 -0.2878
  282loPI   C3A 4505   4.366  11.432   8.663  0.1233 -0.0879  0.0671
  282loPI   C4A 4506   4.213  11.696   8.141 -0.1752  0.1084 -0.0333
  282loPI   C5A 4507   3.858  11.920   7.961  0.3476  0.0730  0.1380
  282loPI   C6A 4508   3.788  12.266   7.800  0.0076  0.0877 -0.1579
  282loPI   C1B 4509   4.898  11.359   9.526  0.0983  0.0981 -0.4568
  282loPI   C2B 4510   4.868  11.302   9.161 -0.0456  0.0204  0.2926
  282loPI   C3B 4511   4.833  11.494   8.730 -0.0112  0.0525 -0.0558
  282loPI   C4B 4512   4.725  11.515   8.370  0.1335 -0.0542 -0.1143
  283loPI    C1 4513   3.932  15.954  10.680 -0.0428  0.1123 -0.0054
  283loPI    C2 4514   3.696  15.931  11.002  0.0635 -0.0368  0.0628
  283loPI    C3 4515   3.544  15.868  10.637 -0.0654  0.1706  0.0791
  283loPI   PO4 4516   4.114  15.773  10.692 -0.0067  0.0721  0.3016
  283loPI   GL1 4517   4.283  15.739  10.313 -0.0271  0.0892  0.1172
  283loPI   GL2 4518   4.316  16.001  10.162  0.1475 -0.0529 -0.3851
  283loPI   C1A 4519   4.127  15.415   9.996 -0.2648 -0.1845 -0.1321
  283loPI   C2A 4520   4.187  15.185   9.691  0.0164 -0.0266  0.0898
  283loPI   C3A 4521   4.310  14.998   9.322  0.3945  0.0447 -0.3833
  283loPI   C4A 4522   4.481  15.042   8.983 -0.0486 -0.1589  0.1935
  283loPI   C5A 4523   4.307  14.932   8.516 -0.0175 -0.2787 -0.2560
  283loPI   C6A 4524   4.338  14.889   8.017 -0.1151  0.1440  0.0619
  283loPI   C1B 4525   4.267  15.870   9.817 -0.0626  0.1260  0.0073
  283loPI   C2B 4526   4.312  15.668   9.431  0.1805 -0.2469  0.1396
  283loPI   C3B 4527   4.190  15.453   9.160  0.1216  0.0642  0.1489
  283loPI   C4B 4528   3.960  15.269   8.798 -0.2587  0.0365  0.2336
  284loPI    C1 4529  11.628   2.350  10.135 -0.0588 -0.0262  0.1552
  284loPI    C2 4530  11.888   2.152  10.365 -0.0893 -0.2007  0.0412
  284loPI    C3 4531  11.495   2.094  10.412 -0.0979 -0.1766 -0.0003
  284loPI   PO4 4532  11.683   2.318   9.948 -0.2368 -0.0278 -0.1409
  284loPI   GL1 4533  11.907   2.558   9.623 -0.0087 -0.2445  0.2642
  284loPI   GL2 4534  12.203   2.488   9.546 -0.0800 -0.0183  0.0831
  284loPI   C1A 4535  11.787   2.465   9.226  0.1219  0.2206 -0.3225
  284loPI   C2A 4536  11.851   2.542   8.893 -0.3673  0.0764 -0.1247
  284loPI   C3A 4537  11.697   2.441   8.509 -0.0485  0.0786 -0.0541
  284loPI   C4A 4538  11.594   2.193   8.141 -0.0099  0.0989  0.1877
  284loPI   C5A 4539  11.218   1.915   8.035  0.1928 -0.0602 -0.2317
  284loPI   C6A 4540  10.829   1.613   7.960  0.3345  0.4077  0.1027
  284loPI   C1B 4541  12.286   2.306   9.184 -0.1026  0.1550  0.1977
  284loPI   C2B 4542  12.714   2.371   8.873 -0.2139  0.0793 -0.0490
  284loPI   C3B 4543  12.705   2.548   8.495 -0.2419  0.1218  0.0239
  284loPI   C4B 4544  12.517   2.760   8.174 -0.4051 -0.2471  0.2970
  285loPI    C1 4545   3.053  16.685  10.665  0.0085 -0.2273  0.0179
  285loPI    C2 4546   2.654  16.693  10.692  0.0158  0.1819  0.0689
  285loPI    C3 4547   2.876  16.656  11.022  0.0230  0.0845  0.0533
  285loPI   PO4 4548   3.094  16.581  10.480 -0.1757  0.1433 -0.2561
  285loPI   GL1 4549   3.077  16.169  10.153  0.3077 -0.1361  0.0145
  285loPI   GL2 4550   3.315  16.057  10.239 -0.2443  0.2222 -0.1508
  285loPI   C1A 4551   3.103  16.263   9.752 -0.3486 -0.0498 -0.1491
  285loPI   C2A 4552   3.356  16.169   9.377 -0.0132 -0.1745  0.0357
  285loPI   C3A 4553   3.487  16.195   8.985  0.1130  0.0097  0.1824
  285loPI   C4A 4554   3.670  16.179   8.597  0.1147  0.3494  0.0668
  285loPI   C5A 4555   4.029  16.344   8.328 -0.2847  0.2483 -0.3895
  285loPI   C6A 4556   4.424  16.416   8.449  0.1903  0.1847 -0.2351
  285loPI   C1B 4557   3.395  15.837   9.728  0.1475 -0.4717  0.1433
  285loPI   C2B 4558   3.300  15.698   9.284  0.2111 -0.2654 -0.1943
  285loPI   C3B 4559   3.382  15.621   8.823  0.1784  0.1531  0.1308
  285loPI   C4B 4560   3.561  15.670   8.436  0.1716 -0.1066  0.0775
  286loPI    C1 4561  10.567   3.249  10.307 -0.0615 -0.0018  0.2350
  286loPI    C2 4562  10.512   2.853  10.315 -0.0800 -0.0083 -0.0917
  286loPI    C3 4563  10.751   3.027  10.584 -0.1013 -0.2354  0.0769
  286loPI   PO4 4564  10.611   3.329  10.077 -0.0283  0.1373 -0.2040
  286loPI   GL1 4565  10.376   3.626   9.790  0.4328 -0.0604  0.2047
  286loPI   GL2 4566  10.367   3.863   9.623 -0.1152  0.1160  0.1402
  286loPI   C1A 4567  10.312   3.428   9.439 -0.3227  0.2382  0.4168
  286loPI   C2A 4568  10.430   3.546   8.949 -0.1972  0.0848 -0.1650
  286loPI   C3A 4569  10.571   3.595   8.591  0.0807  0.0553  0.4642
  286loPI   C4A 4570  10.436   3.575   8.102 -0.1618 -0.0839  0.0085
  286loPI   C5A 4571  10.299   3.523   7.724 -0.0898  0.1254  0.0667
  286loPI   C6A 4572  10.312   3.728   7.352 -0.0074  0.2002  0.0297
  286loPI   C1B 4573  10.351   3.971   9.171  0.1790 -0.0316  0.0762
  286loPI   C2B 4574  10.376   4.075   8.719  0.0453  0.3432 -0.0479
  286loPI   C3B 4575  10.655   4.031   8.317 -0.1342 -0.1117  0.0482
  286loPI   C4B 4576  10.812   4.271   8.031 -0.0370 -0.4970 -0.1255
  287loPI    C1 4577  15.424   6.022  10.314  0.0795 -0.0456 -0.3571
  287loPI    C2 4578  15.259   6.364  10.438  0.1519 -0.1034 -0.0932
  287loPI    C3 4579  15.051   6.023  10.459  0.2036 -0.1311 -0.0264
  287loPI   PO4 4580  15.556   6.118  10.079 -0.0219 -0.1102  0.0803
  287loPI   GL1 4581  15.451   6.235   9.612 -0.0922  0.0509  0.0705
  287loPI   GL2 4582  15.313   5.996   9.628 -0.0154  0.1006 -0.0001
  287loPI   C1A 4583  15.375   6.353   9.196  0.0730  0.1810  0.0001
  287loPI   C2A 4584  15.599   6.306   8.831  0.1570  0.3022  0.0966
  287loPI   C3A 4585  15.636   6.025   8.465 -0.1102  0.0998 -0.0825
  287loPI   C4A 4586  15.725   5.691   8.235 -0.1662  0.0779 -0.0204
  287loPI   C5A 4587  16.033   5.443   8.068  0.2121 -0.1085  0.2543
  287loPI   C6A 4588  16.375   5.340   7.779  0.0849 -0.1581  0.1693
  287loPI   C1B 4589  15.546   5.845   9.341 -0.1444 -0.1114 -0.0235
  287loPI   C2B 4590  15.370   5.880   8.929 -0.3443  0.0966  0.0469
  287loPI   C3B 4591  15.075   5.937   8.625  0.2102 -0.0176  0.0067
  287loPI   C4B 4592  14.754   6.095   8.496 -0.2401  0.2500  0.0687
  288loPI    C1 4593   9.593   9.346   9.988 -0.0876 -0.0703  0.1066
  288loPI    C2 4594   9.886   9.490   9.757 -0.0927 -0.1343  0.0596
  288loPI    C3 4595   9.647   9.741   9.957 -0.0854 -0.0786 -0.0010
  288loPI   PO4 4596   9.631   9.079  10.057  0.1773  0.0968 -0.1311
  288loPI   GL1 4597   9.757   8.878   9.686  0.2591 -0.2501  0.0614
  288loPI   GL2 4598   9.589   8.625   9.550  0.4188 -0.2544 -0.1044
  288loPI   C1A 4599   9.721   9.245   9.345  0.0257  0.0874 -0.0169
  288loPI   C2A 4600   9.535   9.205   8.984 -0.0813 -0.0659  0.0822
  288loPI   C3A 4601   9.419   8.991   8.691 -0.0297 -0.2029  0.2239
  288loPI   C4A 4602   9.196   9.004   8.370  0.1186  0.1935  0.2657
  288loPI   C5A 4603   9.063   8.773   8.021 -0.2535 -0.1362  0.0945
  288loPI   C6A 4604   8.836   8.647   7.597  0.0455 -0.1920 -0.2117
  288loPI   C1B 4605   9.620   8.687   9.136  0.1362  0.0963 -0.2306
  288loPI   C2B 4606   9.687   8.618   8.734  0.1559 -0.2139 -0.2724
  288loPI   C3B 4607   9.603   8.673   8.329  0.5490 -0.1589 -0.1575
  288loPI   C4B 4608   9.633   8.633   8.009 -0.0445 -0.3828 -0.2143
  289loPI    C1 4609   1.898  10.314  10.836 -0.0146  0.0181  0.3095
  289loPI    C2 4610   1.711  10.667  10.810 -0.3862 -0.2064 -0.2705
  289loPI    C3 4611   1.594  10.399  11.082 -0.1771  0.0652  0.0963
  289loPI   PO4 4612   1.842  10.169  10.484 -0.0434 -0.1784  0.0632
  289loPI   GL1 4613   2.178   9.969  10.203  0.1211 -0.1345 -0.2418
  289loPI   GL2 4614   2.067  10.258  10.018  0.0833 -0.1628  0.0811
  289loPI   C1A 4615   2.087   9.616   9.847 -0.1778 -0.0331 -0.0703
  289loPI   C2A 4616   2.192   9.733   9.425  0.1929  0.1346  0.1197
  289loPI   C3A 4617   2.128   9.720   8.962  0.2742 -0.0023 -0.0657
  289loPI   C4A 4618   1.902   9.877   8.635 -0.1506 -0.1737  0.0608
  289loPI   C5A 4619   1.637   9.943   8.246  0.0146  0.1585  0.3746
  289loPI   C6A 4620   1.213   9.778   8.104  0.0608  0.1354  0.0063
  289loPI   C1B 4621   1.724  10.082   9.764 -0.1133 -0.0650  0.1196
  289loPI   C2B 4622   1.780  10.027   9.331  0.2900 -0.0850 -0.2789
  289loPI   C3B 4623   1.855  10.329   9.019 -0.1180 -0.1879  0.0466
  289loPI   C4B 4624   1.692  10.339   8.632 -0.0175 -0.3214  0.1154
  290loPI    C1 4625   9.294  16.320  10.149 -0.0179  0.0267 -0.0783
  290loPI    C2 4626   9.615  16.254  10.378 -0.0603 -0.0433 -0.0386
  290loPI    C3 4627   9.325  16.498  10.506  0.0232  0.0990 -0.1179
  290loPI   PO4 4628   9.343  16.391   9.954 -0.0600 -0.0552 -0.0899
  290loPI   GL1 4629   9.426  16.427   9.601 -0.2109  0.1251 -0.2443
  290loPI   GL2 4630   9.421  16.037   9.523 -0.0984 -0.0484  0.0274
  290loPI   C1A 4631   9.580  16.687   9.312 -0.2715 -0.0529  0.1314
  290loPI   C2A 4632   9.583  16.802   8.923  0.0759  0.2989 -0.0273
  290loPI   C3A 4633   9.372  17.007   8.577  0.0200  0.3234 -0.0339
  290loPI   C4A 4634   9.226  17.190   8.284  0.3207 -0.1491  0.2704
  290loPI   C5A 4635   9.279  17.372   7.899  0.0058 -0.4111 -0.0346
  290loPI   C6A 4636   9.454  17.670   7.605  0.0043  0.3068  0.0034
  290loPI   C1B 4637   9.367  16.203   9.148 -0.1653 -0.1654  0.0015
  290loPI   C2B 4638   9.403  16.373   8.734 -0.1007  0.2885 -0.1379
  290loPI   C3B 4639   9.544  16.583   8.362  0.0094  0.1521  0.0593
  290loPI   C4B 4640   9.420  16.703   7.952 -0.0642  0.1284  0.0525
  291loPI    C1 4641  12.091   3.130  10.203 -0.0936 -0.0868  0.0908
  291loPI    C2 4642  11.746   3.332  10.189  0.0013  0.0635 -0.1284
  291loPI    C3 4643  12.033   3.444  10.444  0.0263  0.1617 -0.1990
  291loPI   PO4 4644  12.318   3.223   9.966  0.0415  0.3209 -0.1384
  291loPI   GL1 4645  12.439   2.925   9.705 -0.0585  0.1464 -0.2058
  291loPI   GL2 4646  12.521   3.088   9.561  0.2785  0.0914  0.1773
  291loPI   C1A 4647  12.078   2.934   9.337  0.0644  0.1134 -0.0423
  291loPI   C2A 4648  11.961   3.080   8.951  0.1507 -0.1053  0.0244
  291loPI   C3A 4649  11.811   2.943   8.568 -0.1745  0.1460  0.0566
  291loPI   C4A 4650  11.970   2.966   8.206  0.3605  0.0822 -0.0611
  291loPI   C5A 4651  12.213   3.172   7.903 -0.1189 -0.0104 -0.1382
  291loPI   C6A 4652  12.307   3.542   7.827  0.1384 -0.2125 -0.0081
  291loPI   C1B 4653  12.519   3.243   9.265  0.0976  0.0671 -0.0897
  291loPI   C2B 4654  12.411   3.309   8.842 -0.3631  0.2210 -0.0222
  291loPI   C3B 4655  12.263   3.204   8.505 -0.0153  0.2462  0.1678
  291loPI   C4B 4656  11.941   3.407   8.459  0.0043 -0.0172 -0.1054
  292loPI    C1 4657   4.442  16.718  10.854  0.2775  0.2686 -0.1361
  292loPI    C2 4658   4.805  16.551  10.864  0.1487 -0.0084  0.0577
  292loPI    C3 4659   4.644  16.699  11.199 -0.0424 -0.1639  0.0359
  292loPI   PO4 4660   4.418  16.788  10.572  0.1749 -0.1781 -0.1373
  292loPI   GL1 4661   4.273  17.094  10.314 -0.1298 -0.0123 -0.1072
  292loPI   GL2 4662   4.584  17.113  10.019 -0.0620  0.2744 -0.1827
  292loPI   C1A 4663   4.146  17.401  10.088 -0.2011 -0.1754 -0.0833
  292loPI   C2A 4664   4.012  17.459   9.665 -0.0274  0.0119 -0.2688
  292loPI   C3A 4665   3.726  17.503   9.380 -0.0690  0.1136  0.0306
  292loPI   C4A 4666   3.664  17.551   8.939 -0.3387  0.0165 -0.0047
  292loPI   C5A 4667   3.526  17.752   8.659 -0.0323  0.0505 -0.1418
  292loPI   C6A 4668   3.463  17.873   8.285  0.2946 -0.1743  0.2000
  292loPI   C1B 4669   4.538  17.370   9.694 -0.1820 -0.2569  0.0941
  292loPI   C2B 4670   4.383  17.511   9.374  0.0781 -0.1047  0.1370
  292loPI   C3B 4671   4.097  17.380   9.051  0.0389 -0.0550 -0.0884
  292loPI   C4B 4672   4.002  17.279   8.576  0.0988  0.1791  0.2177
  293loPI    C1 4673  17.921  16.873  11.014 -0.0820 -0.1020 -0.0465
  293loPI    C2 4674  17.534  16.787  11.070 -0.0981 -0.1307 -0.1960
  293loPI    C3 4675  17.649  17.166  11.013 -0.0994 -0.1182 -0.1171
  293loPI   PO4 4676  17.995  16.614  10.782 -0.0356  0.2052  0.0640
  293loPI   GL1 4677  17.891  16.176  10.540  0.1606 -0.2378  0.1529
  293loPI   GL2 4678  17.745  16.314  10.397 -0.0171 -0.1722  0.0265
  293loPI   C1A 4679  18.069  16.182  10.035  0.1124 -0.2275 -0.0923
  293loPI   C2A 4680  18.149  16.156   9.602 -0.0745 -0.0535 -0.1551
  293loPI   C3A 4681  17.950  15.954   9.166  0.0654 -0.0375  0.0923
  293loPI   C4A 4682  17.989  15.953   8.743  0.1609  0.0363  0.1267
  293loPI   C5A 4683  17.848  15.758   8.400  0.0510 -0.1542  0.1600
  293loPI   C6A 4684  17.467  15.506   8.146 -0.2041  0.1600 -0.0044
  293loPI   C1B 4685  17.522  16.624  10.128 -0.1812 -0.1509 -0.3891
  293loPI   C2B 4686  17.453  16.805   9.737  0.2343  0.0793  0.1386
  293loPI   C3B 4687  17.598  16.727   9.292  0.2597 -0.0440  0.0434
  293loPI   C4B 4688  17.425  16.821   8.894  0.0206  0.2228 -0.1893
  294loPI    C1 4689   3.117   3.701  10.360  0.2280  0.2249  0.0968
  294loPI    C2 4690   3.019   3.722  10.747 -0.1030  0.0407  0.0263
  294loPI    C3 4691   3.194   3.392  10.602 -0.1888  0.0179 -0.0262
  294loPI   PO4 4692   3.228   3.993  10.292  0.1250  0.0550 -0.1839
  294loPI   GL1 4693   2.990   4.494  10.071 -0.0062 -0.1099 -0.0498
  294loPI   GL2 4694   3.181   4.275   9.867 -0.2046  0.3902  0.1687
  294loPI   C1A 4695   2.578   4.396   9.862  0.0149  0.3761  0.2800
  294loPI   C2A 4696   2.375   4.183   9.633 -0.1703  0.3634 -0.0454
  294loPI   C3A 4697   2.178   4.332   9.390  0.0037  0.0257  0.2494
  294loPI   C4A 4698   2.289   4.347   8.951 -0.2520  0.0043  0.0106
  294loPI   C5A 4699   2.242   4.398   8.513  0.0518 -0.3433  0.0762
  294loPI   C6A 4700   2.158   4.060   8.229  0.1570  0.0605 -0.1197
  294loPI   C1B 4701   2.843   4.106   9.591 -0.4717  0.0587  0.0424
  294loPI   C2B 4702   2.735   4.259   9.276 -0.0736  0.5110  0.1099
  294loPI   C3B 4703   2.729   4.322   8.781  0.0956  0.0188  0.0364
  294loPI   C4B 4704   2.861   4.557   8.388  0.0112 -0.1642  0.1156
  295loPI    C1 4705   2.243   3.340  10.641  0.1261  0.0346 -0.1835
  295loPI    C2 4706   2.498   3.109  10.845  0.0157  0.0632 -0.0114
  295loPI    C3 4707   2.502   3.506  10.897 -0.1916  0.0476  0.1368
  295loPI   PO4 4708   2.221   3.277  10.406 -0.2630  0.0198  0.2479
  295loPI   GL1 4709   2.456   3.456  10.128 -0.1064  0.0883 -0.0552
  295loPI   GL2 4710   2.168   3.388   9.930 -0.4213 -0.0907 -0.0789
  295loPI   C1A 4711   2.768   3.524   9.803  0.0892  0.0880  0.0366
  295loPI   C2A 4712   2.826   3.589   9.404 -0.0248  0.4006 -0.0904
  295loPI   C3A 4713   3.027   3.897   9.095 -0.2413 -0.2169  0.1914
  295loPI   C4A 4714   2.926   3.884   8.675  0.3521  0.2310 -0.4664
  295loPI   C5A 4715   2.716   4.061   8.216 -0.0599 -0.1030  0.0365
  295loPI   C6A 4716   2.521   4.123   7.857 -0.2167  0.2558  0.0288
  295loPI   C1B 4717   2.316   3.588   9.607  0.0370  0.4303  0.0867
  295loPI   C2B 4718   2.519   3.818   9.122  0.1261  0.1781  0.0672
  295loPI   C3B 4719   2.391   3.914   8.705 -0.1664  0.2355 -0.0463
  295loPI   C4B 4720   2.478   3.645   8.319 -0.0073  0.2664 -0.0706
  296loPI    C1 4721   9.362   2.540  10.271  0.1435 -0.2683  0.1405
  296loPI    C2 4722   9.479   2.396  10.625 -0.1614  0.0922  0.3966
  296loPI    C3 4723   9.564   2.774  10.524 -0.3330  0.0832  0.2114
  296loPI   PO4 4724   9.332   2.244  10.167  0.1140 -0.0053 -0.1265
  296loPI   GL1 4725   9.287   2.079   9.813  0.0587 -0.1086 -0.0989
  296loPI   GL2 4726   9.297   2.274   9.558 -0.1637 -0.2174 -0.1036
  296loPI   C1A 4727   9.168   1.855   9.378  0.2383  0.0063  0.2542
  296loPI   C2A 4728   9.223   1.756   8.971  0.0696  0.2166  0.0376
  296loPI   C3A 4729   9.054   1.823   8.533 -0.3222 -0.3764  0.0100
  296loPI   C4A 4730   8.903   1.661   8.197 -0.0424 -0.0945  0.2609
  296loPI   C5A 4731   8.935   1.915   7.751 -0.5038 -0.0183  0.1127
  296loPI   C6A 4732   8.754   1.991   7.442  0.0070 -0.1350  0.1973
  296loPI   C1B 4733   9.384   2.377   9.198 -0.4488  0.1473 -0.1675
  296loPI   C2B 4734   9.555   2.620   8.860 -0.0881  0.2172 -0.1443
  296loPI   C3B 4735   9.358   2.901   8.531 -0.3235 -0.3775  0.1498
  296loPI   C4B 4736   9.445   2.980   8.150  0.0971  0.2667  0.2794
  297loPI    C1 4737   2.654   7.842  10.390  0.1004  0.0513  0.0646
  297loPI    C2 4738   2.306   7.932  10.565  0.0467 -0.1034  0.0385
  297loPI    C3 4739   2.609   7.787  10.783  0.0309 -0.1503  0.0295
  297loPI   PO4 4740   2.636   7.745  10.093 -0.2868 -0.2627  0.0198
  297loPI   GL1 4741   2.490   7.617   9.744 -0.0952 -0.3083 -0.1627
  297loPI   GL2 4742   2.609   7.361   9.715  0.0692 -0.3144 -0.2254
  297loPI   C1A 4743   2.573   7.716   9.352  0.0638  0.1522  0.1084
  297loPI   C2A 4744   2.576   7.813   9.011  0.0905  0.0631 -0.2229
  297loPI   C3A 4745   2.660   7.789   8.588  0.0607 -0.0039 -0.0051
  297loPI   C4A 4746   2.743   7.773   8.123 -0.2401 -0.3699  0.1058
  297loPI   C5A 4747   2.640   7.614   7.747 -0.1980  0.2064 -0.0308
  297loPI   C6A 4748   2.480   7.761   7.414 -0.1239  0.0669  0.4049
  297loPI   C1B 4749   2.461   7.139   9.434  0.2700  0.0601 -0.1330
  297loPI   C2B 4750   2.440   6.971   9.059  0.0187 -0.1854 -0.0542
  297loPI   C3B 4751   2.441   6.758   8.836  0.2971 -0.0386  0.0601
  297loPI   C4B 4752   2.254   6.695   8.440  0.2891  0.0256  0.0058
  298loPI    C1 4753   3.258  17.951  10.141 -0.0625  0.1013 -0.0413
  298loPI    C2 4754   2.932  18.039  10.356 -0.0373 -0.0255  0.0503
  298loPI    C3 4755   2.931  17.722  10.111 -0.0036  0.0108  0.0030
  298loPI   PO4 4756   3.397  18.165  10.254  0.1272  0.2804  0.0493
  298loPI   GL1 4757   3.589  18.349   9.860  0.0486 -0.2452  0.1767
  298loPI   GL2 4758   3.261  18.647   9.843 -0.2777 -0.2678 -0.1164
  298loPI   C1A 4759   3.262  18.221   9.635 -0.2985  0.1629  0.1446
  298loPI   C2A 4760   3.100  18.217   9.273 -0.0769  0.2728 -0.0585
  298loPI   C3A 4761   3.184  18.089   8.768  0.1110 -0.3346  0.0730
  298loPI   C4A 4762   2.940  17.879   8.391 -0.0678  0.1463  0.1650
  298loPI   C5A 4763   2.630  17.642   8.473 -0.0164 -0.0464 -0.2532
  298loPI   C6A 4764   2.480  17.287   8.291 -0.0663 -0.1341  0.0570
  298loPI   C1B 4765   3.080  18.682   9.391  0.0672 -0.2200 -0.1226
  298loPI   C2B 4766   2.989  18.942   8.978 -0.1589 -0.1550  0.2025
  298loPI   C3B 4767   2.891  19.025   8.568 -0.3514  0.2157 -0.1681
  298loPI   C4B 4768   2.768  19.175   8.184 -0.1372 -0.0434  0.1257
  299loPI    C1 4769   7.018  10.936  10.481 -0.1159 -0.0739  0.0358
  299loPI    C2 4770   6.675  11.003  10.674 -0.1300 -0.0609  0.0062
  299loPI    C3 4771   6.998  11.223  10.758 -0.1531 -0.0131 -0.0295
  299loPI   PO4 4772   6.996  10.859  10.159  0.0384 -0.0601  0.0616
  299loPI   GL1 4773   7.136  10.938   9.708  0.3688  0.1904  0.0388
  299loPI   GL2 4774   7.045  11.274   9.832 -0.0646  0.1344  0.0371
  299loPI   C1A 4775   7.163  10.651   9.310 -0.0139  0.1530 -0.3232
  299loPI   C2A 4776   7.247  10.631   8.935  0.2420 -0.2666 -0.0157
  299loPI   C3A 4777   7.414  10.700   8.535 -0.1761  0.0434  0.1621
  299loPI   C4A 4778   7.459  10.450   8.151  0.0689 -0.0434 -0.1052
  299loPI   C5A 4779   7.592  10.277   7.835 -0.0840 -0.2355 -0.2424
  299loPI   C6A 4780   7.953  10.129   7.612  0.0858  0.0277 -0.0613
  299loPI   C1B 4781   7.028  11.487   9.462  0.1197 -0.3002 -0.0870
  299loPI   C2B 4782   7.064  11.601   9.052  0.1341  0.1191  0.0081
  299loPI   C3B 4783   7.024  11.824   8.710  0.1788 -0.1506 -0.0234
  299loPI   C4B 4784   7.108  11.876   8.237  0.1487  0.1986  0.0220
  300loPI    C1 4785   2.866   2.698  10.859  0.0308 -0.1492  0.0958
  300loPI    C2 4786   2.491   2.603  10.961 -0.0721  0.4184  0.2820
  300loPI    C3 4787   2.744   2.745  11.237  0.3156 -0.0412  0.1771
  300loPI   PO4 4788   2.770   2.790  10.580  0.0831  0.1178  0.1180
  300loPI   GL1 4789   2.633   2.908  10.156  0.1844 -0.0957  0.0734
  300loPI   GL2 4790   2.600   2.559   9.914  0.1163 -0.0356 -0.1277
  300loPI   C1A 4791   2.473   3.047   9.840 -0.1834 -0.2255  0.1585
  300loPI   C2A 4792   2.540   3.152   9.470 -0.1007 -0.0706 -0.1027
  300loPI   C3A 4793   2.609   3.305   9.053  0.4319 -0.1532 -0.1594
  300loPI   C4A 4794   2.597   2.974   8.859 -0.1067 -0.2187 -0.1857
  300loPI   C5A 4795   2.185   2.847   8.618 -0.2328 -0.1236 -0.2490
  300loPI   C6A 4796   2.005   2.514   8.756  0.0261  0.1873 -0.0237
  300loPI   C1B 4797   2.758   2.657   9.620 -0.1473 -0.1712 -0.0420
  300loPI   C2B 4798   2.652   2.620   9.227 -0.2203  0.0372  0.1441
  300loPI   C3B 4799   2.598   2.486   8.848 -0.0927  0.0480 -0.1795
  300loPI   C4B 4800   2.595   2.286   8.402  0.3452 -0.0904 -0.0549
  301loPI    C1 4801   0.281   4.808  10.455 -0.0107  0.0091 -0.1157
  301loPI    C2 4802   0.447   4.568  10.729 -0.0258  0.0391 -0.0803
  301loPI    C3 4803   0.663   4.862  10.564 -0.0701  0.1369  0.0337
  301loPI   PO4 4804   0.140   4.617  10.300  0.1981 -0.0050  0.0873
  301loPI   GL1 4805   0.103   4.413   9.858  0.1322  0.4127 -0.1127
  301loPI   GL2 4806   0.116   4.739   9.651  0.2985  0.1249 -0.3237
  301loPI   C1A 4807   0.067   4.269   9.391  0.1730 -0.1043  0.0443
  301loPI   C2A 4808  -0.029   4.156   9.011 -0.3671  0.0150  0.0865
  301loPI   C3A 4809   0.149   4.137   8.496 -0.0489  0.0315 -0.2007
  301loPI   C4A 4810   0.142   4.020   8.105  0.2780  0.2204 -0.1575
  301loPI   C5A 4811   0.290   3.667   7.834  0.1837 -0.1470 -0.0863
  301loPI   C6A 4812   0.337   3.228   7.715  0.0680 -0.1464 -0.3091
  301loPI   C1B 4813   0.272   4.694   9.188 -0.0973  0.2175  0.0305
  301loPI   C2B 4814   0.380   4.590   8.762 -0.0905 -0.0048  0.2069
  301loPI   C3B 4815   0.364   4.596   8.386  0.0022 -0.0327 -0.0679
  301loPI   C4B 4816   0.084   4.532   8.100  0.0266 -0.0207 -0.5001
  302loPI    C1 4817   3.297  15.400  10.641 -0.0177  0.0826 -0.1021
  302loPI    C2 4818   3.052  15.084  10.672  0.1084 -0.0115 -0.0564
  302loPI    C3 4819   3.289  15.185  10.979  0.3771 -0.1293 -0.2220
  302loPI   PO4 4820   3.474  15.365  10.501  0.1626 -0.1294 -0.1888
  302loPI   GL1 4821   3.510  15.264  10.020  0.2424 -0.0459 -0.0939
  302loPI   GL2 4822   3.302  15.113  10.107  0.1750  0.1508 -0.1014
  302loPI   C1A 4823   3.330  15.315   9.665  0.2780  0.1671  0.0276
  302loPI   C2A 4824   3.145  15.177   9.311 -0.3027 -0.0050 -0.0806
  302loPI   C3A 4825   2.961  15.324   8.911 -0.4720 -0.0452 -0.2703
  302loPI   C4A 4826   2.553  15.177   8.789  0.0915  0.1662 -0.0284
  302loPI   C5A 4827   2.149  15.468   8.691 -0.0432  0.1376 -0.1709
  302loPI   C6A 4828   1.844  15.696   8.508 -0.0346  0.2678 -0.1043
  302loPI   C1B 4829   2.898  15.196   9.911 -0.2115 -0.0664  0.1962
  302loPI   C2B 4830   2.890  15.588   9.597  0.3966  0.0642  0.2083
  302loPI   C3B 4831   2.868  15.947   9.315 -0.1745  0.2272 -0.2405
  302loPI   C4B 4832   2.972  16.050   8.953 -0.2636  0.1442 -0.0398
  303loPI    C1 4833  16.445   5.074  10.514 -0.2099  0.0077  0.0506
  303loPI    C2 4834  16.187   4.973  10.803 -0.1828 -0.1320  0.0268
  303loPI    C3 4835  16.580   4.935  10.864 -0.1722 -0.0424  0.0162
  303loPI   PO4 4836  16.376   4.950  10.256 -0.0441  0.0279  0.0795
  303loPI   GL1 4837  16.329   5.030   9.908 -0.0619  0.2803  0.2597
  303loPI   GL2 4838  16.634   5.077   9.793 -0.1751  0.0283  0.1299
  303loPI   C1A 4839  16.092   4.999   9.571 -0.2100 -0.0595  0.2260
  303loPI   C2A 4840  16.000   5.034   9.093  0.0984  0.0146  0.0162
  303loPI   C3A 4841  15.926   4.756   8.723  0.0194 -0.1760 -0.1291
  303loPI   C4A 4842  15.669   4.564   8.341 -0.0735  0.1542  0.1402
  303loPI   C5A 4843  15.204   4.488   8.305  0.0680 -0.0972 -0.1049
  303loPI   C6A 4844  14.925   4.378   8.042 -0.2053 -0.0237  0.0891
  303loPI   C1B 4845  16.544   5.092   9.295  0.1575 -0.0469  0.0653
  303loPI   C2B 4846  16.739   5.330   8.977  0.1606  0.0489 -0.3658
  303loPI   C3B 4847  16.997   5.432   8.685 -0.1645 -0.0129  0.1372
  303loPI   C4B 4848  17.388   5.471   8.465  0.1809  0.1637  0.1711
  304loPI    C1 4849  13.525   5.490  10.499  0.2386  0.1670 -0.2071
  304loPI    C2 4850  13.554   5.173  10.741 -0.1795  0.2144 -0.0873
  304loPI    C3 4851  13.737   5.515  10.838 -0.2241  0.1894  0.0895
  304loPI   PO4 4852  13.510   5.281  10.193 -0.0145 -0.2587  0.0270
  304loPI   GL1 4853  13.629   5.311   9.808 -0.1572  0.2335  0.0565
  304loPI   GL2 4854  13.902   5.286   9.612  0.1086  0.2136 -0.0389
  304loPI   C1A 4855  13.524   4.967   9.421  0.1175 -0.1635  0.1093
  304loPI   C2A 4856  13.602   4.883   8.960 -0.1911  0.1553 -0.1760
  304loPI   C3A 4857  13.528   4.885   8.623  0.0009 -0.0468  0.0570
  304loPI   C4A 4858  13.498   4.818   8.265 -0.0108 -0.0100  0.0594
  304loPI   C5A 4859  13.457   5.111   7.922 -0.1298 -0.3184  0.0591
  304loPI   C6A 4860  13.746   5.294   7.601 -0.2090 -0.2025 -0.4094
  304loPI   C1B 4861  13.962   5.255   9.180  0.0841  0.3446  0.0792
  304loPI   C2B 4862  13.955   5.127   8.745  0.0279 -0.1951  0.0557
  304loPI   C3B 4863  13.935   5.130   8.233  0.1148 -0.0474 -0.2868
  304loPI   C4B 4864  14.015   4.918   7.861 -0.1069  0.2091 -0.4006
  305loPI    C1 4865  17.606  12.170   9.916  0.0526  0.3135 -0.0391
  305loPI    C2 4866  17.338  12.150  10.213  0.0244  0.0540 -0.0795
  305loPI    C3 4867  17.698  11.981  10.257  0.1086  0.2245 -0.1034
  305loPI   PO4 4868  17.573  11.964   9.708  0.0738 -0.3360  0.0378
  305loPI   GL1 4869  17.732  11.947   9.352 -0.3522  0.1525  0.0882
  305loPI   GL2 4870  17.384  11.822   9.295  0.3268 -0.1673  0.1058
  305loPI   C1A 4871  18.003  11.965   8.944  0.2042  0.2007  0.1068
  305loPI   C2A 4872  18.115  11.662   8.580 -0.4552 -0.0333  0.0276
  305loPI   C3A 4873  18.468  11.509   8.328 -0.4001 -0.1987 -0.1804
  305loPI   C4A 4874  18.618  11.140   8.094  0.4514 -0.4117  0.2286
  305loPI   C5A 4875  18.923  10.763   8.194 -0.5189 -0.2898  0.0622
  305loPI   C6A 4876  18.842  10.503   8.409 -0.0480  0.0211  0.2832
  305loPI   C1B 4877  17.452  12.224   9.089  0.0585 -0.0983  0.1055
  305loPI   C2B 4878  17.634  12.284   8.711 -0.1760  0.0901  0.1060
  305loPI   C3B 4879  17.944  12.187   8.474  0.0384 -0.0763  0.1487
  305loPI   C4B 4880  18.085  11.902   8.159 -0.5688  0.4787  0.3203
  306loPI    C1 4881   3.496   5.885  10.227 -0.1653 -0.2017  0.0250
  306loPI    C2 4882   3.630   6.145  10.500  0.0012 -0.0980 -0.1524
  306loPI    C3 4883   3.364   5.865  10.604 -0.0121  0.0024  0.0917
  306loPI   PO4 4884   3.458   6.064   9.947 -0.0971  0.3097  0.0174
  306loPI   GL1 4885   3.157   6.090   9.675 -0.2834 -0.2126  0.2717
  306loPI   GL2 4886   2.953   6.348   9.676 -0.2956 -0.1724 -0.1651
  306loPI   C1A 4887   3.047   5.769   9.442  0.2340 -0.1171 -0.0367
  306loPI   C2A 4888   2.888   5.543   9.170 -0.3336 -0.1863 -0.1416
  306loPI   C3A 4889   2.800   5.568   8.702  0.2160  0.2220  0.0646
  306loPI   C4A 4890   2.952   5.510   8.334 -0.4907 -0.0646 -0.0034
  306loPI   C5A 4891   3.277   5.429   7.977  0.1720 -0.1991  0.2803
  306loPI   C6A 4892   3.429   5.553   7.538  0.0480 -0.0650 -0.0863
  306loPI   C1B 4893   3.008   6.328   9.219 -0.1534  0.2296  0.1020
  306loPI   C2B 4894   2.866   6.037   8.943 -0.0472  0.1464  0.0304
  306loPI   C3B 4895   2.879   6.147   8.636 -0.0904 -0.1976 -0.0744
  306loPI   C4B 4896   2.696   6.437   8.286 -0.1968  0.2011  0.1456
  307loPI    C1 4897  12.979  15.335   9.794  0.1768  0.0925 -0.2596
  307loPI    C2 4898  13.036  14.950   9.884  0.1542  0.1243 -0.1052
  307loPI    C3 4899  12.670  15.081   9.789  0.1151  0.1553  0.0849
  307loPI   PO4 4900  13.165  15.468   9.739 -0.2012  0.1265 -0.1728
  307loPI   GL1 4901  13.453  15.440   9.432 -0.3382 -0.1365  0.1714
  307loPI   GL2 4902  13.661  15.811   9.597  0.0827 -0.2035 -0.0630
  307loPI   C1A 4903  13.543  15.226   9.080  0.1879  0.2008  0.0405
  307loPI   C2A 4904  13.585  15.182   8.689  0.2893 -0.2028 -0.2506
  307loPI   C3A 4905  13.672  15.294   8.360  0.1895  0.1731  0.1432
  307loPI   C4A 4906  13.636  15.751   8.236  0.1113  0.1675  0.0809
  307loPI   C5A 4907  13.608  16.007   7.814  0.1476 -0.2192  0.1817
  307loPI   C6A 4908  13.432  16.349   7.649  0.1574 -0.1270  0.0773
  307loPI   C1B 4909  13.714  15.788   9.163 -0.1407 -0.0030  0.2667
  307loPI   C2B 4910  13.625  15.706   8.719 -0.0586  0.0734  0.0031
  307loPI   C3B 4911  13.216  15.840   8.434 -0.3802  0.0475 -0.2213
  307loPI   C4B 4912  13.247  16.072   8.138  0.1978  0.3537  0.2293
  308loPI    C1 4913   7.444  14.284  10.927 -0.1113  0.0475  0.0813
  308loPI    C2 4914   7.429  14.660  11.062  0.0246  0.0472  0.0990
  308loPI    C3 4915   7.204  14.377  11.233 -0.0865  0.1221  0.0784
  308loPI   PO4 4916   7.562  14.347  10.674 -0.0251  0.0278 -0.1265
  308loPI   GL1 4917   7.352  14.543  10.410 -0.2271 -0.2911  0.0784
  308loPI   GL2 4918   7.337  14.884  10.286 -0.1950 -0.0615 -0.2364
  308loPI   C1A 4919   7.106  14.473   9.980  0.2200  0.1716  0.0048
  308loPI   C2A 4920   6.943  14.564   9.624  0.1110 -0.2150 -0.0960
  308loPI   C3A 4921   6.899  14.620   9.217  0.2506 -0.1842  0.3423
  308loPI   C4A 4922   6.887  14.613   8.768 -0.0965  0.1145 -0.3082
  308loPI   C5A 4923   6.858  14.685   8.405  0.3508 -0.0793 -0.0324
  308loPI   C6A 4924   6.902  14.673   7.980  0.0802 -0.2121  0.2373
  308loPI   C1B 4925   7.106  15.086  10.066 -0.1547 -0.1056 -0.0755
  308loPI   C2B 4926   7.182  15.195   9.619  0.1317  0.0075 -0.0646
  308loPI   C3B 4927   7.096  15.219   9.158  0.1574 -0.0398 -0.1558
  308loPI   C4B 4928   7.010  15.138   8.702 -0.0716 -0.1647  0.2273
  309loPI    C1 4929  18.133   6.770  10.494  0.1391  0.1361 -0.1604
  309loPI    C2 4930  18.020   6.417  10.644  0.0143  0.3998  0.3916
  309loPI    C3 4931  18.402   6.478  10.543 -0.0002  0.0484  0.1042
  309loPI   PO4 4932  18.019   6.724  10.267  0.4448 -0.3336 -0.1359
  309loPI   GL1 4933  17.944   6.472   9.898  0.1105 -0.1519 -0.3134
  309loPI   GL2 4934  17.710   6.467   9.735  0.2132  0.0866 -0.3863
  309loPI   C1A 4935  18.277   6.475   9.577 -0.2489  0.1033  0.2572
  309loPI   C2A 4936  18.585   6.589   9.295  0.0987  0.2961 -0.1632
  309loPI   C3A 4937  18.919   6.470   9.030 -0.1327  0.0308  0.0485
  309loPI   C4A 4938  19.078   6.347   8.613 -0.1635 -0.2914  0.1907
  309loPI   C5A 4939  19.247   6.417   8.217 -0.1940 -0.1964  0.3782
  309loPI   C6A 4940  19.520   6.501   7.807 -0.2271  0.0689 -0.1047
  309loPI   C1B 4941  17.880   6.325   9.384 -0.0510  0.1274  0.3153
  309loPI   C2B 4942  18.081   6.276   8.960 -0.2438 -0.1338 -0.1914
  309loPI   C3B 4943  17.945   6.200   8.551 -0.0409 -0.0174  0.0849
  309loPI   C4B 4944  18.202   5.931   8.292  0.1502  0.0307  0.0386
  310loPI    C1 4945  18.297  11.897  10.494  0.0527 -0.2417 -0.2101
  310loPI    C2 4946  17.975  11.671  10.570  0.0373 -0.1169  0.1103
  310loPI    C3 4947  18.327  11.582  10.739  0.1096 -0.0973 -0.0288
  310loPI   PO4 4948  18.275  12.009  10.267  0.1216 -0.1631  0.2132
  310loPI   GL1 4949  18.373  12.165   9.910  0.1055  0.0043 -0.0760
  310loPI   GL2 4950  18.205  12.330   9.748 -0.0528 -0.2313 -0.3686
  310loPI   C1A 4951  18.424  11.972   9.429  0.2486  0.3036  0.0653
  310loPI   C2A 4952  18.488  12.021   9.029 -0.2380 -0.0966 -0.0423
  310loPI   C3A 4953  18.447  12.118   8.653  0.1569 -0.2360 -0.2251
  310loPI   C4A 4954  18.525  12.181   8.210 -0.0086  0.5179 -0.0843
  310loPI   C5A 4955  18.677  12.500   8.018  0.1065  0.1587 -0.0991
  310loPI   C6A 4956  19.025  12.548   7.850 -0.1465 -0.3830  0.2615
  310loPI   C1B 4957  18.078  12.307   9.345  0.1036 -0.2599  0.1645
  310loPI   C2B 4958  18.142  12.431   8.998 -0.0674  0.1431  0.0663
  310loPI   C3B 4959  18.227  12.530   8.614  0.0342  0.2257  0.3069
  310loPI   C4B 4960  18.171  12.509   8.075 -0.0129  0.1075 -0.1491
  311loPI    C1 4961   4.248  10.640  10.438 -0.3046 -0.1032  0.0764
  311loPI    C2 4962   3.968  10.683  10.720 -0.1030  0.0630  0.2541
  311loPI    C3 4963   4.353  10.648  10.824 -0.0315  0.0825  0.0010
  311loPI   PO4 4964   4.021  10.588  10.194  0.3259  0.0098  0.0926
  311loPI   GL1 4965   4.032  10.470   9.790 -0.1606 -0.1039 -0.0073
  311loPI   GL2 4966   3.781  10.474   9.609  0.3370 -0.2329 -0.2581
  311loPI   C1A 4967   4.311  10.554   9.442 -0.1783  0.2263 -0.0200
  311loPI   C2A 4968   4.564  10.472   9.234  0.1118 -0.2137 -0.0927
  311loPI   C3A 4969   4.649  10.409   8.817 -0.1470 -0.4484 -0.3436
  311loPI   C4A 4970   4.642  10.645   8.410 -0.0413  0.0689  0.0166
  311loPI   C5A 4971   4.620  10.639   7.987 -0.2276 -0.2151 -0.1060
  311loPI   C6A 4972   4.510  10.478   7.524 -0.1657 -0.0203 -0.3579
  311loPI   C1B 4973   3.774  10.600   9.166  0.0249  0.4193  0.0292
  311loPI   C2B 4974   3.775  10.706   8.704  0.2120  0.0128  0.0120
  311loPI   C3B 4975   3.878  10.662   8.234 -0.2118 -0.0048  0.0485
  311loPI   C4B 4976   4.116  10.573   7.972  0.0773  0.0565  0.2240
  312loPI    C1 4977   5.394   3.073  10.450 -0.0999  0.3049  0.0570
  312loPI    C2 4978   5.363   3.132  10.844 -0.1783  0.0597  0.0888
  312loPI    C3 4979   5.042   3.021  10.633 -0.0952  0.0123 -0.0134
  312loPI   PO4 4980   5.579   3.287  10.412  0.0560  0.1409  0.0381
  312loPI   GL1 4981   5.819   3.388  10.119  0.0654  0.0630  0.1943
  312loPI   GL2 4982   5.787   3.689  10.021  0.0217 -0.0763 -0.2586
  312loPI   C1A 4983   6.046   3.362   9.737  0.1930  0.0802  0.0547
  312loPI   C2A 4984   6.023   3.431   9.406  0.0176 -0.2122  0.1452
  312loPI   C3A 4985   6.053   3.412   9.019 -0.1006  0.2403 -0.4869
  312loPI   C4A 4986   5.957   3.032   8.755 -0.2807 -0.0927 -0.1545
  312loPI   C5A 4987   5.841   3.047   8.366  0.0453  0.2372  0.0928
  312loPI   C6A 4988   5.870   3.060   7.954 -0.0272  0.1484  0.2369
  312loPI   C1B 4989   5.567   3.459   9.643  0.0205  0.0199  0.0908
  312loPI   C2B 4990   5.152   3.307   9.490  0.2118  0.1567 -0.2995
  312loPI   C3B 4991   5.005   3.336   9.072  0.0258 -0.2469  0.0368
  312loPI   C4B 4992   4.731   3.301   8.795 -0.0181 -0.0136 -0.3742
  313loPI    C1 4993  14.449   6.680  10.178 -0.0586 -0.1503 -0.1671
  313loPI    C2 4994  14.341   6.421  10.464  0.1340 -0.0215  0.0251
  313loPI    C3 4995  14.727   6.463  10.366  0.0708 -0.0565 -0.2489
  313loPI   PO4 4996  14.306   6.727  10.048 -0.1060  0.2029  0.1945
  313loPI   GL1 4997  14.244   7.046   9.758 -0.0310  0.0336  0.0780
  313loPI   GL2 4998  14.483   6.901   9.584  0.1957  0.0506  0.2244
  313loPI   C1A 4999  14.039   7.230   9.414 -0.2185  0.2442 -0.0692
  313loPI   C2A 5000  13.965   7.212   8.981  0.1751  0.1678  0.0823
  313loPI   C3A 5001  14.019   7.411   8.619 -0.0278  0.2679 -0.0808
  313loPI   C4A 5002  14.344   7.520   8.401 -0.0409  0.4179  0.0536
  313loPI   C5A 5003  14.479   7.287   8.057  0.0396  0.0316 -0.0502
  313loPI   C6A 5004  14.745   7.049   7.851 -0.0223  0.2848  0.0424
  313loPI   C1B 5005  14.403   6.972   9.203 -0.0365 -0.0540 -0.0985
  313loPI   C2B 5006  14.216   6.800   8.837  0.2960  0.3191  0.2970
  313loPI   C3B 5007  14.176   6.953   8.431  0.1295  0.1602  0.1530
  313loPI   C4B 5008  14.009   7.176   8.066  0.3630 -0.1889 -0.2223
  314loPI    C1 5009  16.135   8.602  10.275 -0.0657  0.0562  0.0450
  314loPI    C2 5010  16.009   8.244  10.150  0.1194 -0.0635  0.1978
  314loPI    C3 5011  15.770   8.472  10.375 -0.1051  0.0303 -0.1286
  314loPI   PO4 5012  16.322   8.679  10.028 -0.1606 -0.1395 -0.3145
  314loPI   GL1 5013  16.329   8.524   9.604 -0.0006  0.1517  0.0222
  314loPI   GL2 5014  16.062   8.683   9.400 -0.3953  0.1898  0.0994
  314loPI   C1A 5015  16.520   8.404   9.266 -0.0264 -0.0842 -0.0650
  314loPI   C2A 5016  16.329   8.181   8.931 -0.1141  0.0033 -0.0788
  314loPI   C3A 5017  16.227   8.305   8.566  0.2915  0.0371  0.2023
  314loPI   C4A 5018  16.322   8.397   8.188  0.0728 -0.0150 -0.0017
  314loPI   C5A 5019  16.359   8.267   7.731  0.0964  0.1492  0.1344
  314loPI   C6A 5020  16.461   8.321   7.171  0.1816 -0.1080 -0.2339
  314loPI   C1B 5021  16.161   8.691   8.911 -0.1696  0.0909  0.1122
  314loPI   C2B 5022  16.107   8.849   8.475  0.2424 -0.1719 -0.1297
  314loPI   C3B 5023  16.359   8.857   7.972 -0.2039 -0.1113  0.0687
  314loPI   C4B 5024  16.625   9.201   7.739  0.1692 -0.2337  0.1916
  315loPI    C1 5025  11.644  12.978  10.287 -0.1461  0.0868 -0.0854
  315loPI    C2 5026  11.677  12.747  10.612  0.0459  0.2117 -0.0140
  315loPI    C3 5027  11.325  12.913  10.519 -0.0595  0.0061  0.0123
  315loPI   PO4 5028  11.879  12.755  10.062  0.2299 -0.3195 -0.1905
  315loPI   GL1 5029  12.067  12.746   9.716  0.1736 -0.1395 -0.0794
  315loPI   GL2 5030  12.174  12.606   9.456  0.2758 -0.2875 -0.2145
  315loPI   C1A 5031  11.844  12.915   9.290 -0.1607 -0.0794  0.0323
  315loPI   C2A 5032  11.893  12.970   8.873 -0.4085 -0.0376 -0.1222
  315loPI   C3A 5033  11.922  12.946   8.519  0.0508  0.1311  0.4627
  315loPI   C4A 5034  11.917  12.774   8.139 -0.0713 -0.2023  0.0760
  315loPI   C5A 5035  11.797  12.687   7.848 -0.0731 -0.1030  0.1780
  315loPI   C6A 5036  11.456  12.942   7.706  0.1072  0.2622  0.1552
  315loPI   C1B 5037  12.057  12.485   9.040 -0.1933  0.1933  0.0557
  315loPI   C2B 5038  12.026  12.435   8.583 -0.1349  0.0483 -0.1234
  315loPI   C3B 5039  11.946  12.278   8.127  0.1302  0.0124 -0.1346
  315loPI   C4B 5040  12.070  12.260   7.734  0.0584  0.0980 -0.0086
  316loPI    C1 5041   7.869  14.997  10.400 -0.0877  0.0665  0.1957
  316loPI    C2 5042   7.650  14.911  10.724 -0.0924 -0.1633  0.1332
  316loPI    C3 5043   7.948  14.668  10.613  0.0570  0.0347  0.0942
  316loPI   PO4 5044   7.783  15.220  10.344 -0.0203 -0.0371  0.3705
  316loPI   GL1 5045   7.702  15.307   9.878 -0.0131 -0.2824  0.1401
  316loPI   GL2 5046   7.466  15.496   9.991  0.1121 -0.0172 -0.1071
  316loPI   C1A 5047   7.559  15.380   9.401 -0.1903 -0.3971 -0.0340
  316loPI   C2A 5048   7.489  15.340   8.904  0.0917  0.1576  0.0579
  316loPI   C3A 5049   7.439  15.422   8.499 -0.1626 -0.0747 -0.0283
  316loPI   C4A 5050   7.716  15.718   8.297 -0.2137  0.3291  0.1415
  316loPI   C5A 5051   7.909  15.916   8.008  0.1318  0.1244 -0.3318
  316loPI   C6A 5052   8.247  16.171   7.931 -0.2389  0.0022 -0.2404
  316loPI   C1B 5053   7.546  15.790   9.623 -0.0966  0.0273 -0.0039
  316loPI   C2B 5054   7.549  15.860   9.202  0.2666  0.0279  0.4173
  316loPI   C3B 5055   7.556  15.856   8.804 -0.0639  0.3152 -0.0860
  316loPI   C4B 5056   7.438  16.128   8.475  0.4705  0.0885  0.1431
  317loPI    C1 5057  13.744   3.107  10.635 -0.1155 -0.1821  0.0579
  317loPI    C2 5058  13.736   3.352  10.952 -0.1735 -0.1201  0.0088
  317loPI    C3 5059  13.404   3.159  10.838 -0.1529 -0.1420 -0.0147
  317loPI   PO4 5060  13.959   3.227  10.470 -0.0955  0.0549 -0.0150
  317loPI   GL1 5061  14.167   3.010  10.109 -0.0783  0.2014  0.1602
  317loPI   GL2 5062  14.430   2.970  10.139  0.0114  0.1029  0.0961
  317loPI   C1A 5063  14.061   2.986   9.677  0.2360  0.1226  0.0642
  317loPI   C2A 5064  13.965   3.080   9.261 -0.0274  0.3937 -0.0726
  317loPI   C3A 5065  13.868   3.133   8.775 -0.4838  0.1180 -0.2060
  317loPI   C4A 5066  13.909   3.376   8.461 -0.1140 -0.0944  0.2225
  317loPI   C5A 5067  14.066   3.591   8.136  0.1203 -0.0637 -0.0118
  317loPI   C6A 5068  13.938   3.643   7.718 -0.1165 -0.0071 -0.0214
  317loPI   C1B 5069  14.544   2.843   9.721 -0.0971 -0.2189  0.1838
  317loPI   C2B 5070  14.754   2.784   9.318  0.0747 -0.0976 -0.1259
  317loPI   C3B 5071  14.835   2.622   8.850 -0.2485 -0.0184 -0.1090
  317loPI   C4B 5072  14.939   2.426   8.479 -0.1222 -0.5028  0.0483
  318loPI    C1 5073   2.558  12.009  10.507 -0.0023  0.1885 -0.1329
  318loPI    C2 5074   2.304  12.217  10.736  0.1051  0.0495  0.1170
  318loPI    C3 5075   2.578  11.980  10.906  0.1163 -0.1405 -0.1595
  318loPI   PO4 5076   2.415  11.941  10.208 -0.1318 -0.2462  0.1547
  318loPI   GL1 5077   2.642  12.155   9.898  0.0854  0.0457 -0.3207
  318loPI   GL2 5078   2.363  12.413   9.940  0.0596  0.2026 -0.3716
  318loPI   C1A 5079   2.628  12.145   9.485 -0.2408  0.7356 -0.1584
  318loPI   C2A 5080   2.545  12.039   9.009 -0.1294  0.1772 -0.2561
  318loPI   C3A 5081   2.180  11.746   8.781  0.1405 -0.0928  0.0986
  318loPI   C4A 5082   1.912  11.798   8.455 -0.0426 -0.2934 -0.0945
  318loPI   C5A 5083   1.825  11.515   8.268 -0.0826  0.0153  0.0076
  318loPI   C6A 5084   1.808  11.122   8.084 -0.2603  0.2513  0.1034
  318loPI   C1B 5085   2.195  12.535   9.512 -0.1603  0.2018  0.2346
  318loPI   C2B 5086   2.262  12.499   9.001 -0.4110  0.2109 -0.2805
  318loPI   C3B 5087   2.387  12.535   8.542 -0.1563 -0.1601 -0.0714
  318loPI   C4B 5088   2.206  12.538   8.175  0.2366  0.0210 -0.0734
  319loPI    C1 5089  11.619  10.576  10.187 -0.0606 -0.2594 -0.2441
  319loPI    C2 5090  11.275  10.382  10.248 -0.1399 -0.0708 -0.0762
  319loPI    C3 5091  11.319  10.756  10.382  0.1719 -0.1336  0.0057
  319loPI   PO4 5092  11.628  10.498   9.929 -0.2500 -0.2053  0.0444
  319loPI   GL1 5093  11.572  10.427   9.562 -0.1430  0.2321  0.1827
  319loPI   GL2 5094  11.291  10.585   9.375 -0.1571  0.1969 -0.0512
  319loPI   C1A 5095  11.734  10.291   9.108 -0.1398  0.0648 -0.2715
  319loPI   C2A 5096  11.867  10.151   8.735 -0.2636 -0.0148 -0.0391
  319loPI   C3A 5097  12.182  10.308   8.397  0.0621 -0.2256  0.0058
  319loPI   C4A 5098  12.284  10.644   8.232  0.0698 -0.1649  0.2834
  319loPI   C5A 5099  12.064  11.024   7.872  0.2591 -0.1481 -0.1885
  319loPI   C6A 5100  11.998  11.198   7.534 -0.1817  0.3812 -0.0176
  319loPI   C1B 5101  11.407  10.619   8.940 -0.0845  0.0600 -0.1772
  319loPI   C2B 5102  11.384  10.473   8.568 -0.1833  0.0742 -0.3896
  319loPI   C3B 5103  11.689  10.434   8.373  0.4135 -0.0859  0.1769
  319loPI   C4B 5104  11.822  10.553   7.980  0.1029 -0.0289  0.2277
  320loPI    C1 5105  18.018   9.364  10.405  0.1742  0.0763  0.1142
  320loPI    C2 5106  18.223   9.602  10.158 -0.0418  0.0972 -0.0479
  320loPI    C3 5107  18.349   9.548  10.534  0.0641  0.3878 -0.0395
  320loPI   PO4 5108  17.954   9.128  10.320  0.1596  0.2411 -0.0562
  320loPI   GL1 5109  18.030   9.093   9.819 -0.6207  0.4502 -0.1228
  320loPI   GL2 5110  18.367   9.228   9.785  0.2184 -0.3856 -0.0379
  320loPI   C1A 5111  17.910   9.053   9.394 -0.5074 -0.1458 -0.3812
  320loPI   C2A 5112  17.841   8.772   9.058  0.1337 -0.4552  0.1884
  320loPI   C3A 5113  17.814   8.564   8.562  0.2467  0.0856  0.1363
  320loPI   C4A 5114  17.519   8.285   8.407 -0.0524 -0.0005  0.1252
  320loPI   C5A 5115  17.603   7.884   8.315  0.0684 -0.3573 -0.3508
  320loPI   C6A 5116  17.421   7.371   8.365  0.1137  0.2244  0.1797
  320loPI   C1B 5117  18.528   9.093   9.397 -0.0980  0.0946  0.2288
  320loPI   C2B 5118  18.374   8.794   9.159  0.0554 -0.0532 -0.0437
  320loPI   C3B 5119  18.343   8.548   8.797 -0.0421 -0.1424 -0.1032
  320loPI   C4B 5120  18.228   8.432   8.365 -0.0434 -0.3072  0.0440
  321loPI    C1 5121  16.231   9.600  10.002 -0.0755 -0.0277 -0.0560
  321loPI    C2 5122  16.396   9.539  10.361  0.0858  0.1249 -0.1030
  321loPI    C3 5123  16.046   9.730  10.332  0.0579  0.0860 -0.0252
  321loPI   PO4 5124  16.277   9.752   9.859 -0.4328 -0.1238  0.4255
  321loPI   GL1 5125  16.431   9.780   9.481 -0.0196  0.1548  0.1187
  321loPI   GL2 5126  16.518   9.497   9.369 -0.2865 -0.1256 -0.1306
  321loPI   C1A 5127  16.799   9.987   9.201 -0.0786 -0.0635  0.1085
  321loPI   C2A 5128  16.821  10.008   8.672 -0.0367 -0.2422  0.0006
  321loPI   C3A 5129  17.037  10.198   8.231  0.2561 -0.1792 -0.1773
  321loPI   C4A 5130  17.081  10.435   7.922 -0.0232 -0.0613  0.0058
  321loPI   C5A 5131  17.355  10.525   7.737  0.1581 -0.0536 -0.1658
  321loPI   C6A 5132  17.328  10.848   7.451 -0.1277 -0.0557  0.2023
  321loPI   C1B 5133  16.625   9.580   8.893 -0.2037 -0.1017 -0.4319
  321loPI   C2B 5134  16.485   9.689   8.541 -0.0642  0.1101 -0.1356
  321loPI   C3B 5135  16.546  10.041   8.292 -0.0196  0.2567 -0.0189
  321loPI   C4B 5136  16.517  10.384   8.368  0.2058 -0.0126 -0.0672
  322loPI    C1 5137   0.595  12.487  10.299  0.1457  0.0036  0.1291
  322loPI    C2 5138   0.456  12.118  10.230  0.1423 -0.0051  0.1814
  322loPI    C3 5139   0.779  12.170  10.460  0.1369  0.0253  0.1822
  322loPI   PO4 5140   0.726  12.598   9.991  0.3684 -0.0718  0.1560
  322loPI   GL1 5141   0.799  12.502   9.623 -0.3989 -0.0308  0.2707
  322loPI   GL2 5142   0.669  12.258   9.601  0.0541 -0.1818  0.4476
  322loPI   C1A 5143   0.827  12.538   9.204  0.1631 -0.3554 -0.0567
  322loPI   C2A 5144   0.855  12.617   8.817  0.0289 -0.0603 -0.1141
  322loPI   C3A 5145   1.021  12.495   8.402 -0.4216  0.1729  0.0293
  322loPI   C4A 5146   1.337  12.197   8.583  0.1681  0.1674  0.0464
  322loPI   C5A 5147   1.479  12.323   9.005 -0.0042 -0.1160  0.2091
  322loPI   C6A 5148   1.704  12.385   9.397  0.0329 -0.0791  0.3211
  322loPI   C1B 5149   0.534  12.113   9.268 -0.0076 -0.0902 -0.0864
  322loPI   C2B 5150   0.592  12.188   8.847  0.3635  0.1757  0.1657
  322loPI   C3B 5151   0.658  12.205   8.459 -0.4104  0.0749  0.0247
  322loPI   C4B 5152   0.664  12.080   8.034 -0.2621  0.0018 -0.0026
  323loPI    C1 5153  16.888   1.556  10.799  0.0262  0.0392  0.0030
  323loPI    C2 5154  16.564   1.720  10.633  0.0197  0.0048 -0.0182
  323loPI    C3 5155  16.592   1.693  11.031 -0.0328 -0.0515 -0.0183
  323loPI   PO4 5156  17.122   1.575  10.516  0.0326 -0.1797 -0.0242
  323loPI   GL1 5157  17.155   1.274  10.170  0.1065 -0.2081 -0.1700
  323loPI   GL2 5158  17.398   1.376   9.962  0.1595 -0.3395 -0.2053
  323loPI   C1A 5159  16.772   1.480   9.939  0.0123 -0.2042  0.4969
  323loPI   C2A 5160  16.697   1.620   9.531 -0.2435  0.2792  0.2655
  323loPI   C3A 5161  16.583   1.685   9.171 -0.3717  0.2488 -0.0781
  323loPI   C4A 5162  16.540   1.737   8.733 -0.1892  0.2024 -0.3153
  323loPI   C5A 5163  16.358   1.879   8.274 -0.0473  0.3357 -0.0960
  323loPI   C6A 5164  16.074   1.833   8.112  0.1202  0.3396 -0.1825
  323loPI   C1B 5165  17.157   1.310   9.578 -0.0039  0.6265 -0.1728
  323loPI   C2B 5166  16.905   1.282   9.281  0.0233  0.4297  0.0375
  323loPI   C3B 5167  16.809   1.328   8.823  0.2486  0.2998  0.0082
  323loPI   C4B 5168  16.715   1.236   8.440 -0.1712  0.0798  0.2371
  324loPI    C1 5169  15.049   6.798  10.213  0.0141  0.1715 -0.0967
  324loPI    C2 5170  14.767   7.028  10.380  0.0207 -0.0020  0.1591
  324loPI    C3 5171  15.153   7.130  10.410  0.0009  0.1323 -0.0236
  324loPI   PO4 5172  14.861   6.714   9.885  0.4542  0.1678 -0.0622
  324loPI   GL1 5173  15.049   6.637   9.502  0.1780  0.1004  0.1556
  324loPI   GL2 5174  14.735   6.581   9.327  0.1258  0.1111 -0.2357
  324loPI   C1A 5175  14.996   6.985   9.202 -0.2403  0.2193  0.0042
  324loPI   C2A 5176  15.115   7.100   8.828  0.2772 -0.0671 -0.4418
  324loPI   C3A 5177  15.281   7.343   8.437  0.0717  0.1676 -0.1529
  324loPI   C4A 5178  15.233   7.219   8.089 -0.1140 -0.0863 -0.1433
  324loPI   C5A 5179  15.321   6.754   7.996  0.2135  0.0687 -0.3512
  324loPI   C6A 5180  15.290   6.463   7.763  0.0084 -0.0973  0.3396
  324loPI   C1B 5181  14.654   6.490   8.880  0.2181  0.3881  0.0042
  324loPI   C2B 5182  14.575   6.621   8.558 -0.1056 -0.1722 -0.2393
  324loPI   C3B 5183  14.769   6.566   8.228  0.1302  0.0107 -0.0975
  324loPI   C4B 5184  14.799   6.529   7.821 -0.1641  0.0175  0.1288
  325loPI    C1 5185  15.138   4.250  10.804  0.0244  0.1021 -0.0012
  325loPI    C2 5186  15.513   4.177  10.685  0.0341  0.1139  0.0221
  325loPI    C3 5187  15.364   3.987  11.004 -0.0655 -0.0815 -0.1384
  325loPI   PO4 5188  14.979   4.255  10.600  0.0791  0.1696 -0.0017
  325loPI   GL1 5189  14.819   3.993  10.251 -0.0509  0.1794  0.1841
  325loPI   GL2 5190  14.498   3.962  10.196  0.1026 -0.0116 -0.1681
  325loPI   C1A 5191  15.003   3.615  10.088  0.1085  0.1413 -0.2474
  325loPI   C2A 5192  15.393   3.443   9.848  0.0150 -0.0822  0.0009
  325loPI   C3A 5193  15.453   3.286   9.423 -0.1773 -0.2419 -0.1648
  325loPI   C4A 5194  15.697   3.192   8.944  0.1731  0.0028 -0.0195
  325loPI   C5A 5195  15.630   3.321   8.531 -0.2005  0.2322  0.1115
  325loPI   C6A 5196  15.390   3.546   8.210 -0.0573  0.0742 -0.1789
  325loPI   C1B 5197  14.724   3.839   9.745 -0.3008  0.0942  0.1311
  325loPI   C2B 5198  14.851   4.013   9.316 -0.1846  0.1279  0.0555
  325loPI   C3B 5199  15.131   4.018   8.992 -0.0697  0.1909  0.4153
  325loPI   C4B 5200  15.294   4.417   8.777  0.0253 -0.0411 -0.3178
  326loPI    C1 5201  14.413   7.701  10.318 -0.0371 -0.3496 -0.1073
  326loPI    C2 5202  14.753   7.494  10.363  0.1589 -0.0565 -0.2089
  326loPI    C3 5203  14.738   7.879  10.470 -0.1652 -0.0868 -0.1357
  326loPI   PO4 5204  14.270   7.566  10.036 -0.1363  0.3819 -0.4618
  326loPI   GL1 5205  14.212   7.718   9.656 -0.0772 -0.0287  0.2902
  326loPI   GL2 5206  14.442   7.575   9.581 -0.1227 -0.0018 -0.1248
  326loPI   C1A 5207  13.911   7.713   9.291 -0.0313  0.1777  0.1098
  326loPI   C2A 5208  13.676   7.644   8.970  0.0858  0.2213 -0.0465
  326loPI   C3A 5209  13.381   7.385   8.826 -0.1436  0.1029  0.2967
  326loPI   C4A 5210  13.093   7.158   8.482  0.0543 -0.1976  0.0595
  326loPI   C5A 5211  12.999   6.998   8.193 -0.3397 -0.0197  0.2283
  326loPI   C6A 5212  13.203   6.655   7.946  0.1252  0.4373 -0.1590
  326loPI   C1B 5213  14.382   7.611   9.221 -0.1003  0.4339 -0.0657
  326loPI   C2B 5214  14.425   7.464   8.920  0.0307  0.1263  0.1940
  326loPI   C3B 5215  14.624   7.074   8.714 -0.2818 -0.3186 -0.1727
  326loPI   C4B 5216  14.863   7.030   8.346  0.3321 -0.2894 -0.0171
  327loPI    C1 5217  12.131   4.398  10.389  0.0684  0.0183 -0.1251
  327loPI    C2 5218  12.213   4.787  10.347  0.1510  0.0187  0.0310
  327loPI    C3 5219  12.339   4.590  10.672  0.0195 -0.1141  0.0026
  327loPI   PO4 5220  12.105   4.270  10.180 -0.1174  0.1145  0.0221
  327loPI   GL1 5221  12.378   4.185   9.893 -0.2314  0.1012  0.3451
  327loPI   GL2 5222  12.385   4.539   9.886  0.0245 -0.3994 -0.2877
  327loPI   C1A 5223  12.157   3.974   9.575 -0.1135 -0.0855 -0.1550
  327loPI   C2A 5224  11.862   4.091   9.345  0.1719  0.0590  0.1610
  327loPI   C3A 5225  11.676   4.191   8.893  0.1616  0.0970 -0.1988
  327loPI   C4A 5226  11.611   4.330   8.503  0.3057  0.1982 -0.0431
  327loPI   C5A 5227  11.803   4.596   8.196 -0.0609  0.0176  0.2132
  327loPI   C6A 5228  11.833   4.931   7.915  0.0347  0.1484  0.2398
  327loPI   C1B 5229  12.064   4.495   9.588  0.2863  0.3322 -0.0559
  327loPI   C2B 5230  11.942   4.540   9.184 -0.0238 -0.0501 -0.1439
  327loPI   C3B 5231  11.907   4.632   8.811  0.0561 -0.1417  0.0161
  327loPI   C4B 5232  12.045   4.860   8.504 -0.1399  0.1751  0.0214
  328loPI    C1 5233   2.344   1.912  10.629 -0.1323 -0.0041  0.2135
  328loPI    C2 5234   2.576   2.101  10.894  0.1294 -0.0312  0.0081
  328loPI    C3 5235   2.219   1.958  11.006  0.1625  0.1077  0.2997
  328loPI   PO4 5236   2.559   1.827  10.500  0.1487 -0.2869  0.3270
  328loPI   GL1 5237   2.666   1.832   9.995  0.1287 -0.3079 -0.0655
  328loPI   GL2 5238   2.688   1.545  10.072 -0.1561 -0.1133  0.3888
  328loPI   C1A 5239   2.691   1.649   9.622  0.4092 -0.2309  0.3990
  328loPI   C2A 5240   2.799   1.480   9.164 -0.0352 -0.0304  0.2907
  328loPI   C3A 5241   2.937   1.635   8.846  0.0450  0.2744 -0.1303
  328loPI   C4A 5242   2.873   1.905   8.462  0.1223 -0.2523 -0.2223
  328loPI   C5A 5243   2.802   1.791   8.045  0.3700 -0.3849 -0.0615
  328loPI   C6A 5244   2.898   1.670   7.626  0.3566 -0.2106 -0.0499
  328loPI   C1B 5245   2.378   1.343   9.954  0.2164 -0.1522  0.0645
  328loPI   C2B 5246   1.999   1.367   9.685  0.1980 -0.1990  0.0698
  328loPI   C3B 5247   1.816   1.240   9.305 -0.2729  0.1942  0.1640
  328loPI   C4B 5248   1.903   1.226   8.814  0.0979 -0.0409 -0.0070
  329loPI    C1 5249  16.227  12.761   9.999 -0.0313  0.1297 -0.0464
  329loPI    C2 5250  16.428  12.611  10.310 -0.1167 -0.0316 -0.0681
  329loPI    C3 5251  16.219  12.368  10.071 -0.2346  0.1192 -0.1198
  329loPI   PO4 5252  16.477  12.978   9.858  0.0224 -0.0181 -0.1263
  329loPI   GL1 5253  16.741  12.988   9.528 -0.1699  0.0275 -0.0024
  329loPI   GL2 5254  16.985  12.773   9.515 -0.2549 -0.1114 -0.1360
  329loPI   C1A 5255  16.696  13.046   9.121  0.0660  0.2087  0.0217
  329loPI   C2A 5256  16.860  12.982   8.733 -0.0945  0.0232  0.0717
  329loPI   C3A 5257  16.904  12.758   8.299 -0.0132 -0.1921 -0.1870
  329loPI   C4A 5258  17.271  12.595   8.063  0.1149 -0.2158  0.1815
  329loPI   C5A 5259  17.664  12.658   8.240 -0.0082  0.3295 -0.3648
  329loPI   C6A 5260  17.891  12.861   8.366  0.1531 -0.1799  0.3103
  329loPI   C1B 5261  17.149  12.626   9.101  0.1274 -0.0283  0.2075
  329loPI   C2B 5262  17.155  12.503   8.690  0.4408  0.0006 -0.1990
  329loPI   C3B 5263  17.067  12.234   8.321  0.0373 -0.2035  0.1210
  329loPI   C4B 5264  17.086  11.808   7.981 -0.0448 -0.0071  0.0120
  330loPI    C1 5265  12.338  15.628   9.748 -0.0098  0.1172  0.0620
  330loPI    C2 5266  12.634  15.589  10.015 -0.0230  0.0864  0.0722
  330loPI    C3 5267  12.323  15.338  10.023  0.0787 -0.0479 -0.1051
  330loPI   PO4 5268  12.457  15.587   9.553  0.0388  0.0345  0.0900
  330loPI   GL1 5269  12.411  15.404   9.210  0.2271  0.0177 -0.0187
  330loPI   GL2 5270  12.295  15.141   9.152 -0.0474  0.0865  0.1609
  330loPI   C1A 5271  12.695  15.406   8.867  0.2055 -0.1669  0.1190
  330loPI   C2A 5272  12.441  15.365   8.418  0.0036  0.0274  0.0161
  330loPI   C3A 5273  12.348  15.054   8.143 -0.0125  0.3437 -0.0831
  330loPI   C4A 5274  11.894  14.980   7.928  0.1061 -0.0403 -0.1337
  330loPI   C5A 5275  11.577  15.262   7.935 -0.1272 -0.2135 -0.2905
  330loPI   C6A 5276  11.163  15.164   7.904  0.2481  0.1085 -0.2882
  330loPI   C1B 5277  12.053  14.807   8.866 -0.0870  0.0583  0.2164
  330loPI   C2B 5278  12.090  14.708   8.460 -0.1107  0.0159  0.1318
  330loPI   C3B 5279  12.280  14.427   8.124  0.2719  0.3097  0.0031
  330loPI   C4B 5280  12.104  14.560   7.718 -0.1721  0.3632  0.0988
  331loPI    C1 5281   7.218   7.193  10.233  0.1423 -0.0191 -0.0257
  331loPI    C2 5282   7.125   6.855  10.426 -0.3226  0.1599  0.0773
  331loPI    C3 5283   7.377   7.117  10.593  0.0487 -0.1335 -0.0076
  331loPI   PO4 5284   7.269   7.065  10.029 -0.1246  0.0579  0.2659
  331loPI   GL1 5285   7.107   6.846   9.662  0.0673 -0.0341  0.0089
  331loPI   GL2 5286   6.791   6.754   9.790  0.2232 -0.1481  0.3325
  331loPI   C1A 5287   6.896   6.953   9.256 -0.0385 -0.0464  0.0069
  331loPI   C2A 5288   6.595   6.643   8.992 -0.3232 -0.2764  0.2944
  331loPI   C3A 5289   6.492   6.726   8.602  0.2420  0.1196  0.2394
  331loPI   C4A 5290   6.355   6.513   8.290 -0.0094 -0.2335  0.1298
  331loPI   C5A 5291   6.286   6.385   7.767 -0.0821 -0.0202 -0.1912
  331loPI   C6A 5292   5.910   6.227   7.764  0.1498  0.1684  0.1380
  331loPI   C1B 5293   6.537   6.541   9.548 -0.2068 -0.0408  0.1064
  331loPI   C2B 5294   6.446   6.218   9.210 -0.1091 -0.0658 -0.1357
  331loPI   C3B 5295   6.375   6.050   8.850 -0.1652 -0.0010  0.0275
  331loPI   C4B 5296   6.243   5.986   8.469  0.0194 -0.2764 -0.2163
  332loPI    C1 5297   5.270   8.334  10.082 -0.2761 -0.1354  0.0392
  332loPI    C2 5298   5.281   7.989  10.285  0.2673 -0.1222  0.0473
  332loPI    C3 5299   5.488   8.305  10.416 -0.2362  0.2196  0.0476
  332loPI   PO4 5300   5.113   8.171   9.863 -0.0330  0.0598  0.3985
  332loPI   GL1 5301   4.836   8.245   9.557 -0.0296  0.1487  0.0777
  332loPI   GL2 5302   4.873   8.609   9.523 -0.0192 -0.0059 -0.1316
  332loPI   C1A 5303   5.104   8.334   9.191 -0.1827  0.1747 -0.0675
  332loPI   C2A 5304   5.086   8.713   8.980  0.0465 -0.2281 -0.2281
  332loPI   C3A 5305   5.174   9.105   8.683 -0.4556  0.0850 -0.2180
  332loPI   C4A 5306   5.171   9.204   8.203 -0.0473 -0.0724  0.0184
  332loPI   C5A 5307   4.854   9.134   7.808  0.2305 -0.1803  0.0601
  332loPI   C6A 5308   4.446   9.104   7.777  0.2466  0.0530  0.0293
  332loPI   C1B 5309   4.661   8.529   9.145 -0.0335 -0.1409  0.0065
  332loPI   C2B 5310   4.711   8.306   8.696 -0.1299 -0.1361  0.1776
  332loPI   C3B 5311   4.601   8.299   8.291 -0.0079  0.2166  0.0236
  332loPI   C4B 5312   4.592   8.007   7.942  0.1910 -0.2455 -0.2582
  333loPI    C1 5313   6.617  14.176  10.606  0.0418  0.1628  0.0638
  333loPI    C2 5314   6.485  13.799  10.575  0.1911  0.0956  0.2294
  333loPI    C3 5315   6.804  13.882  10.802  0.2325  0.3051  0.0979
  333loPI   PO4 5316   6.643  14.210  10.339  0.4413 -0.1791 -0.1627
  333loPI   GL1 5317   6.884  13.917  10.050 -0.0318  0.0331 -0.3005
  333loPI   GL2 5318   6.603  13.846  10.007  0.5064  0.3967 -0.0237
  333loPI   C1A 5319   6.959  14.054   9.647 -0.0793  0.1392  0.0714
  333loPI   C2A 5320   6.810  14.100   9.202  0.0501 -0.2694  0.3822
  333loPI   C3A 5321   6.775  14.148   8.757 -0.0574 -0.0952  0.0941
  333loPI   C4A 5322   6.787  14.167   8.342  0.1636  0.3009  0.0396
  333loPI   C5A 5323   6.707  14.107   7.924 -0.1573 -0.1863 -0.0920
  333loPI   C6A 5324   6.376  14.062   7.724  0.0779 -0.3175  0.1859
  333loPI   C1B 5325   6.817  13.541   9.744 -0.0178  0.1123 -0.1060
  333loPI   C2B 5326   6.769  13.549   9.236 -0.1191  0.3433 -0.4386
  333loPI   C3B 5327   6.744  13.390   8.884  0.4464  0.0101  0.0703
  333loPI   C4B 5328   6.574  13.308   8.440  0.1316 -0.1219  0.1654
  334loPI    C1 5329   0.999  13.285  10.580  0.0117 -0.0777 -0.1219
  334loPI    C2 5330   0.820  13.577  10.788  0.1199  0.0776 -0.2447
  334loPI    C3 5331   1.199  13.476  10.869 -0.0027 -0.2171 -0.0185
  334loPI   PO4 5332   0.852  13.464  10.304  0.0458  0.1902 -0.1085
  334loPI   GL1 5333   0.682  13.520   9.885 -0.1459 -0.0063 -0.5388
  334loPI   GL2 5334   0.320  13.485   9.926 -0.0230 -0.0480 -0.1666
  334loPI   C1A 5335   0.824  13.803   9.570  0.1205  0.0789  0.1266
  334loPI   C2A 5336   0.744  13.641   9.123  0.0186  0.0240  0.1753
  334loPI   C3A 5337   0.629  13.507   8.610 -0.4274  0.0580  0.1314
  334loPI   C4A 5338   0.343  13.587   8.305  0.2188  0.2158  0.4434
  334loPI   C5A 5339   0.380  13.332   8.073  0.0740 -0.1782 -0.0553
  334loPI   C6A 5340   0.471  12.971   7.823 -0.0756 -0.0264 -0.0783
  334loPI   C1B 5341   0.133  13.869   9.812 -0.5018 -0.2188 -0.0841
  334loPI   C2B 5342   0.264  14.221   9.567  0.2161 -0.1206 -0.4586
  334loPI   C3B 5343   0.470  14.121   9.283 -0.0915  0.2290 -0.0340
  334loPI   C4B 5344   0.273  13.830   8.870 -0.0657 -0.1164  0.1503
  335loPI    C1 5345  14.624   8.743   9.884 -0.0329 -0.0767 -0.0207
  335loPI    C2 5346  14.310   8.558  10.049  0.1274 -0.1335  0.2254
  335loPI    C3 5347  14.629   8.649  10.273  0.2594 -0.0151 -0.0072
  335loPI   PO4 5348  14.771   8.618   9.683 -0.5178 -0.1175  0.1024
  335loPI   GL1 5349  14.799   8.490   9.285  0.0005  0.2360  0.2065
  335loPI   GL2 5350  14.486   8.464   9.311  0.0542 -0.1649  0.0524
  335loPI   C1A 5351  15.167   8.424   9.064  0.0167 -0.2326 -0.0711
  335loPI   C2A 5352  15.257   8.350   8.766 -0.0901  0.3963  0.1963
  335loPI   C3A 5353  15.238   8.312   8.340 -0.0354  0.1331 -0.0199
  335loPI   C4A 5354  15.379   8.384   7.923 -0.1063  0.0318 -0.1541
  335loPI   C5A 5355  15.356   8.650   7.632  0.2233  0.0431 -0.0640
  335loPI   C6A 5356  15.093   8.689   7.318  0.1048 -0.0191  0.2365
  335loPI   C1B 5357  14.320   8.365   8.927  0.1106  0.1858  0.0047
  335loPI   C2B 5358  14.327   8.577   8.554 -0.3970 -0.2031 -0.0806
  335loPI   C3B 5359  14.503   8.913   8.417  0.0758 -0.1930  0.2428
  335loPI   C4B 5360  14.591   9.083   8.063  0.3004 -0.0537 -0.1795
  336loPI    C1 5361   6.073  12.537  10.474 -0.0459  0.0930  0.1021
  336loPI    C2 5362   6.020  12.185  10.658 -0.1162  0.0764  0.0507
  336loPI    C3 5363   5.763  12.485  10.722 -0.1536  0.0632 -0.0377
  336loPI   PO4 5364   6.165  12.398  10.180 -0.0358 -0.0420 -0.1772
  336loPI   GL1 5365   6.348  12.545   9.855  0.0273 -0.1606 -0.0144
  336loPI   GL2 5366   6.505  12.806   9.965 -0.2392  0.1520 -0.2040
  336loPI   C1A 5367   6.222  12.554   9.489  0.0280  0.4124  0.0756
  336loPI   C2A 5368   6.302  12.560   9.110  0.0424  0.1480 -0.0880
  336loPI   C3A 5369   6.252  12.467   8.694  0.0556  0.0679 -0.0692
  336loPI   C4A 5370   6.280  12.391   8.321 -0.1299  0.1954 -0.1696
  336loPI   C5A 5371   6.702  12.475   8.075 -0.0909  0.1984 -0.2484
  336loPI   C6A 5372   6.969  12.675   7.915  0.3270  0.0988 -0.2950
  336loPI   C1B 5373   6.505  13.069   9.662 -0.1796  0.0660 -0.1223
  336loPI   C2B 5374   6.476  13.059   9.236 -0.0437  0.0230  0.0708
  336loPI   C3B 5375   6.458  13.001   8.844  0.0694 -0.0712 -0.2567
  336loPI   C4B 5376   6.607  12.765   8.466  0.1673 -0.0653  0.0960
  337loPI    C1 5377  17.260  18.004  10.568 -0.2450  0.0644  0.1566
  337loPI    C2 5378  17.629  17.852  10.588 -0.2324  0.0498 -0.1328
  337loPI    C3 5379  17.314  17.628  10.693 -0.1622  0.0585  0.1041
  337loPI   PO4 5380  17.300  18.103  10.251  0.0243  0.1823 -0.0707
  337loPI   GL1 5381  17.501  18.562  10.010 -0.2560 -0.4829  0.2143
  337loPI   GL2 5382  17.251  18.551  10.022  0.0897 -0.2337 -0.0837
  337loPI   C1A 5383  17.861  18.634  10.020  0.0554 -0.0178 -0.0362
  337loPI   C2A 5384  18.105  18.618   9.651 -0.0277 -0.1176  0.0972
  337loPI   C3A 5385  18.072  18.665   9.270  0.1044  0.1430 -0.0538
  337loPI   C4A 5386  17.917  18.566   8.938 -0.2248  0.2488  0.0610
  337loPI   C5A 5387  17.680  18.417   8.577 -0.2086  0.1277 -0.0229
  337loPI   C6A 5388  17.531  18.244   8.242 -0.0086  0.0731  0.0014
  337loPI   C1B 5389  17.007  18.653   9.645  0.1298 -0.2041  0.1875
  337loPI   C2B 5390  17.023  18.338   9.325 -0.2351 -0.0093 -0.2276
  337loPI   C3B 5391  17.082  17.930   9.121  0.1538  0.0169 -0.1984
  337loPI   C4B 5392  17.451  17.811   9.202  0.2247  0.0074 -0.1302
  338loPI    C1 5393  15.508  16.047   9.880 -0.2507  0.2003  0.2173
  338loPI    C2 5394  15.485  15.797  10.192 -0.2772 -0.0272  0.0359
  338loPI    C3 5395  15.397  15.667   9.824  0.3332  0.0707 -0.1576
  338loPI   PO4 5396  15.746  16.169   9.994 -0.0116 -0.0523 -0.0844
  338loPI   GL1 5397  15.871  16.423   9.791 -0.0657 -0.3110  0.0589
  338loPI   GL2 5398  15.652  16.601   9.574  0.0174  0.2211  0.4537
  338loPI   C1A 5399  16.181  16.338   9.410 -0.3629 -0.0801 -0.2434
  338loPI   C2A 5400  16.408  16.175   9.048 -0.3124  0.0474 -0.0077
  338loPI   C3A 5401  16.271  16.017   8.655 -0.2056 -0.0014  0.0051
  338loPI   C4A 5402  16.105  15.907   8.305 -0.6258  0.1029 -0.1475
  338loPI   C5A 5403  15.885  15.721   8.066 -0.0579  0.2195  0.3030
  338loPI   C6A 5404  15.603  15.556   8.187  0.5228 -0.0857 -0.2887
  338loPI   C1B 5405  15.413  16.375   9.288 -0.1287  0.2378 -0.0458
  338loPI   C2B 5406  15.354  16.100   8.988 -0.1746  0.1280 -0.2213
  338loPI   C3B 5407  15.202  16.007   8.610  0.3116  0.1419 -0.1058
  338loPI   C4B 5408  15.393  16.015   8.285  0.3745  0.1205 -0.1377
  339POPI    C1 5409   3.064   0.222  10.275 -0.3157  0.0279 -0.0873
  339POPI    C2 5410   2.935   0.493  10.539 -0.1104 -0.0947  0.1439
  339POPI    C3 5411   3.198   0.598  10.256 -0.4449  0.0730 -0.1130
  339POPI   PO4 5412   2.913   0.164  10.161  0.2110  0.0652  0.1161
  339POPI   GL1 5413   2.764  -0.143   9.899 -0.0896  0.1569  0.0415
  339POPI   GL2 5414   2.687   0.140   9.679 -0.1646 -0.1271 -0.0458
  339POPI   C1A 5415   2.938  -0.432   9.636 -0.0694  0.1566  0.3281
  339POPI   D2A 5416   3.270  -0.774   9.467 -0.0652 -0.0012 -0.1632
  339POPI   C3A 5417   3.198  -0.625   9.131  0.3178  0.1184  0.0632
  339POPI   C4A 5418   3.089  -0.730   8.784  0.0411  0.2085  0.2332
  339POPI   C1B 5419   2.599   0.191   9.235 -0.2728 -0.1672 -0.1345
  339POPI   C2B 5420   2.788   0.144   8.894 -0.0426 -0.0574  0.0846
  339POPI   C3B 5421   2.931   0.112   8.449  0.2099  0.0906 -0.3051
  339POPI   C4B 5422   3.012   0.375   8.149  0.2503  0.1519  0.0383
  340POPI    C1 5423   9.628  11.138  10.223  0.0029  0.0382 -0.0082
  340POPI    C2 5424   9.377  11.402  10.387  0.0095 -0.0286  0.1104
  340POPI    C3 5425   9.301  11.010  10.415  0.1475 -0.0509  0.1823
  340POPI   PO4 5426   9.622  11.249   9.970 -0.2951  0.0179 -0.1608
  340POPI   GL1 5427   9.945  11.413   9.655 -0.0220 -0.1139 -0.1793
  340POPI   GL2 5428   9.912  11.748   9.757  0.3065 -0.1705  0.1780
  340POPI   C1A 5429   9.848  11.386   9.230  0.2040 -0.3044  0.3161
  340POPI   D2A 5430   9.520  11.226   8.972  0.0245 -0.0239  0.0052
  340POPI   C3A 5431   9.300  11.525   8.735 -0.0733  0.0457 -0.0829
  340POPI   C4A 5432   8.783  11.521   8.694  0.1678 -0.5304 -0.0882
  340POPI   C1B 5433  10.147  11.855   9.420  0.2583 -0.2057 -0.3675
  340POPI   C2B 5434  10.205  11.910   9.042 -0.2181  0.0484  0.1655
  340POPI   C3B 5435  10.288  11.863   8.620  0.2576 -0.4046  0.3520
  340POPI   C4B 5436  10.247  11.826   8.192  0.2038  0.2240  0.4275
  341POPI    C1 5437   6.117  13.400  10.451 -0.0464 -0.2267  0.1644
  341POPI    C2 5438   6.418  13.345  10.709 -0.1393 -0.0276  0.3177
  341POPI    C3 5439   6.044  13.389  10.844 -0.1988  0.0074  0.1449
  341POPI   PO4 5440   6.234  13.524  10.282  0.0394 -0.0674  0.1434
  341POPI   GL1 5441   6.149  13.487   9.823  0.0931 -0.0763  0.0231
  341POPI   GL2 5442   6.077  13.177   9.935  0.3478 -0.4701  0.1128
  341POPI   C1A 5443   6.176  13.487   9.333 -0.0825  0.0914  0.1763
  341POPI   D2A 5444   6.207  13.388   8.947 -0.1650  0.0315 -0.0751
  341POPI   C3A 5445   5.926  13.481   8.545  0.1387 -0.1258  0.0050
  341POPI   C4A 5446   5.898  13.699   8.225  0.1814  0.0405 -0.2802
  341POPI   C1B 5447   5.905  12.983   9.564 -0.2878 -0.1139  0.0024
  341POPI   C2B 5448   5.961  12.911   9.177  0.1627  0.0760 -0.1203
  341POPI   C3B 5449   5.973  13.015   8.804  0.0333 -0.2182 -0.0374
  341POPI   C4B 5450   6.062  12.878   8.494  0.0818 -0.2821 -0.2104
  342POPI    C1 5451   4.937   3.944  10.462  0.0063 -0.0209 -0.1910
  342POPI    C2 5452   5.297   4.012  10.623 -0.0441 -0.1217 -0.0336
  342POPI    C3 5453   4.969   4.026  10.852 -0.1059 -0.3764 -0.1029
  342POPI   PO4 5454   4.905   4.061  10.191  0.0925  0.0744  0.2728
  342POPI   GL1 5455   5.158   4.061   9.913  0.2789 -0.2406 -0.0589
  342POPI   GL2 5456   5.388   3.914   9.718  0.0312 -0.1902 -0.2833
  342POPI   C1A 5457   5.046   4.282   9.479 -0.0305  0.0026  0.1079
  342POPI   D2A 5458   5.096   4.654   9.128 -0.0572  0.0498  0.0620
  342POPI   C3A 5459   4.784   4.973   9.218 -0.2224  0.3067 -0.0793
  342POPI   C4A 5460   4.505   5.180   9.432  0.3092  0.1230  0.1857
  342POPI   C1B 5461   5.391   3.817   9.271 -0.1622  0.3819  0.0967
  342POPI   C2B 5462   5.216   3.821   8.852 -0.3586 -0.1127 -0.3478
  342POPI   C3B 5463   4.823   3.758   8.714  0.0648  0.0265 -0.2112
  342POPI   C4B 5464   4.643   3.874   8.392  0.1074 -0.1444  0.1325
  343POPI    C1 5465   1.376  15.508  10.752 -0.0131  0.0581  0.2553
  343POPI    C2 5466   1.180  15.290  10.480 -0.0059  0.2520  0.0927
  343POPI    C3 5467   1.109  15.235  10.869 -0.0538  0.0081  0.0510
  343POPI   PO4 5468   1.436  15.746  10.555  0.2045 -0.2048  0.1333
  343POPI   GL1 5469   1.495  15.841  10.169  0.0225 -0.0997  0.0740
  343POPI   GL2 5470   1.452  16.168  10.101  0.1040  0.0398 -0.1672
  343POPI   C1A 5471   1.268  15.831   9.722  0.5931 -0.1085 -0.1674
  343POPI   D2A 5472   0.909  15.874   9.593 -0.1499  0.0234  0.2193
  343POPI   C3A 5473   0.928  15.917   9.222 -0.1074  0.1539  0.1884
  343POPI   C4A 5474   0.794  15.863   8.773  0.0614  0.1611  0.2599
  343POPI   C1B 5475   1.364  16.373   9.668 -0.1571 -0.1834  0.2133
  343POPI   C2B 5476   1.221  16.452   9.250 -0.2578  0.1315 -0.1971
  343POPI   C3B 5477   1.087  16.329   8.920  0.3964 -0.2486  0.2306
  343POPI   C4B 5478   1.068  16.284   8.493  0.0143  0.2149 -0.1112
  344POPI    C1 5479  14.366   3.672  10.993 -0.1420 -0.0820  0.1310
  344POPI    C2 5480  14.310   3.351  11.225 -0.0469 -0.1969 -0.0031
  344POPI    C3 5481  14.646   3.387  11.011 -0.0869 -0.0400 -0.0413
  344POPI   PO4 5482  14.174   3.603  10.810  0.1582  0.2852  0.0017
  344POPI   GL1 5483  14.188   3.625  10.370 -0.2835  0.0384  0.0399
  344POPI   GL2 5484  14.526   3.452  10.237 -0.1528 -0.1594  0.0866
  344POPI   C1A 5485  14.112   3.780   9.994 -0.0476 -0.1287 -0.1629
  344POPI   D2A 5486  14.296   4.034   9.698  0.0549 -0.0044  0.1282
  344POPI   C3A 5487  14.426   3.735   9.381  0.1296  0.0780 -0.2008
  344POPI   C4A 5488  14.186   3.533   8.946 -0.0345 -0.1156  0.1878
  344POPI   C1B 5489  14.433   3.404   9.861 -0.2460  0.3259  0.0203
  344POPI   C2B 5490  14.440   3.232   9.416  0.2157  0.0762  0.2179
  344POPI   C3B 5491  14.569   3.179   8.920  0.3603 -0.0210 -0.0335
  344POPI   C4B 5492  14.695   2.997   8.464  0.0360 -0.1288  0.0220
  345POPI    C1 5493   1.939   4.732  10.622 -0.0841  0.0300 -0.0253
  345POPI    C2 5494   1.924   4.828  11.010 -0.3031 -0.1602  0.0163
  345POPI    C3 5495   1.600   4.876  10.780 -0.1040  0.1805 -0.2021
  345POPI   PO4 5496   2.156   4.807  10.560 -0.0342 -0.1752  0.3420
  345POPI   GL1 5497   1.981   5.002  10.154  0.1283 -0.2076 -0.0674
  345POPI   GL2 5498   1.733   5.234  10.037 -0.0306 -0.2535  0.0859
  345POPI   C1A 5499   1.675   4.765   9.913  0.0507  0.1320 -0.1288
  345POPI   D2A 5500   1.602   4.415   9.441  0.0434  0.0570 -0.3864
  345POPI   C3A 5501   1.862   4.552   9.056  0.0155 -0.1175  0.0807
  345POPI   C4A 5502   2.105   4.912   8.867 -0.3719 -0.1014  0.1426
  345POPI   C1B 5503   1.644   5.116   9.558 -0.0123 -0.2026 -0.0061
  345POPI   C2B 5504   1.645   4.970   9.079 -0.0563 -0.3756 -0.0111
  345POPI   C3B 5505   1.729   5.039   8.556 -0.0290  0.1176 -0.2942
  345POPI   C4B 5506   1.683   5.444   8.407 -0.1087  0.1050  0.0393
  346POPI    C1 5507   5.670   7.722   9.985  0.1502  0.1464  0.0392
  346POPI    C2 5508   5.629   8.055   9.768  0.0309  0.1025 -0.0061
  346POPI    C3 5509   5.825   8.066  10.116  0.0462  0.2154 -0.0182
  346POPI   PO4 5510   5.462   7.560   9.877  0.1209  0.0555 -0.1688
  346POPI   GL1 5511   5.306   7.454   9.440  0.3126  0.0424 -0.3430
  346POPI   GL2 5512   5.119   7.826   9.473  0.2821 -0.2256 -0.1038
  346POPI   C1A 5513   5.233   7.698   8.979  0.1095 -0.0102  0.2053
  346POPI   D2A 5514   5.158   7.943   8.739  0.1410 -0.1692  0.1714
  346POPI   C3A 5515   5.086   7.980   8.338 -0.1266  0.0512  0.1088
  346POPI   C4A 5516   5.081   7.927   7.837  0.0298  0.0842  0.1834
  346POPI   C1B 5517   5.522   7.991   9.235  0.0579 -0.0043 -0.3469
  346POPI   C2B 5518   5.659   7.930   8.869 -0.3450  0.0028 -0.2398
  346POPI   C3B 5519   5.539   7.753   8.499  0.1751  0.2155 -0.1842
  346POPI   C4B 5520   5.123   7.482   8.480 -0.1323  0.3656  0.1741
  347POPI    C1 5521  14.429   1.600  10.590  0.1227 -0.2195  0.0824
  347POPI    C2 5522  14.142   1.783  10.801  0.1381 -0.1352  0.0306
  347POPI    C3 5523  14.410   1.551  10.987  0.0465 -0.2015  0.0811
  347POPI   PO4 5524  14.465   1.773  10.384 -0.1214  0.0973  0.2805
  347POPI   GL1 5525  14.556   1.925  10.034 -0.1981 -0.0985  0.0193
  347POPI   GL2 5526  14.467   2.183   9.742  0.2436 -0.1720 -0.0326
  347POPI   C1A 5527  14.960   2.057   9.850  0.0704  0.0407  0.1574
  347POPI   D2A 5528  15.266   1.962   9.586 -0.1975 -0.1413 -0.0319
  347POPI   C3A 5529  15.209   1.936   9.130  0.0286  0.0470 -0.0029
  347POPI   C4A 5530  15.166   1.994   8.688 -0.1295 -0.0113  0.2863
  347POPI   C1B 5531  14.602   2.023   9.461 -0.0885  0.1951 -0.1691
  347POPI   C2B 5532  14.522   1.744   9.139  0.0804 -0.0293 -0.1781
  347POPI   C3B 5533  14.419   1.623   8.661  0.0917  0.0591  0.1470
  347POPI   C4B 5534  14.538   1.730   8.312  0.0915  0.3342 -0.0708
  348POPI    C1 5535   9.340  14.221  10.334  0.0989  0.1933  0.4523
  348POPI    C2 5536   9.242  13.859  10.473  0.1405  0.0507  0.1183
  348POPI    C3 5537   9.583  14.033  10.591  0.1843 -0.0754  0.1802
  348POPI   PO4 5538   9.085  14.327  10.318 -0.3586  0.4613  0.0236
  348POPI   GL1 5539   8.805  14.428  10.014  0.1666 -0.3545 -0.2434
  348POPI   GL2 5540   9.014  14.622   9.952  0.0296  0.1619  0.0865
  348POPI   C1A 5541   8.632  14.408   9.650 -0.3581  0.1981 -0.2027
  348POPI   D2A 5542   8.598  14.459   9.217  0.0048 -0.0997  0.1159
  348POPI   C3A 5543   8.628  14.294   8.768 -0.1925  0.0163  0.0168
  348POPI   C4A 5544   8.654  14.428   8.325  0.2408  0.0923 -0.0626
  348POPI   C1B 5545   8.637  14.888   9.688  0.2242 -0.0809  0.1401
  348POPI   C2B 5546   8.495  15.012   9.289 -0.0355 -0.0320  0.1135
  348POPI   C3B 5547   8.353  14.995   9.000  0.0026 -0.0394  0.0032
  348POPI   C4B 5548   8.219  14.670   8.936 -0.2125  0.0167 -0.4860
  349POPI    C1 5549   7.513  13.423  10.849 -0.0156 -0.1969 -0.0385
  349POPI    C2 5550   7.913  13.411  10.847 -0.0040  0.0930  0.0519
  349POPI    C3 5551   7.716  13.429  11.194 -0.1052 -0.2351  0.0151
  349POPI   PO4 5552   7.465  13.278  10.489 -0.1131  0.0293  0.2501
  349POPI   GL1 5553   7.383  12.983  10.230  0.0951  0.0839  0.2494
  349POPI   GL2 5554   7.153  12.808  10.259  0.1064 -0.0699 -0.1815
  349POPI   C1A 5555   7.500  13.101   9.805  0.0051 -0.3081  0.2771
  349POPI   D2A 5556   7.810  13.493   9.869 -0.1146  0.0371  0.1888
  349POPI   C3A 5557   7.787  13.698   9.449  0.2702  0.0470 -0.0690
  349POPI   C4A 5558   7.697  14.004   9.203 -0.1200  0.1392 -0.0279
  349POPI   C1B 5559   6.982  13.050   9.912  0.4690  0.1615 -0.4395
  349POPI   C2B 5560   6.978  13.121   9.438  0.3836 -0.4209 -0.1546
  349POPI   C3B 5561   7.137  13.174   8.970  0.1751  0.3713  0.1831
  349POPI   C4B 5562   7.078  13.238   8.546  0.2309 -0.0058  0.0922
  350POPI    C1 5563  16.555  15.553  10.895  0.1015 -0.1181  0.0624
  350POPI    C2 5564  16.207  15.665  11.058  0.2778  0.2231  0.2155
  350POPI    C3 5565  16.336  15.289  11.101 -0.0731  0.0909  0.1493
  350POPI   PO4 5566  16.459  15.633  10.557 -0.0131 -0.2414 -0.2136
  350POPI   GL1 5567  16.381  15.392  10.157 -0.0901 -0.1765  0.1179
  350POPI   GL2 5568  16.821  15.342  10.177 -0.0808 -0.1606  0.1029
  350POPI   C1A 5569  16.623  15.528   9.722  0.1091  0.4964 -0.1373
  350POPI   D2A 5570  16.721  15.447   9.337  0.2697 -0.0191  0.0785
  350POPI   C3A 5571  16.974  15.471   8.971  0.2072  0.0146  0.0376
  350POPI   C4A 5572  17.106  15.438   8.553 -0.0735  0.4159 -0.0379
  350POPI   C1B 5573  17.053  15.295   9.875 -0.0991 -0.0096  0.0593
  350POPI   C2B 5574  17.200  15.237   9.333  0.1173  0.1715  0.1346
  350POPI   C3B 5575  17.494  15.275   8.964 -0.2624 -0.3361  0.0021
  350POPI   C4B 5576  17.699  15.191   8.493  0.1707 -0.3403  0.0457
  351POPI    C1 5577  10.022   4.474  10.238  0.0284  0.1755 -0.2739
  351POPI    C2 5578   9.768   4.778  10.290 -0.1002  0.0596 -0.2196
  351POPI    C3 5579  10.118   4.775  10.484 -0.2646 -0.0140  0.0821
  351POPI   PO4 5580   9.999   4.456   9.936 -0.2693 -0.1771 -0.2241
  351POPI   GL1 5581  10.269   4.637   9.536  0.2345  0.4252  0.0666
  351POPI   GL2 5582  10.090   4.361   9.423  0.1090  0.2776 -0.1482
  351POPI   C1A 5583  10.449   4.421   9.082 -0.1561 -0.1102  0.0125
  351POPI   D2A 5584  10.617   4.435   8.637  0.0371  0.0542 -0.0611
  351POPI   C3A 5585  10.415   4.772   8.504 -0.1854 -0.2494 -0.1154
  351POPI   C4A 5586  10.014   4.936   8.414 -0.3336 -0.1355  0.0004
  351POPI   C1B 5587   9.909   4.185   9.026  0.0493  0.3410  0.1469
  351POPI   C2B 5588   9.676   4.261   8.591  0.2825 -0.2012 -0.0404
  351POPI   C3B 5589   9.728   4.212   8.102  0.4473  0.0260  0.0840
  351POPI   C4B 5590   9.447   4.147   7.861  0.0552  0.1376 -0.0808
  352POPI    C1 5591  13.201  13.766  10.322  0.0996  0.2292 -0.1021
  352POPI    C2 5592  13.384  13.417  10.250 -0.1676  0.0746 -0.0462
  352POPI    C3 5593  13.394  13.576  10.617 -0.2087  0.0278 -0.0247
  352POPI   PO4 5594  13.025  13.791  10.035  0.0236 -0.0294  0.0604
  352POPI   GL1 5595  12.850  14.025   9.673  0.0911  0.1471 -0.1780
  352POPI   GL2 5596  12.996  13.667   9.505 -0.1950  0.0505 -0.2398
  352POPI   C1A 5597  12.790  14.072   9.292 -0.2453  0.1276 -0.0405
  352POPI   D2A 5598  12.639  13.857   8.915 -0.1413  0.0935  0.0169
  352POPI   C3A 5599  12.353  13.816   8.583  0.0061 -0.2516 -0.1106
  352POPI   C4A 5600  12.467  13.616   8.220  0.1653  0.0997 -0.0382
  352POPI   C1B 5601  12.830  13.417   9.088  0.1758  0.0673  0.0127
  352POPI   C2B 5602  12.814  13.401   8.664  0.0909 -0.1501  0.3071
  352POPI   C3B 5603  12.758  13.179   8.223 -0.2990 -0.4325  0.0500
  352POPI   C4B 5604  12.776  12.847   7.966  0.0071 -0.0638 -0.0599
  353POPI    C1 5605  12.799  16.031   9.812  0.0715 -0.0268  0.0306
  353POPI    C2 5606  13.121  15.936  10.028  0.3110  0.0132 -0.3004
  353POPI    C3 5607  12.989  16.313  10.023  0.0717 -0.0601  0.0749
  353POPI   PO4 5608  12.885  15.886   9.640  0.0210  0.1084  0.2811
  353POPI   GL1 5609  12.930  15.868   9.331 -0.1859  0.0049  0.2107
  353POPI   GL2 5610  12.705  15.792   9.201  0.1086 -0.0435  0.1893
  353POPI   C1A 5611  13.211  15.666   9.017  0.0132  0.2683  0.0403
  353POPI   D2A 5612  13.154  15.364   8.604 -0.1549 -0.4317 -0.0255
  353POPI   C3A 5613  12.849  15.125   8.524 -0.2415  0.0802  0.4143
  353POPI   C4A 5614  12.473  14.959   8.696 -0.2913 -0.0628  0.2084
  353POPI   C1B 5615  12.841  15.870   8.722  0.1735 -0.1076 -0.1917
  353POPI   C2B 5616  12.795  15.686   8.371 -0.3019 -0.0448  0.1822
  353POPI   C3B 5617  12.682  15.935   7.984  0.0601 -0.2504 -0.2011
  353POPI   C4B 5618  12.495  16.012   7.543  0.0686  0.1756  0.3154
  354POPI    C1 5619   0.086  12.556  10.273  0.0176  0.0631 -0.0377
  354POPI    C2 5620   0.288  12.770  10.543 -0.1264  0.0338  0.0946
  354POPI    C3 5621   0.169  12.398  10.630 -0.1385  0.0094 -0.0243
  354POPI   PO4 5622  -0.008  12.776  10.095  0.3824  0.0653 -0.1221
  354POPI   GL1 5623  -0.136  12.873   9.809  0.2353  0.1785  0.0014
  354POPI   GL2 5624  -0.102  13.216   9.831 -0.3158  0.1150 -0.1429
  354POPI   C1A 5625  -0.368  12.839   9.485 -0.2900  0.0083 -0.0868
  354POPI   D2A 5626  -0.581  12.705   9.131 -0.2369 -0.1788 -0.2647
  354POPI   C3A 5627  -0.839  12.864   8.773 -0.1400 -0.1997  0.1195
  354POPI   C4A 5628  -0.941  13.025   8.429 -0.3445  0.2429  0.0045
  354POPI   C1B 5629  -0.026  13.159   9.393  0.0406 -0.2216 -0.1523
  354POPI   C2B 5630   0.037  13.361   8.977 -0.0063  0.1152 -0.2470
  354POPI   C3B 5631  -0.132  13.607   8.584 -0.2991 -0.2444 -0.0478
  354POPI   C4B 5632  -0.120  13.414   8.191  0.1804  0.1395 -0.1055
  355POPI    C1 5633   0.019   4.133  10.375 -0.2179  0.2496 -0.0976
  355POPI    C2 5634  -0.002   4.369  10.698 -0.0200 -0.1402  0.2097
  355POPI    C3 5635  -0.290   4.100  10.628 -0.1962  0.1175 -0.0876
  355POPI   PO4 5636   0.265   4.024  10.424  0.1986 -0.2869  0.0967
  355POPI   GL1 5637   0.501   3.860  10.064  0.0473  0.1877 -0.0727
  355POPI   GL2 5638   0.568   4.117   9.910  0.2168 -0.2503  0.2583
  355POPI   C1A 5639   0.444   3.677   9.618  0.0070  0.0899 -0.0222
  355POPI   D2A 5640   0.170   3.734   9.267 -0.1544 -0.0123  0.2858
  355POPI   C3A 5641   0.096   3.704   8.732 -0.1401 -0.5282  0.0267
  355POPI   C4A 5642  -0.025   3.604   8.305 -0.1863 -0.1666 -0.2813
  355POPI   C1B 5643   0.557   4.135   9.471 -0.1892 -0.2253 -0.0772
  355POPI   C2B 5644   0.582   3.870   9.079 -0.2786  0.1362 -0.3011
  355POPI   C3B 5645   0.622   3.807   8.696  0.2740  0.1112  0.1455
  355POPI   C4B 5646   0.549   3.687   8.233 -0.1261  0.0588  0.2994
  356POPI    C1 5647  16.301   0.438  10.706 -0.3963 -0.2887  0.0125
  356POPI    C2 5648  16.505   0.321  11.030 -0.1413  0.0102 -0.0363
  356POPI    C3 5649  16.185   0.557  11.070 -0.1157  0.0386  0.0005
  356POPI   PO4 5650  16.446   0.355  10.497  0.1337  0.0757  0.1498
  356POPI   GL1 5651  16.522   0.193  10.116 -0.0754  0.0220 -0.1324
  356POPI   GL2 5652  16.225   0.088   9.990 -0.0582 -0.0510 -0.3168
  356POPI   C1A 5653  16.603   0.562   9.819 -0.0977 -0.2001 -0.0075
  356POPI   D2A 5654  16.242   0.673   9.482 -0.0231 -0.2510  0.0071
  356POPI   C3A 5655  16.250   0.638   9.076 -0.0226  0.0471  0.0312
  356POPI   C4A 5656  16.653   0.813   8.873 -0.0821 -0.3438  0.2725
  356POPI   C1B 5657  16.402   0.149   9.573 -0.0667 -0.2437 -0.0494
  356POPI   C2B 5658  16.657   0.348   9.270 -0.3544  0.0793  0.0752
  356POPI   C3B 5659  16.709   0.217   8.885  0.0026  0.3229  0.0190
  356POPI   C4B 5660  16.899   0.419   8.626 -0.1223 -0.2383  0.1991
  357POPI    C1 5661  18.215  10.439  10.485 -0.0208 -0.1104 -0.0146
  357POPI    C2 5662  17.905  10.690  10.501  0.0364 -0.0366 -0.0598
  357POPI    C3 5663  17.907  10.360  10.727  0.0137  0.0625  0.0866
  357POPI   PO4 5664  18.275  10.492  10.237  0.0687  0.3949 -0.1500
  357POPI   GL1 5665  18.241  10.140   9.961  0.1541  0.2819 -0.1649
  357POPI   GL2 5666  18.078  10.210   9.701  0.3101  0.1743  0.0383
  357POPI   C1A 5667  18.541  10.139   9.567  0.5142 -0.0273  0.0652
  357POPI   D2A 5668  18.745  10.102   9.173  0.0163  0.1077  0.2104
  357POPI   C3A 5669  18.535  10.239   8.732  0.0668 -0.3206 -0.0963
  357POPI   C4A 5670  18.418  10.070   8.376  0.3099 -0.1149 -0.0319
  357POPI   C1B 5671  18.135  10.005   9.312 -0.0107  0.1520 -0.2286
  357POPI   C2B 5672  18.279   9.809   8.907 -0.4127 -0.1428  0.2808
  357POPI   C3B 5673  18.175   9.589   8.534 -0.0866 -0.1347 -0.2035
  357POPI   C4B 5674  17.813   9.381   8.320  0.2698  0.1891 -0.1546
  358POPI    C1 5675  11.311  14.420   9.983 -0.0432  0.0547  0.0225
  358POPI    C2 5676  11.507  14.080   9.909  0.1377  0.1451  0.0777
  358POPI    C3 5677  11.273  14.110  10.232 -0.0069  0.0211 -0.0137
  358POPI   PO4 5678  11.548  14.647   9.975 -0.1148  0.0568 -0.2477
  358POPI   GL1 5679  11.681  14.756   9.541  0.3171  0.4683 -0.3033
  358POPI   GL2 5680  11.545  15.063   9.466  0.1171  0.0929  0.0514
  358POPI   C1A 5681  11.748  14.504   9.142 -0.0256 -0.2325  0.2826
  358POPI   D2A 5682  11.589  14.607   8.720  0.1075 -0.1254  0.1543
  358POPI   C3A 5683  11.655  14.592   8.252  0.0916 -0.1492 -0.1195
  358POPI   C4A 5684  11.645  14.273   7.847  0.2150 -0.0470 -0.0827
  358POPI   C1B 5685  11.237  14.775   9.273 -0.0530  0.1466  0.1372
  358POPI   C2B 5686  11.074  14.649   8.941 -0.0925 -0.0954 -0.3662
  358POPI   C3B 5687  11.173  14.450   8.498  0.3044  0.0582  0.2602
  358POPI   C4B 5688  11.180  14.333   8.021  0.1720 -0.0558  0.0122
  359POPI    C1 5689   6.363   1.237  10.725 -0.2901 -0.0296 -0.1884
  359POPI    C2 5690   6.242   1.401  11.069  0.0897  0.2860 -0.1978
  359POPI    C3 5691   6.452   1.061  11.073 -0.0821  0.1791 -0.1334
  359POPI   PO4 5692   6.187   1.432  10.529 -0.1923 -0.3119  0.1181
  359POPI   GL1 5693   5.935   1.623  10.200 -0.2406  0.4017 -0.1356
  359POPI   GL2 5694   5.692   1.664   9.972  0.1639  0.2730 -0.1384
  359POPI   C1A 5695   6.174   1.653   9.820 -0.0335  0.1543 -0.2306
  359POPI   D2A 5696   6.377   1.788   9.425  0.1504  0.1663  0.1154
  359POPI   C3A 5697   6.376   1.584   9.044  0.3661  0.1411  0.3670
  359POPI   C4A 5698   6.324   1.342   8.720  0.0422 -0.3463  0.2477
  359POPI   C1B 5699   5.843   1.931   9.567  0.3665  0.1145  0.1555
  359POPI   C2B 5700   5.902   1.992   9.223 -0.1115  0.1259  0.1149
  359POPI   C3B 5701   5.642   2.095   8.772  0.0724 -0.3114 -0.4760
  359POPI   C4B 5702   5.199   1.931   8.728 -0.3047  0.2125  0.0988
  360POPI    C1 5703   3.635  12.949  10.609  0.1354  0.2150 -0.0450
  360POPI    C2 5704   3.945  13.092  10.819 -0.0220  0.2511  0.1668
  360POPI    C3 5705   3.586  13.267  10.847 -0.2306 -0.2040  0.4650
  360POPI   PO4 5706   3.680  13.011  10.366  0.1193 -0.0196  0.0522
  360POPI   GL1 5707   3.409  12.893  10.111  0.0176  0.0398 -0.1287
  360POPI   GL2 5708   3.292  13.239   9.944 -0.3525 -0.1044  0.0294
  360POPI   C1A 5709   3.498  12.618   9.706 -0.2329 -0.2064  0.0100
  360POPI   D2A 5710   3.406  12.511   9.291  0.0113 -0.1200 -0.1007
  360POPI   C3A 5711   3.233  12.792   9.020 -0.0841 -0.1127 -0.0373
  360POPI   C4A 5712   3.081  12.810   8.577 -0.0211 -0.0691  0.1303
  360POPI   C1B 5713   3.274  13.046   9.561 -0.0043 -0.2269  0.0353
  360POPI   C2B 5714   3.552  13.238   9.203  0.2661 -0.1253 -0.1213
  360POPI   C3B 5715   3.515  13.239   8.733  0.0843 -0.3717 -0.1677
  360POPI   C4B 5716   3.348  13.183   8.349 -0.1970 -0.0347  0.1979
  361POPI    C1 5717  17.904   5.996  10.305  0.0844 -0.1344 -0.0815
  361POPI    C2 5718  18.296   6.029  10.375  0.0222  0.0541  0.1969
  361POPI    C3 5719  18.072   5.787  10.602 -0.0198 -0.0759  0.0196
  361POPI   PO4 5720  17.915   6.019  10.045 -0.1836  0.1509  0.1041
  361POPI   GL1 5721  18.234   5.982   9.776 -0.1009 -0.0045  0.0932
  361POPI   GL2 5722  18.015   5.724   9.639 -0.0593  0.0501  0.3336
  361POPI   C1A 5723  18.387   6.011   9.295  0.0679 -0.1384  0.0177
  361POPI   D2A 5724  18.822   5.994   9.167  0.2405 -0.0616 -0.0679
  361POPI   C3A 5725  18.850   5.953   8.810  0.0974 -0.1798 -0.0354
  361POPI   C4A 5726  18.842   5.814   8.434  0.1311  0.0017 -0.0503
  361POPI   C1B 5727  18.055   5.671   9.160 -0.0649 -0.0261  0.0839
  361POPI   C2B 5728  18.249   5.831   8.806 -0.0384  0.1011 -0.0326
  361POPI   C3B 5729  18.437   6.138   8.664  0.1492 -0.0641  0.0089
  361POPI   C4B 5730  18.669   6.294   8.324  0.0707  0.0392 -0.1531
  362POPI    C1 5731   7.223   4.441  10.658  0.1070 -0.2516  0.0195
  362POPI    C2 5732   6.968   4.135  10.692 -0.1797 -0.0110  0.0775
  362POPI    C3 5733   6.878   4.489  10.856  0.0668  0.1549 -0.1392
  362POPI   PO4 5734   7.337   4.368  10.364  0.2019 -0.1504  0.0672
  362POPI   GL1 5735   7.629   4.676  10.135 -0.1940 -0.3094  0.1444
  362POPI   GL2 5736   7.919   4.601   9.948 -0.3701 -0.0546 -0.2104
  362POPI   C1A 5737   7.406   4.614   9.630  0.0195  0.2516 -0.0755
  362POPI   D2A 5738   7.333   4.374   9.330  0.1342  0.2071 -0.0158
  362POPI   C3A 5739   7.487   4.495   8.928  0.0597 -0.6655 -0.1802
  362POPI   C4A 5740   7.591   4.528   8.556  0.0078 -0.2539  0.1143
  362POPI   C1B 5741   7.935   4.647   9.518 -0.1508 -0.1524  0.2184
  362POPI   C2B 5742   8.049   4.561   9.140  0.5490 -0.1075 -0.0166
  362POPI   C3B 5743   8.280   4.406   8.764  0.0854  0.0316  0.0611
  362POPI   C4B 5744   8.323   4.412   8.353  0.0882  0.3046  0.1002
  363POPI    C1 5745   3.495  11.049  10.134  0.2227 -0.1416 -0.0086
  363POPI    C2 5746   3.528  10.827  10.464 -0.1558  0.0191  0.1426
  363POPI    C3 5747   3.181  11.006  10.377 -0.0308  0.0616 -0.2917
  363POPI   PO4 5748   3.635  10.875   9.937  0.0490  0.2149  0.4531
  363POPI   GL1 5749   3.535  10.981   9.435  0.1571 -0.1565 -0.1577
  363POPI   GL2 5750   3.313  11.165   9.628  0.0722  0.2393  0.1254
  363POPI   C1A 5751   3.456  11.088   9.035  0.1175  0.0817 -0.0678
  363POPI   D2A 5752   3.497  11.205   8.667  0.2872  0.1018 -0.1665
  363POPI   C3A 5753   3.357  11.024   8.391 -0.3323 -0.2158  0.1288
  363POPI   C4A 5754   2.953  10.955   8.269 -0.0520  0.0072  0.0744
  363POPI   C1B 5755   2.995  11.274   9.214 -0.3154  0.5242 -0.0191
  363POPI   C2B 5756   3.020  11.317   8.830  0.3464  0.1866 -0.0869
  363POPI   C3B 5757   3.125  11.485   8.418  0.0231  0.2513  0.2886
  363POPI   C4B 5758   3.107  11.840   8.213 -0.0191 -0.0466 -0.5230
  364POPI    C1 5759  13.099  10.740   9.906  0.0226  0.1189  0.0824
  364POPI    C2 5760  13.066  10.804   9.513 -0.0222 -0.1273  0.0443
  364POPI    C3 5761  12.739  10.803   9.744  0.0119  0.0924  0.0958
  364POPI   PO4 5762  13.380  10.944   9.873  0.0407 -0.0475  0.3172
  364POPI   GL1 5763  13.654  11.136   9.641 -0.3345  0.0638 -0.1808
  364POPI   GL2 5764  13.263  11.332   9.576  0.0357 -0.0601  0.0955
  364POPI   C1A 5765  13.361  10.995   9.226  0.3551 -0.1398 -0.1469
  364POPI   D2A 5766  13.188  10.619   9.064 -0.0140 -0.3966 -0.0129
  364POPI   C3A 5767  13.200  10.466   8.619  0.0027 -0.0357 -0.1516
  364POPI   C4A 5768  13.088  10.575   8.158  0.0163  0.1260  0.0105
  364POPI   C1B 5769  13.159  11.573   9.309  0.1985 -0.0432 -0.2020
  364POPI   C2B 5770  13.282  11.494   8.924 -0.0008  0.0775  0.2042
  364POPI   C3B 5771  13.317  11.149   8.633 -0.1348  0.2991 -0.3003
  364POPI   C4B 5772  13.218  11.080   8.235 -0.0147  0.0029  0.1997
  365POPI    C1 5773   3.458   4.546  10.294 -0.1068  0.1603 -0.1450
  365POPI    C2 5774   3.295   4.609  10.654 -0.2123 -0.1753 -0.1307
  365POPI    C3 5775   3.582   4.334  10.610 -0.1564 -0.0924 -0.2928
  365POPI   PO4 5776   3.594   4.826  10.254  0.0218 -0.0335 -0.1110
  365POPI   GL1 5777   3.675   5.009   9.839 -0.0813 -0.2267 -0.0090
  365POPI   GL2 5778   3.301   4.781   9.835  0.3032 -0.1349 -0.1268
  365POPI   C1A 5779   3.592   4.894   9.435  0.2165 -0.1626  0.0285
  365POPI   D2A 5780   3.590   4.747   9.023 -0.0035  0.2473  0.1733
  365POPI   C3A 5781   3.664   4.378   8.780  0.2299  0.0076  0.3398
  365POPI   C4A 5782   3.637   4.116   8.372  0.0019  0.0775 -0.0299
  365POPI   C1B 5783   3.114   4.558   9.448 -0.0914 -0.1238 -0.0299
  365POPI   C2B 5784   3.155   4.448   9.045  0.1300  0.1788 -0.0290
  365POPI   C3B 5785   3.196   4.292   8.650  0.0054  0.0861 -0.0449
  365POPI   C4B 5786   3.185   4.158   8.212 -0.0120 -0.1268 -0.0442
  366POPI    C1 5787   1.214  11.465  10.450 -0.2501  0.0785  0.1473
  366POPI    C2 5788   1.590  11.572  10.362 -0.2261 -0.1648 -0.0574
  366POPI    C3 5789   1.283  11.787  10.222 -0.1682 -0.0809 -0.0563
  366POPI   PO4 5790   1.167  11.200  10.413  0.0317  0.0451 -0.1322
  366POPI   GL1 5791   1.091  10.820  10.071  0.0881  0.2330 -0.2128
  366POPI   GL2 5792   0.970  10.501   9.909  0.2314  0.2094 -0.2105
  366POPI   C1A 5793   1.313  10.865   9.811 -0.4647  0.0969  0.1291
  366POPI   D2A 5794   1.322  10.981   9.387  0.1352 -0.0621 -0.2684
  366POPI   C3A 5795   1.573  11.285   9.335 -0.0647  0.1007 -0.0177
  366POPI   C4A 5796   1.824  11.624   9.507  0.0670 -0.0156  0.1692
  366POPI   C1B 5797   0.964  10.647   9.483 -0.0707 -0.1350  0.3167
  366POPI   C2B 5798   1.005  10.761   9.025  0.1263  0.1968  0.0092
  366POPI   C3B 5799   1.299  11.052   8.804 -0.0098  0.0811  0.1487
  366POPI   C4B 5800   1.407  11.202   8.370 -0.1907 -0.1465 -0.5226
  367POPI    C1 5801  10.766  10.459  10.195 -0.0598 -0.1390 -0.1109
  367POPI    C2 5802  10.464  10.641  10.384 -0.0092 -0.1504 -0.0187
  367POPI    C3 5803  10.841  10.700  10.505  0.0099 -0.2902 -0.0086
  367POPI   PO4 5804  10.755  10.237  10.156 -0.3530 -0.0240  0.0691
  367POPI   GL1 5805  10.599  10.005   9.735  0.0690  0.0607  0.3379
  367POPI   GL2 5806  10.752  10.307   9.611 -0.0897 -0.0255  0.0563
  367POPI   C1A 5807  10.377   9.794   9.400 -0.2370  0.1354 -0.2758
  367POPI   D2A 5808  10.222   9.835   8.907 -0.0883 -0.4736  0.1364
  367POPI   C3A 5809   9.945   9.585   8.719  0.2029  0.1833 -0.1391
  367POPI   C4A 5810   9.486   9.487   8.424  0.2564  0.4492 -0.0628
  367POPI   C1B 5811  10.923  10.363   9.246 -0.2105  0.1504 -0.1022
  367POPI   C2B 5812  10.886  10.372   8.833 -0.0438 -0.2312 -0.0699
  367POPI   C3B 5813  10.770  10.347   8.419  0.0575 -0.0361 -0.2378
  367POPI   C4B 5814  10.692  10.206   8.026 -0.2444 -0.0947 -0.0880
  368POPI    C1 5815  10.921   8.874  10.262  0.0575  0.0926  0.2653
  368POPI    C2 5816  11.216   8.616  10.340  0.2503  0.2551  0.0848
  368POPI    C3 5817  10.846   8.542  10.473  0.2876 -0.1463 -0.0212
  368POPI   PO4 5818  10.947   8.872   9.973 -0.3306 -0.2102 -0.1544
  368POPI   GL1 5819  10.751   8.995   9.605 -0.0993 -0.3369 -0.0931
  368POPI   GL2 5820  10.524   8.708   9.581  0.3576 -0.1430  0.2223
  368POPI   C1A 5821  10.739   8.871   9.163  0.0439  0.1447  0.1568
  368POPI   D2A 5822  10.811   8.682   8.747  0.0988  0.0180  0.0177
  368POPI   C3A 5823  10.802   8.717   8.231 -0.1255  0.0642  0.1338
  368POPI   C4A 5824  10.651   8.496   7.979  0.0548 -0.1367 -0.2401
  368POPI   C1B 5825  10.781   8.326   9.259 -0.2779  0.0920  0.0409
  368POPI   C2B 5826  10.773   8.163   8.829  0.2365  0.1135 -0.2064
  368POPI   C3B 5827  10.803   8.107   8.349  0.0232  0.0639 -0.2325
  368POPI   C4B 5828  10.651   7.982   7.980  0.0306  0.0719  0.3092
  369POPI    C1 5829  12.463   0.691  10.051  0.0058  0.1523 -0.1939
  369POPI    C2 5830  12.810   0.597   9.875  0.0077 -0.2563  0.0164
  369POPI    C3 5831  12.796   0.664  10.269 -0.0787  0.1973 -0.0584
  369POPI   PO4 5832  12.328   0.871   9.873 -0.1225  0.2633 -0.0579
  369POPI   GL1 5833  12.204   0.874   9.465 -0.0384  0.2065  0.0860
  369POPI   GL2 5834  12.514   0.697   9.435 -0.2845  0.0633  0.3635
  369POPI   C1A 5835  12.395   0.809   8.959 -0.0298  0.0061  0.0662
  369POPI   D2A 5836  12.629   0.861   8.614 -0.2179  0.0056 -0.3010
  369POPI   C3A 5837  12.407   1.083   8.322  0.3540 -0.0346 -0.3406
  369POPI   C4A 5838  12.252   1.282   7.882 -0.0046 -0.2679  0.2414
  369POPI   C1B 5839  12.537   0.315   9.239 -0.1846 -0.3454 -0.2906
  369POPI   C2B 5840  12.539   0.206   8.845 -0.0723 -0.1531  0.1537
  369POPI   C3B 5841  12.592  -0.035   8.490 -0.1019 -0.0055  0.1332
  369POPI   C4B 5842  12.562  -0.009   7.995 -0.1173  0.0910 -0.1758
  370POPI    C1 5843  14.549  12.878   9.942 -0.2061  0.0252 -0.2667
  370POPI    C2 5844  14.267  13.161   9.961  0.0473  0.2544  0.3517
  370POPI    C3 5845  14.267  12.860  10.225  0.0768 -0.0449  0.0178
  370POPI   PO4 5846  14.829  13.012   9.869  0.2627 -0.1661 -0.0153
  370POPI   GL1 5847  14.831  13.129   9.477 -0.0845 -0.2374  0.0677
  370POPI   GL2 5848  14.617  13.354   9.545 -0.0484  0.3496  0.2441
  370POPI   C1A 5849  14.784  13.500   9.102 -0.0646  0.2102 -0.0265
  370POPI   D2A 5850  14.877  13.684   8.798  0.4438 -0.1464 -0.1328
  370POPI   C3A 5851  14.742  13.914   8.418  0.0975  0.3009  0.2431
  370POPI   C4A 5852  14.928  14.275   8.322  0.1066  0.2450 -0.1807
  370POPI   C1B 5853  14.340  13.060   9.485  0.2321 -0.2273  0.0638
  370POPI   C2B 5854  14.102  12.745   9.236 -0.1386  0.0549  0.1299
  370POPI   C3B 5855  13.893  12.428   8.935  0.0093  0.3128  0.0828
  370POPI   C4B 5856  13.915  12.184   8.586  0.0480 -0.1716 -0.0634
  371POPI    C1 5857  10.620  11.020   9.988  0.0366 -0.2818  0.0741
  371POPI    C2 5858  10.587  11.131  10.370  0.1420 -0.0806  0.0261
  371POPI    C3 5859  10.949  11.091  10.204  0.0973 -0.2067 -0.0419
  371POPI   PO4 5860  10.516  10.803   9.928  0.0336 -0.3099  0.0569
  371POPI   GL1 5861  10.531  10.734   9.505  0.0418 -0.0360  0.0717
  371POPI   GL2 5862  10.794  10.919   9.545  0.1543  0.0524 -0.1940
  371POPI   C1A 5863  10.460  10.785   9.113  0.2153 -0.1101  0.1399
  371POPI   D2A 5864  10.453  10.688   8.728  0.2355 -0.0681 -0.3339
  371POPI   C3A 5865  10.260  10.921   8.460  0.2150 -0.0652 -0.2839
  371POPI   C4A 5866  10.011  10.857   8.117  0.0757  0.1196  0.1668
  371POPI   C1B 5867  10.976  10.905   9.125 -0.4647 -0.0774 -0.2024
  371POPI   C2B 5868  11.037  10.885   8.659 -0.0836 -0.1148 -0.0221
  371POPI   C3B 5869  10.942  11.019   8.269 -0.0991  0.1454  0.0032
  371POPI   C4B 5870  10.537  11.124   7.959 -0.1788  0.0674 -0.0376
  372POPI    C1 5871   5.305  16.644  10.670 -0.0600  0.1117 -0.0983
  372POPI    C2 5872   5.492  16.435  10.955 -0.2826 -0.0027 -0.0334
  372POPI    C3 5873   5.587  16.819  10.893 -0.0955 -0.0325  0.0616
  372POPI   PO4 5874   5.343  16.499  10.398  0.4984  0.1875 -0.1663
  372POPI   GL1 5875   5.568  16.602   9.984 -0.1634 -0.0005  0.3347
  372POPI   GL2 5876   5.248  16.888  10.065 -0.0840  0.0902  0.1476
  372POPI   C1A 5877   5.287  16.416   9.742  0.0572 -0.2769  0.0581
  372POPI   D2A 5878   5.223  16.323   9.299 -0.1020 -0.2196 -0.0013
  372POPI   C3A 5879   4.928  16.518   9.089  0.1134  0.0679  0.0299
  372POPI   C4A 5880   4.516  16.590   8.970 -0.1098  0.0619 -0.1944
  372POPI   C1B 5881   5.176  16.911   9.511  0.0718 -0.2399 -0.0592
  372POPI   C2B 5882   5.132  16.963   9.036  0.0809  0.0131 -0.1634
  372POPI   C3B 5883   5.252  16.948   8.563  0.0194 -0.1434 -0.2714
  372POPI   C4B 5884   5.202  17.278   8.229 -0.2868  0.2572  0.1433
  373POPI    C1 5885  17.435   0.617  10.455  0.1250  0.1103  0.0445
  373POPI    C2 5886  17.406   0.223  10.515  0.1488  0.1044  0.0171
  373POPI    C3 5887  17.759   0.406  10.559  0.1473  0.1150 -0.0148
  373POPI   PO4 5888  17.253   0.686  10.296 -0.0290 -0.0705 -0.0985
  373POPI   GL1 5889  17.151   0.753   9.908 -0.1770 -0.0665  0.0400
  373POPI   GL2 5890  16.922   0.922   9.847 -0.2452  0.4204 -0.1846
  373POPI   C1A 5891  17.303   0.799   9.573 -0.0005  0.2073  0.2222
  373POPI   D2A 5892  17.636   0.646   9.138 -0.4365 -0.2435 -0.0585
  373POPI   C3A 5893  17.862   0.639   8.670  0.2251 -0.0247  0.1303
  373POPI   C4A 5894  17.970   0.754   8.155  0.1020 -0.3094  0.2618
  373POPI   C1B 5895  16.846   0.767   9.391 -0.1450 -0.2066  0.0320
  373POPI   C2B 5896  17.087   0.492   9.105 -0.3605 -0.1425  0.0565
  373POPI   C3B 5897  17.375   0.470   8.741 -0.0767 -0.2733  0.1474
  373POPI   C4B 5898  17.325   0.301   8.323 -0.0071 -0.1483  0.4973
  374POPI    C1 5899  16.905   8.043  10.476  0.1807 -0.0352  0.0499
  374POPI    C2 5900  17.046   7.691  10.606  0.0722 -0.1512 -0.1421
  374POPI    C3 5901  16.996   7.994  10.863  0.0897 -0.3011  0.0399
  374POPI   PO4 5902  16.956   8.092  10.254 -0.0428 -0.0646  0.1080
  374POPI   GL1 5903  16.854   8.172   9.888 -0.0589 -0.1173 -0.0953
  374POPI   GL2 5904  16.551   8.089   9.774  0.1803  0.3152  0.0837
  374POPI   C1A 5905  16.995   8.354   9.586  0.1879 -0.1099  0.2677
  374POPI   D2A 5906  17.024   8.670   9.298 -0.2236  0.1869  0.0751
  374POPI   C3A 5907  16.735   8.772   8.957 -0.4335  0.1408 -0.3658
  374POPI   C4A 5908  16.553   8.697   8.521  0.1096  0.0868 -0.3007
  374POPI   C1B 5909  16.672   7.951   9.362  0.0281  0.2324  0.1785
  374POPI   C2B 5910  16.784   7.789   8.966  0.0915  0.1209 -0.1040
  374POPI   C3B 5911  16.799   7.660   8.609  0.2062 -0.0415  0.3794
  374POPI   C4B 5912  16.954   7.539   8.253 -0.1859 -0.0852 -0.1648
  375POPI    C1 5913  16.452   3.213  10.749  0.0124 -0.2136 -0.2211
  375POPI    C2 5914  16.061   3.257  10.675  0.0372  0.0671 -0.1967
  375POPI    C3 5915  16.186   2.979  10.934 -0.1466 -0.0148 -0.1946
  375POPI   PO4 5916  16.598   3.219  10.498  0.3062 -0.0205  0.0868
  375POPI   GL1 5917  16.440   3.138  10.102  0.1255 -0.0189 -0.0583
  375POPI   GL2 5918  16.873   3.191  10.034  0.1984 -0.0222 -0.0485
  375POPI   C1A 5919  16.456   2.957   9.764 -0.2932  0.2106 -0.2497
  375POPI   D2A 5920  16.206   2.872   9.497 -0.0844 -0.0551 -0.0559
  375POPI   C3A 5921  15.875   2.962   9.417 -0.1927 -0.0986  0.0011
  375POPI   C4A 5922  15.621   2.780   9.162  0.1996 -0.0143  0.1502
  375POPI   C1B 5923  17.211   3.174   9.675  0.3368 -0.0132  0.0219
  375POPI   C2B 5924  17.154   3.186   9.190  0.5612  0.0628 -0.2440
  375POPI   C3B 5925  17.083   3.122   8.755 -0.1906  0.0605  0.2116
  375POPI   C4B 5926  17.002   2.915   8.220  0.1873 -0.0603  0.0088
  376POPI    C1 5927  13.113   3.914  10.220  0.2126 -0.3076  0.1319
  376POPI    C2 5928  13.014   3.656  10.509  0.0607 -0.2105  0.1677
  376POPI    C3 5929  13.012   4.049  10.582 -0.2646 -0.1689 -0.0445
  376POPI   PO4 5930  13.269   3.895  10.131 -0.0715  0.1625 -0.1227
  376POPI   GL1 5931  13.341   3.614   9.758  0.2351 -0.0868 -0.1921
  376POPI   GL2 5932  13.649   3.773   9.831  0.2698 -0.3630  0.2275
  376POPI   C1A 5933  13.482   3.611   9.351 -0.2874  0.0720 -0.0315
  376POPI   D2A 5934  13.578   3.503   8.863 -0.1561 -0.3192  0.2902
  376POPI   C3A 5935  13.692   3.820   8.542  0.0508 -0.1292  0.2638
  376POPI   C4A 5936  13.667   4.280   8.283  0.0188  0.1003 -0.4037
  376POPI   C1B 5937  13.582   4.056   9.550  0.2664 -0.1798 -0.1209
  376POPI   C2B 5938  13.449   4.028   9.115 -0.0668 -0.3518 -0.2503
  376POPI   C3B 5939  13.221   3.995   8.682 -0.1914 -0.0171  0.1383
  376POPI   C4B 5940  13.152   3.783   8.310 -0.0132  0.0954 -0.2893
  377POPI    C1 5941   7.578   2.937  10.726  0.0046 -0.0688 -0.0540
  377POPI    C2 5942   7.371   2.619  10.854  0.1178 -0.0279  0.2395
  377POPI    C3 5943   7.474   2.907  11.112  0.2214  0.1324  0.0224
  377POPI   PO4 5944   7.637   2.904  10.496 -0.1719  0.0827 -0.2061
  377POPI   GL1 5945   7.510   2.635  10.163 -0.0325 -0.1382 -0.0511
  377POPI   GL2 5946   7.599   2.904   9.921  0.1849 -0.0182  0.0223
  377POPI   C1A 5947   7.189   2.724   9.787  0.1150  0.1649 -0.1570
  377POPI   D2A 5948   7.213   2.523   9.508 -0.1897  0.0683  0.1697
  377POPI   C3A 5949   7.525   2.495   9.230 -0.0501  0.0483  0.0781
  377POPI   C4A 5950   7.824   2.088   9.161  0.0174 -0.0862  0.2585
  377POPI   C1B 5951   7.556   3.015   9.498  0.2946 -0.1790 -0.0366
  377POPI   C2B 5952   7.586   2.957   9.074  0.0714  0.1133  0.2159
  377POPI   C3B 5953   7.471   3.127   8.675  0.2939  0.1407 -0.1481
  377POPI   C4B 5954   7.261   2.907   8.395  0.0023  0.4976  0.0705
  378POPI    C1 5955   4.494  11.042  10.272  0.0934 -0.0448 -0.0466
  378POPI    C2 5956   4.676  10.921  10.607 -0.1914 -0.0475  0.1104
  378POPI    C3 5957   4.770  11.275  10.445 -0.1347  0.0056  0.2578
  378POPI   PO4 5958   4.557  10.913  10.099 -0.1471 -0.3426 -0.2720
  378POPI   GL1 5959   4.388  10.843   9.823  0.0828 -0.0272 -0.1204
  378POPI   GL2 5960   4.084  10.964   9.787  0.0255  0.5237  0.0210
  378POPI   C1A 5961   4.680  10.925   9.404  0.0796 -0.2182  0.0235
  378POPI   D2A 5962   4.844  10.852   9.010  0.1148 -0.1062  0.1499
  378POPI   C3A 5963   4.680  11.030   8.694  0.0204 -0.3318  0.1447
  378POPI   C4A 5964   4.949  11.053   8.379 -0.1833  0.0101 -0.0920
  378POPI   C1B 5965   4.065  10.972   9.400  0.2326  0.0398  0.1641
  378POPI   C2B 5966   4.239  10.761   8.959  0.0898 -0.2804  0.0006
  378POPI   C3B 5967   4.272  10.915   8.499  0.2765 -0.0049 -0.3717
  378POPI   C4B 5968   4.360  11.040   8.146 -0.1621  0.0396 -0.0019
  379POPI    C1 5969  13.935   7.089  10.145 -0.1079  0.2630  0.3257
  379POPI    C2 5970  13.997   6.863  10.469 -0.1143 -0.1345  0.0576
  379POPI    C3 5971  14.274   7.128  10.354 -0.1800  0.1228  0.4708
  379POPI   PO4 5972  13.808   6.939   9.986  0.2214  0.3314 -0.1204
  379POPI   GL1 5973  13.612   7.032   9.603  0.0865  0.2594 -0.1549
  379POPI   GL2 5974  13.621   7.425   9.490  0.0122 -0.0511  0.1586
  379POPI   C1A 5975  13.769   6.781   9.193 -0.0639 -0.0216  0.0710
  379POPI   D2A 5976  13.702   6.779   8.810  0.1738  0.0587 -0.3792
  379POPI   C3A 5977  13.625   7.143   8.472  0.0761 -0.2811  0.0449
  379POPI   C4A 5978  13.645   7.573   8.301 -0.0461  0.1908  0.2343
  379POPI   C1B 5979  13.358   7.122   9.242  0.3198  0.1717 -0.1591
  379POPI   C2B 5980  13.262   6.894   8.893 -0.0319 -0.2529  0.0882
  379POPI   C3B 5981  13.421   6.714   8.430  0.1926 -0.0394  0.1666
  379POPI   C4B 5982  13.405   6.239   8.114 -0.0822  0.2788  0.3215
  380POPI    C1 5983  13.174  11.646  10.173 -0.0623  0.1323 -0.1833
  380POPI    C2 5984  13.287  11.644  10.557 -0.1503  0.1776 -0.1570
  380POPI    C3 5985  12.919  11.765  10.457 -0.1125  0.2085 -0.2601
  380POPI   PO4 5986  13.400  11.478  10.012  0.3254  0.1431  0.2534
  380POPI   GL1 5987  13.676  11.645   9.783 -0.1330  0.1065 -0.1110
  380POPI   GL2 5988  13.568  11.856   9.555  0.0180  0.3177  0.2893
  380POPI   C1A 5989  13.678  11.496   9.252  0.1863 -0.0127  0.0858
  380POPI   D2A 5990  13.807  11.519   8.813 -0.5590 -0.0020  0.1327
  380POPI   C3A 5991  14.190  11.340   8.940 -0.0456  0.2770  0.2458
  380POPI   C4A 5992  14.540  11.429   9.268 -0.2926 -0.0367 -0.0923
  380POPI   C1B 5993  13.447  11.982   9.114 -0.1544 -0.1442  0.0045
  380POPI   C2B 5994  13.509  11.944   8.714  0.1362 -0.2107 -0.1187
  380POPI   C3B 5995  13.378  11.598   8.427  0.3367  0.2031 -0.1082
  380POPI   C4B 5996  13.403  11.809   8.049  0.3071  0.0554  0.0510
  381POPI    C1 5997  13.340   9.548   9.869  0.2052 -0.0202  0.1232
  381POPI    C2 5998  13.298   9.349  10.213 -0.2847  0.0193  0.0943
  381POPI    C3 5999  13.314   9.748  10.214  0.3063  0.0043  0.1167
  381POPI   PO4 6000  13.285   9.457   9.661 -0.3405 -0.6655 -0.0446
  381POPI   GL1 6001  13.456   9.589   9.212  0.0431  0.0894 -0.2334
  381POPI   GL2 6002  13.848   9.632   9.089  0.0361 -0.2544 -0.0374
  381POPI   C1A 6003  13.584   9.589   8.719 -0.1101  0.1938  0.0051
  381POPI   D2A 6004  13.658   9.740   8.346 -0.2349  0.1854  0.0902
  381POPI   C3A 6005  13.785   9.628   7.895  0.0855  0.4624 -0.1575
  381POPI   C4A 6006  14.026   9.501   7.475  0.0598  0.0952  0.0276
  381POPI   C1B 6007  14.056   9.792   8.736 -0.0338 -0.2026 -0.0663
  381POPI   C2B 6008  14.151   9.889   8.268  0.1774 -0.2770  0.0040
  381POPI   C3B 6009  14.012  10.086   7.854 -0.1642  0.0975  0.0193
  381POPI   C4B 6010  13.730   9.985   7.453 -0.2424 -0.2698 -0.2129
  382POPI    C1 6011   1.783  16.094  10.492  0.2218 -0.0687 -0.0198
  382POPI    C2 6012   1.940  16.087  10.859  0.2838 -0.0638 -0.0461
  382POPI    C3 6013   2.153  15.952  10.548  0.3846  0.2945 -0.1380
  382POPI   PO4 6014   1.739  16.409  10.441  0.1210  0.0263 -0.0943
  382POPI   GL1 6015   1.766  16.719  10.007  0.0289 -0.1016 -0.1670
  382POPI   GL2 6016   1.500  16.816   9.882  0.0910  0.2183  0.2162
  382POPI   C1A 6017   2.107  16.408   9.729  0.1815  0.0028  0.2480
  382POPI   D2A 6018   2.087  16.214   9.349 -0.3232  0.1209  0.0551
  382POPI   C3A 6019   2.466  16.165   9.103  0.0692 -0.1377 -0.2341
  382POPI   C4A 6020   2.614  16.482   8.742  0.2303 -0.0674  0.0625
  382POPI   C1B 6021   1.685  16.710   9.464  0.1305  0.0442  0.0892
  382POPI   C2B 6022   1.713  16.462   9.134  0.0663 -0.0564  0.0221
  382POPI   C3B 6023   1.683  16.427   8.655 -0.1546  0.3895 -0.2005
  382POPI   C4B 6024   1.678  16.293   8.327 -0.1130  0.0802 -0.0264
  383POPI    C1 6025   4.438  13.052  10.715  0.1585  0.0107  0.1452
  383POPI    C2 6026   4.678  13.303  10.913  0.1150  0.1381  0.0381
  383POPI    C3 6027   4.786  12.921  10.862  0.3140  0.2037 -0.0439
  383POPI   PO4 6028   4.363  13.300  10.505 -0.0680  0.0022  0.0307
  383POPI   GL1 6029   4.066  13.317  10.165 -0.1193 -0.0060  0.1703
  383POPI   GL2 6030   3.737  13.473  10.187 -0.2743  0.0497 -0.1422
  383POPI   C1A 6031   4.309  13.286   9.832 -0.1075 -0.2362  0.4008
  383POPI   D2A 6032   4.566  13.196   9.486  0.1104 -0.1261  0.0201
  383POPI   C3A 6033   4.555  13.468   9.081 -0.2424  0.1042 -0.1909
  383POPI   C4A 6034   4.626  13.377   8.753 -0.1394  0.0670 -0.1731
  383POPI   C1B 6035   3.724  13.435   9.637  0.1619 -0.0927 -0.0674
  383POPI   C2B 6036   4.059  13.332   9.314  0.0324 -0.2440 -0.1384
  383POPI   C3B 6037   4.099  13.268   8.818 -0.1164  0.1552  0.3486
  383POPI   C4B 6038   4.008  13.068   8.488 -0.0137 -0.1859 -0.0630
  384POPI    C1 6039  13.848  13.709  10.336  0.0728  0.0189 -0.0817
  384POPI    C2 6040  14.099  14.002  10.440  0.1885 -0.1100  0.0042
  384POPI    C3 6041  13.731  13.990  10.595  0.0904  0.1387 -0.2025
  384POPI   PO4 6042  13.880  13.692  10.044  0.1916  0.0326  0.0338
  384POPI   GL1 6043  13.958  13.832   9.601 -0.3736 -0.2682 -0.0207
  384POPI   GL2 6044  14.066  13.483   9.541 -0.1046  0.3051  0.2618
  384POPI   C1A 6045  13.648  13.750   9.207  0.1819 -0.3359 -0.2475
  384POPI   D2A 6046  13.281  13.838   9.046 -0.0884 -0.0560 -0.0168
  384POPI   C3A 6047  13.225  14.121   8.643  0.0993 -0.0177 -0.1830
  384POPI   C4A 6048  13.208  14.409   8.404  0.0228  0.0349  0.0016
  384POPI   C1B 6049  14.276  13.631   9.159 -0.2706  0.2961  0.1360
  384POPI   C2B 6050  14.488  14.032   8.841  0.0780  0.1685  0.1560
  384POPI   C3B 6051  14.570  14.485   8.727 -0.0404  0.3118 -0.2506
  384POPI   C4B 6052  14.835  14.749   8.360 -0.0533 -0.3472 -0.0346
  385POPI    C1 6053  12.726   9.106  10.273 -0.0309 -0.0120  0.0100
  385POPI    C2 6054  12.806   9.480  10.391 -0.2197  0.0498 -0.0538
  385POPI    C3 6055  12.430   9.375  10.301 -0.1520 -0.1282 -0.1329
  385POPI   PO4 6056  12.875   9.064   9.971 -0.2251  0.0185  0.0416
  385POPI   GL1 6057  12.965   8.698   9.660  0.1643 -0.0726 -0.0613
  385POPI   GL2 6058  13.150   8.930   9.537  0.2135 -0.2784  0.2250
  385POPI   C1A 6059  12.917   8.680   9.174  0.0301 -0.0932  0.2214
  385POPI   D2A 6060  12.824   8.762   8.817  0.0778  0.1068 -0.3076
  385POPI   C3A 6061  13.110   8.971   8.538  0.2021  0.0146  0.1205
  385POPI   C4A 6062  13.163   8.929   8.154 -0.1575  0.1280 -0.2857
  385POPI   C1B 6063  13.161   9.126   9.109 -0.1112 -0.1598 -0.1552
  385POPI   C2B 6064  13.154   9.437   8.847  0.0822  0.2464  0.0915
  385POPI   C3B 6065  13.142   9.482   8.421  0.1445  0.0470 -0.1960
  385POPI   C4B 6066  13.277   9.490   8.049  0.0938  0.1118 -0.0330
  386POPI    C1 6067   2.383  17.256  10.724 -0.0627 -0.0986  0.2016
  386POPI    C2 6068   2.144  17.010  10.931  0.0599 -0.0206  0.4396
  386POPI    C3 6069   2.527  17.056  11.039  0.1215  0.0361  0.2048
  386POPI   PO4 6070   2.343  17.068  10.463 -0.0635  0.1556  0.0649
  386POPI   GL1 6071   2.461  17.029  10.033 -0.2267 -0.0788  0.3047
  386POPI   GL2 6072   2.657  16.955   9.778 -0.0215  0.0109  0.1362
  386POPI   C1A 6073   2.142  16.903   9.701 -0.2072 -0.2748  0.0998
  386POPI   D2A 6074   2.260  16.709   9.416 -0.0751 -0.1763 -0.0859
  386POPI   C3A 6075   2.169  16.539   9.031  0.0953 -0.2849  0.1696
  386POPI   C4A 6076   1.870  16.856   8.846 -0.1403 -0.0119 -0.0681
  386POPI   C1B 6077   2.594  17.090   9.324  0.0707  0.1489 -0.2441
  386POPI   C2B 6078   2.502  16.916   9.006 -0.2085 -0.0699 -0.1176
  386POPI   C3B 6079   2.507  16.931   8.579  0.1625 -0.3038 -0.3166
  386POPI   C4B 6080   2.417  16.808   8.143 -0.0561 -0.1341  0.0126
  387POPI    C1 6081  14.746  13.643  10.250 -0.1180 -0.3009  0.0957
  387POPI    C2 6082  14.357  13.669  10.160 -0.0458  0.1975 -0.1075
  387POPI    C3 6083  14.473  13.636  10.542 -0.2876 -0.0994 -0.0553
  387POPI   PO4 6084  14.845  13.618  10.022  0.0641  0.2401 -0.0835
  387POPI   GL1 6085  14.927  13.835   9.641  0.0188  0.1307  0.2006
  387POPI   GL2 6086  15.245  13.718   9.647  0.5718 -0.1238  0.1003
  387POPI   C1A 6087  14.758  13.995   9.282  0.2502 -0.0079  0.0449
  387POPI   D2A 6088  15.007  14.200   8.902 -0.0189  0.0612 -0.0649
  387POPI   C3A 6089  15.103  14.582   8.867 -0.0103  0.0362  0.2065
  387POPI   C4A 6090  14.850  14.894   9.055 -0.0493 -0.0713 -0.4404
  387POPI   C1B 6091  15.231  13.771   9.233 -0.1399  0.0596  0.0276
  387POPI   C2B 6092  15.362  13.673   8.758 -0.1625  0.1066  0.5934
  387POPI   C3B 6093  15.474  13.342   8.454  0.0720 -0.2459  0.3148
  387POPI   C4B 6094  15.261  12.969   8.204  0.1030  0.0447  0.0846
  388POPI    C1 6095  14.865  15.716  10.355  0.2056 -0.0621  0.2318
  388POPI    C2 6096  14.815  16.041  10.583 -0.2522  0.2376 -0.2720
  388POPI    C3 6097  14.643  15.695  10.687 -0.1624  0.2766  0.0154
  388POPI   PO4 6098  14.983  15.813  10.134  0.0810 -0.2052 -0.1490
  388POPI   GL1 6099  14.918  16.032   9.804 -0.2154 -0.0129 -0.1118
  388POPI   GL2 6100  15.097  15.936   9.508 -0.3206 -0.1612 -0.2565
  388POPI   C1A 6101  14.633  16.085   9.479 -0.3817 -0.2834  0.1981
  388POPI   D2A 6102  14.618  16.377   9.150  0.1728  0.0175  0.2001
  388POPI   C3A 6103  14.904  16.384   8.816  0.0585  0.3108 -0.0721
  388POPI   C4A 6104  15.162  16.455   8.455  0.2663  0.1160 -0.1019
  388POPI   C1B 6105  14.893  15.899   9.067 -0.1827  0.0484  0.2460
  388POPI   C2B 6106  14.565  15.784   8.732 -0.6660  0.0013  0.2133
  388POPI   C3B 6107  14.437  15.681   8.319 -0.1895  0.1353 -0.0189
  388POPI   C4B 6108  14.082  15.683   8.031 -0.1331  0.1317 -0.0799
  389POPI    C1 6109   0.889   1.122  10.640 -0.0780 -0.0200  0.2233
  389POPI    C2 6110   1.270   1.218  10.564 -0.0501 -0.1788  0.1571
  389POPI    C3 6111   1.184   0.952  10.850 -0.1027 -0.2464  0.0789
  389POPI   PO4 6112   0.819   1.152  10.340  0.0844  0.0292  0.0348
  389POPI   GL1 6113   1.014   1.188  10.003  0.0948  0.1935  0.0607
  389POPI   GL2 6114   1.276   0.911   9.960 -0.2755 -0.2482  0.0178
  389POPI   C1A 6115   0.812   0.982   9.640 -0.4019 -0.0615 -0.1517
  389POPI   D2A 6116   0.740   0.815   9.189 -0.0099  0.1843 -0.2588
  389POPI   C3A 6117   1.108   0.601   8.999 -0.1313 -0.6014 -0.1076
  389POPI   C4A 6118   1.115   0.415   8.700 -0.0099 -0.0652 -0.0329
  389POPI   C1B 6119   1.092   0.460   9.907  0.0271  0.1009 -0.4482
  389POPI   C2B 6120   1.291   0.158   9.734  0.0525 -0.0329  0.1539
  389POPI   C3B 6121   1.351  -0.144   9.389  0.0728 -0.0885 -0.0503
  389POPI   C4B 6122   1.394  -0.507   9.055 -0.1507  0.0957  0.1171
  390POPI    C1 6123  15.622  13.031  10.341 -0.3179 -0.3424  0.1321
  390POPI    C2 6124  15.870  12.721  10.391  0.0244 -0.1242 -0.1689
  390POPI    C3 6125  15.802  12.974  10.694  0.1489 -0.2007 -0.0759
  390POPI   PO4 6126  15.746  13.033  10.016 -0.2170 -0.0558  0.0115
  390POPI   GL1 6127  15.933  12.964   9.631  0.0967  0.0049 -0.2238
  390POPI   GL2 6128  15.817  13.240   9.580  0.5462  0.0719 -0.0080
  390POPI   C1A 6129  15.687  12.713   9.285 -0.0627 -0.1524 -0.1519
  390POPI   D2A 6130  15.383  12.543   8.929  0.1487  0.0553 -0.0111
  390POPI   C3A 6131  15.020  12.746   8.616 -0.1436  0.1408  0.0584
  390POPI   C4A 6132  14.751  12.912   8.402  0.1909  0.0774  0.0534
  390POPI   C1B 6133  15.793  13.160   9.118 -0.0030 -0.3826 -0.3364
  390POPI   C2B 6134  15.675  12.903   8.751 -0.0561  0.2452 -0.0348
  390POPI   C3B 6135  15.585  12.697   8.412  0.3236 -0.3331 -0.0596
  390POPI   C4B 6136  15.561  12.564   8.033 -0.1341  0.0205 -0.2236
  391POPI    C1 6137  16.909  13.330  10.233 -0.2921 -0.1668 -0.0709
  391POPI    C2 6138  16.672  13.045  10.383 -0.1529 -0.0920  0.3000
  391POPI    C3 6139  17.060  13.054  10.480 -0.0998  0.0696  0.0807
  391POPI   PO4 6140  16.807  13.346   9.941 -0.0909 -0.3795 -0.3251
  391POPI   GL1 6141  16.580  13.543   9.649 -0.1868 -0.1482 -0.2278
  391POPI   GL2 6142  16.325  13.262   9.427 -0.0652  0.0196 -0.2106
  391POPI   C1A 6143  16.597  13.757   9.274 -0.1245  0.0117  0.1119
  391POPI   D2A 6144  16.674  14.060   8.962 -0.0227  0.1890 -0.1295
  391POPI   C3A 6145  16.783  14.220   8.577 -0.4642  0.1998 -0.1272
  391POPI   C4A 6146  16.862  14.596   8.541  0.1392 -0.0683 -0.0375
  391POPI   C1B 6147  16.246  13.398   9.041  0.1201  0.0377 -0.0004
  391POPI   C2B 6148  15.973  13.343   8.611 -0.1006  0.0143  0.2284
  391POPI   C3B 6149  15.971  13.065   8.280  0.1730  0.2959  0.2432
  391POPI   C4B 6150  15.611  13.254   7.992 -0.0244 -0.1822  0.1006
  392POPI    C1 6151  17.200  11.443   9.838  0.3084  0.1603 -0.0279
  392POPI    C2 6152  17.135  11.834   9.891 -0.0250  0.1224 -0.1327
  392POPI    C3 6153  17.352  11.630  10.158 -0.1599  0.3032  0.1194
  392POPI   PO4 6154  16.942  11.354   9.738 -0.1752  0.3645  0.1355
  392POPI   GL1 6155  16.748  11.347   9.397 -0.0631  0.1053 -0.0430
  392POPI   GL2 6156  16.565  11.507   9.206 -0.1317  0.3067  0.2136
  392POPI   C1A 6157  17.052  11.472   8.960  0.0726 -0.0142 -0.1972
  392POPI   D2A 6158  16.959  11.446   8.524 -0.0664  0.1043 -0.1673
  392POPI   C3A 6159  16.886  11.035   8.509 -0.2740  0.0495 -0.2825
  392POPI   C4A 6160  16.732  10.793   8.160  0.0400  0.0309  0.0873
  392POPI   C1B 6161  16.390  11.859   9.169 -0.0102 -0.1294  0.0800
  392POPI   C2B 6162  16.338  12.147   8.838  0.1019 -0.1459 -0.2190
  392POPI   C3B 6163  16.218  12.223   8.450  0.2217 -0.2506 -0.0105
  392POPI   C4B 6164  16.072  12.532   8.119 -0.0036  0.0239  0.3184
  393POPI    C1 6165   6.669   0.544  10.500  0.1163 -0.0187  0.0586
  393POPI    C2 6166   6.713   0.852  10.751 -0.0769  0.1691 -0.1336
  393POPI    C3 6167   7.027   0.717  10.542  0.0530  0.1033  0.0998
  393POPI   PO4 6168   6.458   0.576  10.396  0.3809 -0.1286 -0.0332
  393POPI   GL1 6169   6.534   0.517   9.947  0.1241 -0.0561  0.0916
  393POPI   GL2 6170   6.344   0.749   9.919 -0.0268  0.1555 -0.1428
  393POPI   C1A 6171   6.344   0.202   9.893  0.1202 -0.1123 -0.0014
  393POPI   D2A 6172   6.152  -0.011   9.543  0.1691 -0.0012 -0.0449
  393POPI   C3A 6173   6.250   0.161   9.170  0.0162 -0.3360 -0.0673
  393POPI   C4A 6174   6.279   0.230   8.736  0.0969  0.0316  0.2432
  393POPI   C1B 6175   6.363   0.563   9.467  0.1101  0.3336  0.0668
  393POPI   C2B 6176   6.484   0.582   9.002  0.0457  0.1045  0.1768
  393POPI   C3B 6177   6.694   0.497   8.634  0.3283  0.1081 -0.0285
  393POPI   C4B 6178   7.030   0.540   8.434  0.1781  0.0713  0.0620
  394POPI    C1 6179  17.623   4.285  10.202 -0.0648  0.0684  0.1566
  394POPI    C2 6180  17.942   4.058  10.122 -0.0506  0.1492 -0.0208
  394POPI    C3 6181  17.991   4.437  10.242 -0.0784  0.1262  0.0638
  394POPI   PO4 6182  17.442   4.181  10.376 -0.0675 -0.0922 -0.0174
  394POPI   GL1 6183  17.129   4.258  10.057  0.1518  0.1460  0.1274
  394POPI   GL2 6184  16.906   4.141  10.067 -0.3317 -0.1699  0.1276
  394POPI   C1A 6185  17.039   4.575   9.756 -0.0395 -0.1369  0.1343
  394POPI   D2A 6186  16.699   4.541   9.483  0.2447  0.0267  0.5361
  394POPI   C3A 6187  16.754   4.337   9.088 -0.1455 -0.0273  0.1966
  394POPI   C4A 6188  17.134   4.398   8.818 -0.1266  0.2009  0.2032
  394POPI   C1B 6189  16.959   4.059   9.604  0.1398 -0.1117 -0.0896
  394POPI   C2B 6190  17.075   3.925   9.187  0.2107  0.2194  0.0977
  394POPI   C3B 6191  17.025   3.905   8.750  0.1036 -0.1533  0.0403
  394POPI   C4B 6192  16.891   4.040   8.386 -0.0763  0.0157 -0.3140
  395POPI    C1 6193   9.086   4.427  10.395 -0.0711 -0.0742 -0.0229
  395POPI    C2 6194   8.925   4.725  10.609 -0.0918 -0.0705 -0.0436
  395POPI    C3 6195   9.299   4.605  10.683  0.0117  0.1398 -0.2129
  395POPI   PO4 6196   8.975   4.493  10.133  0.1209 -0.1176 -0.1218
  395POPI   GL1 6197   8.887   4.845   9.823  0.0893  0.2390 -0.1823
  395POPI   GL2 6198   8.621   4.704   9.762  0.0316  0.1237 -0.1069
  395POPI   C1A 6199   9.226   4.738   9.454  0.0758  0.1170 -0.1277
  395POPI   D2A 6200   9.508   4.566   9.092 -0.0647  0.1918 -0.0431
  395POPI   C3A 6201   9.238   4.434   8.700 -0.0174 -0.0095 -0.0932
  395POPI   C4A 6202   9.136   4.372   8.225  0.1616  0.0970  0.2619
  395POPI   C1B 6203   8.466   4.658   9.346 -0.1654 -0.3428  0.0317
  395POPI   C2B 6204   8.605   4.713   8.938  0.0014  0.0069 -0.0045
  395POPI   C3B 6205   8.406   4.850   8.616  0.1074  0.0825  0.3314
  395POPI   C4B 6206   8.385   5.054   8.318  0.0056  0.1458 -0.3793
  396POPI    C1 6207  16.168  17.388  10.269 -0.0962 -0.1415  0.2021
  396POPI    C2 6208  16.526  17.483  10.119 -0.1952 -0.0697  0.0076
  396POPI    C3 6209  16.396  17.661  10.453 -0.0048 -0.1761  0.1407
  396POPI   PO4 6210  16.143  17.153  10.295 -0.3108 -0.1139  0.0413
  396POPI   GL1 6211  16.061  16.900  10.039 -0.3213  0.0365 -0.0923
  396POPI   GL2 6212  15.742  17.034   9.880 -0.4372  0.0974  0.0892
  396POPI   C1A 6213  16.184  16.815   9.620 -0.0957 -0.2260 -0.0250
  396POPI   D2A 6214  16.101  16.800   9.195 -0.1282 -0.0288  0.1034
  396POPI   C3A 6215  15.738  16.732   9.036 -0.0828  0.2780  0.1075
  396POPI   C4A 6216  15.351  16.618   8.907  0.0408 -0.3658  0.1556
  396POPI   C1B 6217  15.843  17.140   9.428  0.1751  0.0934  0.0127
  396POPI   C2B 6218  15.608  17.254   9.089 -0.0992 -0.2980  0.0323
  396POPI   C3B 6219  15.493  17.324   8.631 -0.0939  0.1519  0.0632
  396POPI   C4B 6220  15.496  17.312   8.182 -0.4059  0.2639  0.2009
  397POPI    C1 6221   1.286   5.569  10.258  0.1608  0.2734 -0.0195
  397POPI    C2 6222   1.622   5.619  10.469  0.1146  0.0917  0.0993
  397POPI    C3 6223   1.287   5.498  10.652  0.0364  0.0749 -0.0534
  397POPI   PO4 6224   1.234   5.770  10.095  0.1061 -0.1725  0.2094
  397POPI   GL1 6225   1.221   5.835   9.729  0.0996  0.3148 -0.1685
  397POPI   GL2 6226   1.329   6.174   9.800  0.2267  0.0118 -0.0817
  397POPI   C1A 6227   1.342   5.898   9.278  0.1730  0.0263 -0.1376
  397POPI   D2A 6228   1.469   6.174   8.975  0.5395 -0.0947 -0.2790
  397POPI   C3A 6229   1.361   6.294   8.626 -0.0451  0.1149  0.0521
  397POPI   C4A 6230   1.450   6.217   8.177 -0.1715  0.1437 -0.0988
  397POPI   C1B 6231   1.287   6.418   9.394 -0.0517 -0.3452 -0.2203
  397POPI   C2B 6232   1.119   6.548   9.045  0.0506  0.1234  0.1002
  397POPI   C3B 6233   0.936   6.819   8.719  0.0182 -0.1345 -0.1453
  397POPI   C4B 6234   0.926   7.187   8.460 -0.1326 -0.1388  0.2011
  398POPI    C1 6235   2.745   4.741  10.720  0.0680 -0.0396  0.0635
  398POPI    C2 6236   2.438   4.649  10.958  0.1124 -0.1152  0.0921
  398POPI    C3 6237   2.800   4.497  11.032  0.1518 -0.0444  0.0453
  398POPI   PO4 6238   2.609   4.754  10.342  0.0464 -0.2333 -0.0287
  398POPI   GL1 6239   2.507   4.992   9.976 -0.1737 -0.1972 -0.0045
  398POPI   GL2 6240   2.836   4.964   9.947 -0.1244  0.0705 -0.1378
  398POPI   C1A 6241   2.143   5.249   9.748  0.1831  0.2970 -0.1733
  398POPI   D2A 6242   1.784   5.558   9.591  0.4423  0.0531 -0.0244
  398POPI   C3A 6243   1.623   5.496   9.201 -0.1728  0.0302 -0.0077
  398POPI   C4A 6244   1.479   5.681   8.803 -0.0398  0.2456  0.3798
  398POPI   C1B 6245   2.645   4.700   9.525 -0.1603 -0.0595 -0.1513
  398POPI   C2B 6246   2.554   4.789   9.133 -0.1581 -0.2219  0.0907
  398POPI   C3B 6247   2.566   4.855   8.644 -0.4538  0.2020 -0.3063
  398POPI   C4B 6248   2.754   5.046   8.343  0.1870  0.2494  0.0202
  399POPI    C1 6249  11.712  15.272   9.947  0.0941  0.1292  0.0982
  399POPI    C2 6250  11.845  15.324  10.320  0.1852 -0.0974  0.0989
  399POPI    C3 6251  11.914  14.979  10.130 -0.3634 -0.2065  0.0821
  399POPI   PO4 6252  11.788  15.415   9.747 -0.2427 -0.3862  0.0377
  399POPI   GL1 6253  11.882  15.446   9.324  0.1291  0.4811 -0.1126
  399POPI   GL2 6254  11.498  15.608   9.162 -0.3602 -0.1994 -0.0412
  399POPI   C1A 6255  11.952  15.418   8.899 -0.0661 -0.1976 -0.0336
  399POPI   D2A 6256  12.032  15.274   8.697  0.0166 -0.1378  0.3838
  399POPI   C3A 6257  11.673  15.050   8.446 -0.0666 -0.3006 -0.0794
  399POPI   C4A 6258  11.297  14.894   8.309 -0.0291  0.2426 -0.2451
  399POPI   C1B 6259  11.783  15.869   8.855  0.0058 -0.0580 -0.2165
  399POPI   C2B 6260  11.806  15.705   8.424  0.1654  0.1348 -0.0449
  399POPI   C3B 6261  11.978  15.490   8.123 -0.0843 -0.1361  0.2946
  399POPI   C4B 6262  12.319  15.612   7.939 -0.2670  0.0568  0.1161
  400POPI    C1 6263   7.933   5.645  10.077 -0.0374  0.2256 -0.0512
  400POPI    C2 6264   7.596   5.652   9.862 -0.1857 -0.0549  0.1656
  400POPI    C3 6265   7.706   5.973  10.074 -0.1145  0.1716 -0.2065
  400POPI   PO4 6266   8.079   5.502   9.985 -0.2395  0.1357  0.0887
  400POPI   GL1 6267   8.295   5.605   9.671  0.1621 -0.1727 -0.3195
  400POPI   GL2 6268   8.037   5.843   9.659  0.0983 -0.1865 -0.0178
  400POPI   C1A 6269   8.654   5.535   9.484  0.1687 -0.0167 -0.0915
  400POPI   D2A 6270   8.849   5.080   9.315  0.1718 -0.0330 -0.1763
  400POPI   C3A 6271   8.910   5.128   8.829  0.0055  0.3522  0.0399
  400POPI   C4A 6272   8.771   5.362   8.446  0.2447 -0.3742 -0.2344
  400POPI   C1B 6273   7.829   6.072   9.233  0.1894 -0.0177  0.2227
  400POPI   C2B 6274   7.565   6.323   8.933 -0.0369  0.1269  0.0355
  400POPI   C3B 6275   7.249   6.286   8.640 -0.1344 -0.1366  0.0457
  400POPI   C4B 6276   6.879   6.235   8.416  0.1190  0.1337 -0.0978
  401POPI    C1 6277  15.781  10.455  10.181  0.0232 -0.2827  0.1798
  401POPI    C2 6278  15.820  10.810  10.360 -0.2913 -0.1223 -0.0592
  401POPI    C3 6279  16.029  10.496  10.492 -0.0953  0.1220  0.2273
  401POPI   PO4 6280  15.643  10.590   9.946  0.1417 -0.1099 -0.0679
  401POPI   GL1 6281  15.725  10.798   9.537 -0.1075 -0.1906 -0.0708
  401POPI   GL2 6282  15.538  10.479   9.511  0.0378  0.0589  0.3132
  401POPI   C1A 6283  15.538  10.945   9.061 -0.0229 -0.0092  0.4397
  401POPI   D2A 6284  15.197  11.002   8.740  0.2458  0.1252 -0.2200
  401POPI   C3A 6285  15.471  11.019   8.460  0.0379 -0.2511  0.1798
  401POPI   C4A 6286  15.330  10.960   8.041  0.1237  0.3092  0.3795
  401POPI   C1B 6287  15.278  10.552   9.207 -0.1333  0.2182  0.1271
  401POPI   C2B 6288  15.432  10.542   8.728 -0.0786 -0.2913  0.0765
  401POPI   C3B 6289  15.597  10.562   8.306  0.0165  0.0928 -0.0215
  401POPI   C4B 6290  15.678  10.571   7.882 -0.3484  0.1623  0.1262
  402POPI    C1 6291   4.528   3.159  10.435 -0.0114  0.0922  0.0077
  402POPI    C2 6292   4.508   3.022  10.810 -0.0499 -0.0929 -0.0609
  402POPI    C3 6293   4.657   3.386  10.738  0.1339 -0.1313  0.1158
  402POPI   PO4 6294   4.542   3.015  10.250  0.1868  0.0118 -0.2992
  402POPI   GL1 6295   4.468   3.107   9.794  0.0226  0.1293 -0.1470
  402POPI   GL2 6296   4.892   2.965   9.904  0.2833  0.0097  0.3158
  402POPI   C1A 6297   4.095   2.980   9.643 -0.0844 -0.0203  0.0492
  402POPI   D2A 6298   3.823   3.129   9.450 -0.0708  0.2505  0.2314
  402POPI   C3A 6299   3.543   3.098   9.254  0.4113  0.0745  0.1229
  402POPI   C4A 6300   3.466   3.002   8.772  0.1209 -0.3016 -0.1382
  402POPI   C1B 6301   4.850   2.892   9.520 -0.0445 -0.0472  0.1414
  402POPI   C2B 6302   4.851   2.566   9.175 -0.4165 -0.1493  0.1586
  402POPI   C3B 6303   4.730   2.398   8.815 -0.0518 -0.0567 -0.0435
  402POPI   C4B 6304   4.849   2.248   8.384 -0.0870 -0.1353  0.2963
  403POPI    C1 6305   3.662  13.780  10.816  0.0490  0.0690  0.0212
  403POPI    C2 6306   3.951  13.561  10.647  0.0311 -0.0224  0.1079
  403POPI    C3 6307   3.966  13.645  11.038  0.0269  0.1143  0.0792
  403POPI   PO4 6308   3.425  13.749  10.565 -0.1099  0.0375  0.1415
  403POPI   GL1 6309   3.577  14.067  10.176  0.1053  0.1416 -0.3033
  403POPI   GL2 6310   3.819  13.939  10.271  0.1406 -0.0580  0.2190
  403POPI   C1A 6311   3.463  13.805   9.852 -0.1071  0.2689 -0.1300
  403POPI   D2A 6312   3.199  13.561   9.595  0.0281  0.0401  0.1660
  403POPI   C3A 6313   3.191  13.549   9.156  0.1698  0.0726 -0.2097
  403POPI   C4A 6314   3.003  13.360   8.708 -0.0631  0.2209 -0.1397
  403POPI   C1B 6315   4.118  13.756   9.870 -0.0262 -0.1686 -0.0662
  403POPI   C2B 6316   4.602  13.736   9.636 -0.1622 -0.1015 -0.0235
  403POPI   C3B 6317   4.988  13.475   9.490  0.2071  0.1444 -0.1603
  403POPI   C4B 6318   5.291  13.407   9.201  0.0622 -0.1757 -0.0658
  404POPI    C1 6319  13.973  16.329  10.486 -0.0492  0.0723  0.2172
  404POPI    C2 6320  13.829  15.974  10.602  0.0898 -0.0283  0.0866
  404POPI    C3 6321  13.641  16.311  10.708 -0.0377 -0.1399  0.2191
  404POPI   PO4 6322  14.018  16.413  10.207 -0.1388  0.0894  0.1731
  404POPI   GL1 6323  14.033  16.316   9.774 -0.1880 -0.3878  0.0310
  404POPI   GL2 6324  13.771  16.393   9.792 -0.0220 -0.3300  0.2302
  404POPI   C1A 6325  14.270  16.523   9.479 -0.1319 -0.1248 -0.1044
  404POPI   D2A 6326  14.164  16.576   9.005  0.2032  0.0685 -0.1326
  404POPI   C3A 6327  14.396  16.361   8.669  0.1297 -0.0733  0.3223
  404POPI   C4A 6328  14.681  16.176   8.438  0.2971  0.1158  0.0260
  404POPI   C1B 6329  13.845  16.276   9.314  0.3924  0.0022  0.1311
  404POPI   C2B 6330  13.770  16.238   8.901 -0.2954 -0.0992 -0.3507
  404POPI   C3B 6331  13.621  16.185   8.477 -0.0830  0.1381 -0.0021
  404POPI   C4B 6332  13.717  16.359   8.127  0.1104 -0.4785  0.0472
  405POPI    C1 6333   2.610   9.755  10.780  0.0525  0.0692 -0.1687
  405POPI    C2 6334   2.898   9.479  10.751 -0.0564 -0.0746  0.0879
  405POPI    C3 6335   2.708   9.534  11.099 -0.3018  0.0566 -0.0645
  405POPI   PO4 6336   2.568   9.756  10.491  0.2681 -0.0640 -0.2571
  405POPI   GL1 6337   2.615   9.766  10.059 -0.0189 -0.1015 -0.4089
  405POPI   GL2 6338   2.639   9.365   9.944 -0.1229 -0.0266  0.0582
  405POPI   C1A 6339   2.485  10.080   9.758 -0.0794 -0.3850 -0.2567
  405POPI   D2A 6340   2.726  10.255   9.411 -0.0558 -0.0720  0.2988
  405POPI   C3A 6341   2.666  10.597   9.141 -0.1688  0.0408 -0.0068
  405POPI   C4A 6342   2.641  10.907   8.846 -0.0888  0.0517  0.1589
  405POPI   C1B 6343   2.576   9.592   9.621  0.0425  0.1962 -0.0934
  405POPI   C2B 6344   2.606   9.664   9.123 -0.0244 -0.0751 -0.3021
  405POPI   C3B 6345   2.650   9.854   8.695  0.2433 -0.0619  0.1888
  405POPI   C4B 6346   2.747   9.727   8.271 -0.2170  0.1380 -0.1472
  406POPI    C1 6347   4.422  12.258  10.432 -0.0867 -0.1938 -0.1444
  406POPI    C2 6348   4.630  12.599  10.423 -0.3319 -0.0431 -0.1908
  406POPI    C3 6349   4.805  12.256  10.315 -0.0201  0.0314  0.0618
  406POPI   PO4 6350   4.223  12.279  10.408  0.0876  0.0198  0.1413
  406POPI   GL1 6351   4.096  12.386  10.019  0.1952  0.1877 -0.1574
  406POPI   GL2 6352   4.417  12.446   9.972 -0.2299 -0.2814 -0.0933
  406POPI   C1A 6353   4.149  12.229   9.650  0.1380 -0.1635 -0.2692
  406POPI   D2A 6354   4.211  12.302   9.305 -0.0270 -0.1070 -0.1879
  406POPI   C3A 6355   4.211  12.255   8.886  0.2623  0.3192  0.0727
  406POPI   C4A 6356   4.134  12.568   8.656  0.4136 -0.1647  0.0437
  406POPI   C1B 6357   4.436  12.739   9.672 -0.0806  0.2019 -0.2413
  406POPI   C2B 6358   4.398  12.805   9.240  0.3846  0.1013  0.3355
  406POPI   C3B 6359   4.449  12.926   8.898 -0.0644  0.0247  0.1512
  406POPI   C4B 6360   4.501  12.903   8.442  0.0119 -0.2411 -0.3338
  407POPI    C1 6361  15.528   8.069  10.064 -0.1730  0.0106 -0.1172
  407POPI    C2 6362  15.171   8.014  10.237 -0.1592 -0.1759 -0.1468
  407POPI    C3 6363  15.506   7.972  10.452 -0.1536 -0.0185 -0.1234
  407POPI   PO4 6364  15.580   7.896   9.817 -0.1368  0.0848 -0.2071
  407POPI   GL1 6365  15.684   7.868   9.512  0.2570 -0.1047  0.4202
  407POPI   GL2 6366  15.449   8.098   9.351 -0.1278  0.0966 -0.5106
  407POPI   C1A 6367  15.912   7.734   9.030  0.0388 -0.1040 -0.0712
  407POPI   D2A 6368  16.123   7.799   8.678 -0.0902  0.5739  0.0076
  407POPI   C3A 6369  16.357   7.519   8.411 -0.1809  0.1335  0.0208
  407POPI   C4A 6370  16.201   7.288   8.034 -0.0552 -0.3056 -0.0176
  407POPI   C1B 6371  15.243   7.906   9.085 -0.4282  0.0879  0.3966
  407POPI   C2B 6372  15.214   7.776   8.603  0.0111 -0.0139 -0.2833
  407POPI   C3B 6373  15.360   7.833   8.105  0.1845 -0.0036 -0.3378
  407POPI   C4B 6374  15.367   7.778   7.648 -0.2232  0.1790  0.0165
  408POPI    C1 6375   5.181   9.250  10.383  0.1333 -0.1179  0.2096
  408POPI    C2 6376   5.087   9.639  10.385 -0.1083 -0.1752  0.2515
  408POPI    C3 6377   4.986   9.407  10.695 -0.1093 -0.3046  0.1554
  408POPI   PO4 6378   5.110   9.253  10.040 -0.4780  0.2795  0.1450
  408POPI   GL1 6379   4.809   9.113   9.694  0.1022 -0.1656 -0.2192
  408POPI   GL2 6380   5.172   9.055   9.581 -0.2530 -0.0888 -0.0183
  408POPI   C1A 6381   4.821   9.095   9.150 -0.0377 -0.2807  0.2150
  408POPI   D2A 6382   4.676   8.967   8.796  0.0820 -0.0467 -0.0579
  408POPI   C3A 6383   4.288   8.728   8.889 -0.3034 -0.3343  0.2132
  408POPI   C4A 6384   4.090   8.670   9.239  0.1316 -0.2407 -0.1300
  408POPI   C1B 6385   5.281   9.293   9.238  0.1988 -0.0274 -0.0253
  408POPI   C2B 6386   5.361   9.676   8.989 -0.1083  0.1515 -0.4225
  408POPI   C3B 6387   5.487   9.828   8.590 -0.3685 -0.2061 -0.1492
  408POPI   C4B 6388   5.715   9.944   8.182 -0.0298 -0.0940  0.1230
  409POPI    C1 6389  14.124   8.043  10.169  0.0009 -0.1603  0.0794
  409POPI    C2 6390  13.965   8.307  10.424 -0.1565 -0.1362 -0.0415
  409POPI    C3 6391  14.354   8.216  10.446 -0.1299  0.0046  0.0868
  409POPI   PO4 6392  14.064   8.121   9.946 -0.1356 -0.1223 -0.2038
  409POPI   GL1 6393  14.047   8.294   9.645 -0.1025 -0.0589 -0.2306
  409POPI   GL2 6394  14.056   8.589   9.628  0.2006 -0.1741  0.0094
  409POPI   C1A 6395  14.244   8.034   9.313 -0.0798 -0.1858 -0.0785
  409POPI   D2A 6396  14.141   7.819   8.809  0.0054 -0.2953  0.1321
  409POPI   C3A 6397  14.064   7.868   8.431  0.2240 -0.0729 -0.1863
  409POPI   C4A 6398  13.955   7.771   8.030 -0.2955 -0.0753  0.2304
  409POPI   C1B 6399  13.984   8.652   9.162 -0.0836 -0.0816  0.2128
  409POPI   C2B 6400  13.958   8.835   8.692  0.3413 -0.1083 -0.0492
  409POPI   C3B 6401  13.970   8.823   8.238 -0.1888 -0.1706  0.1880
  409POPI   C4B 6402  13.887   8.740   7.722  0.1389 -0.1228 -0.1722
  410POPI    C1 6403  11.185   2.485  10.120 -0.0012 -0.0926 -0.2640
  410POPI    C2 6404  10.997   2.201  10.331 -0.0161  0.0265 -0.1155
  410POPI    C3 6405  10.921   2.587  10.403  0.2222  0.0742 -0.1128
  410POPI   PO4 6406  11.185   2.522   9.902  0.1868  0.0391  0.0200
  410POPI   GL1 6407  10.952   2.604   9.558 -0.1306 -0.0138  0.0042
  410POPI   GL2 6408  10.936   2.980   9.466 -0.1681 -0.1382  0.0748
  410POPI   C1A 6409  10.869   2.678   9.063  0.3126 -0.1644  0.1176
  410POPI   D2A 6410  10.781   2.714   8.667  0.0012  0.0645  0.1163
  410POPI   C3A 6411  10.931   3.030   8.357 -0.3603 -0.0610 -0.3798
  410POPI   C4A 6412  11.135   3.015   7.939 -0.0776 -0.0581 -0.1846
  410POPI   C1B 6413  10.670   3.135   9.206 -0.2816  0.1335 -0.1432
  410POPI   C2B 6414  10.574   3.098   8.792  0.0198  0.0471 -0.5042
  410POPI   C3B 6415  10.399   3.035   8.389  0.0434 -0.0549  0.1134
  410POPI   C4B 6416  10.613   3.077   7.934 -0.3111 -0.0491 -0.0760
  411POPI    C1 6417   1.450   9.251  10.409 -0.0332  0.1127 -0.1631
  411POPI    C2 6418   1.512   9.112  10.779 -0.0014  0.2151 -0.1295
  411POPI    C3 6419   1.787   9.344  10.604  0.0835 -0.0126 -0.3032
  411POPI   PO4 6420   1.338   8.977  10.276 -0.1166 -0.3708 -0.0873
  411POPI   GL1 6421   1.623   8.829   9.930 -0.1824 -0.0947  0.1274
  411POPI   GL2 6422   1.785   9.064  10.100  0.0822 -0.0877 -0.0291
  411POPI   C1A 6423   1.638   8.872   9.493 -0.1766  0.0763 -0.3482
  411POPI   D2A 6424   1.628   8.890   9.113 -0.0693  0.1885 -0.1020
  411POPI   C3A 6425   1.592   8.702   8.702 -0.0673  0.2297 -0.0701
  411POPI   C4A 6426   1.703   8.976   8.330  0.3526 -0.0735 -0.0078
  411POPI   C1B 6427   1.659   9.297   9.780  0.2004 -0.1229  0.2188
  411POPI   C2B 6428   1.685   9.513   9.440 -0.0275 -0.0477  0.1404
  411POPI   C3B 6429   1.660   9.360   8.981  0.1548 -0.2280  0.0593
  411POPI   C4B 6430   1.766   9.425   8.586  0.0993 -0.2689  0.2897
  412POPI    C1 6431   3.168  11.526  10.208 -0.0624 -0.1418  0.1948
  412POPI    C2 6432   2.963  11.860  10.127  0.1155 -0.0521  0.1083
  412POPI    C3 6433   2.933  11.689  10.488  0.0851  0.1020  0.1799
  412POPI   PO4 6434   3.048  11.372   9.993  0.2100 -0.0283  0.0084
  412POPI   GL1 6435   2.960  11.550   9.623 -0.2724  0.0245  0.1038
  412POPI   GL2 6436   2.719  11.669   9.706 -0.1124  0.1864 -0.0233
  412POPI   C1A 6437   2.896  11.764   9.286 -0.0252 -0.0432  0.3091
  412POPI   D2A 6438   2.979  11.790   8.843 -0.1432 -0.1192  0.0694
  412POPI   C3A 6439   2.864  12.003   8.607  0.2665  0.1023 -0.0047
  412POPI   C4A 6440   2.478  11.983   8.488 -0.0349 -0.0593  0.0589
  412POPI   C1B 6441   2.424  11.645   9.409  0.1739  0.3638  0.0304
  412POPI   C2B 6442   2.535  11.510   9.024 -0.2922  0.0929 -0.0246
  412POPI   C3B 6443   2.639  11.504   8.560 -0.0183  0.0065  0.1321
  412POPI   C4B 6444   2.726  11.363   8.037  0.2968  0.3733 -0.0724
  413POPI    C1 6445  15.211  12.079   9.993  0.0539  0.0073  0.0752
  413POPI    C2 6446  14.945  12.255  10.234  0.1325 -0.1298  0.2645
  413POPI    C3 6447  14.902  11.870  10.135 -0.0752  0.0063 -0.2017
  413POPI   PO4 6448  15.355  12.291   9.877  0.0028 -0.1206  0.1036
  413POPI   GL1 6449  15.662  12.232   9.510  0.1024  0.1002 -0.0176
  413POPI   GL2 6450  16.004  12.363   9.537  0.3365 -0.0766  0.0909
  413POPI   C1A 6451  15.514  12.095   9.136  0.1098 -0.2379 -0.0172
  413POPI   D2A 6452  15.456  12.055   8.691  0.1370  0.2296  0.0150
  413POPI   C3A 6453  15.198  11.865   8.408  0.2560 -0.2064 -0.1761
  413POPI   C4A 6454  15.143  11.442   8.538  0.2267 -0.1366  0.2347
  413POPI   C1B 6455  15.936  12.323   9.126  0.3469 -0.0825 -0.1073
  413POPI   C2B 6456  15.817  12.423   8.760 -0.0272  0.0829  0.1361
  413POPI   C3B 6457  15.725  12.151   8.299  0.1360  0.0302  0.0050
  413POPI   C4B 6458  15.643  12.054   7.795  0.1976 -0.0549  0.1105
  414POPI    C1 6459   3.152  10.365  10.660 -0.0525  0.0127 -0.4160
  414POPI    C2 6460   3.058   9.979  10.609 -0.2425  0.0277 -0.1949
  414POPI    C3 6461   2.822  10.215  10.830  0.0857  0.1741  0.0071
  414POPI   PO4 6462   3.171  10.484  10.384  0.3436 -0.2288 -0.1328
  414POPI   GL1 6463   3.083  10.699   9.997 -0.0507  0.1417  0.2406
  414POPI   GL2 6464   3.148  10.425   9.772 -0.2300  0.0264 -0.1335
  414POPI   C1A 6465   2.722  10.804   9.646 -0.3438  0.1580 -0.0483
  414POPI   D2A 6466   2.266  10.622   9.625  0.1375 -0.1632  0.1430
  414POPI   C3A 6467   2.182  10.317   9.383 -0.1599 -0.1367  0.1865
  414POPI   C4A 6468   2.415  10.096   9.084  0.0617  0.0511 -0.0573
  414POPI   C1B 6469   3.155  10.668   9.360  0.3445 -0.0654 -0.2087
  414POPI   C2B 6470   3.029  10.650   8.832 -0.1486 -0.0850  0.0175
  414POPI   C3B 6471   3.278  10.576   8.457  0.1370  0.0970 -0.0154
  414POPI   C4B 6472   3.265  10.584   7.978 -0.3527  0.0479 -0.0783
  415POPI    C1 6473  10.588   7.542  10.205  0.0086  0.3524 -0.1440
  415POPI    C2 6474  10.440   7.702  10.540 -0.2434 -0.2674  0.0557
  415POPI    C3 6475  10.821   7.581  10.527 -0.1126  0.1387 -0.0279
  415POPI   PO4 6476  10.543   7.329  10.133 -0.2125  0.2932  0.1724
  415POPI   GL1 6477  10.356   7.048   9.799 -0.1963 -0.1797 -0.1039
  415POPI   GL2 6478  10.305   6.774   9.721 -0.1904  0.1505  0.1780
  415POPI   C1A 6479  10.686   6.984   9.515  0.2369  0.0023  0.0184
  415POPI   D2A 6480  11.088   6.861   9.571 -0.0404  0.1675  0.1803
  415POPI   C3A 6481  11.444   6.709   9.570  0.1253  0.0549 -0.4687
  415POPI   C4A 6482  11.762   6.754   9.779 -0.1920  0.0767 -0.1964
  415POPI   C1B 6483  10.284   6.919   9.252  0.1186 -0.3787  0.0797
  415POPI   C2B 6484  10.334   6.917   8.877  0.1743  0.2938 -0.0443
  415POPI   C3B 6485  10.129   6.905   8.501  0.0516  0.0985 -0.1342
  415POPI   C4B 6486   9.808   6.430   8.292 -0.2188 -0.2388 -0.0778
  416POPI    C1 6487   2.126  11.677  10.513 -0.0204 -0.1166 -0.0638
  416POPI    C2 6488   2.097  11.682  10.912 -0.2440 -0.0389 -0.0794
  416POPI    C3 6489   2.414  11.512  10.736 -0.3126 -0.3858  0.1229
  416POPI   PO4 6490   1.979  11.898  10.451  0.4106  0.3740 -0.0682
  416POPI   GL1 6491   1.780  11.864  10.002  0.2118 -0.3707  0.2360
  416POPI   GL2 6492   1.964  12.055   9.926 -0.3202  0.0379 -0.2028
  416POPI   C1A 6493   1.450  11.745   9.766  0.1560 -0.1982 -0.1016
  416POPI   D2A 6494   1.526  11.940   9.355  0.0059 -0.0037  0.2326
  416POPI   C3A 6495   1.696  11.730   8.970 -0.0597  0.1094 -0.1523
  416POPI   C4A 6496   1.718  11.275   8.745 -0.0575  0.2928 -0.0690
  416POPI   C1B 6497   2.162  12.045   9.623 -0.1192  0.0143 -0.1222
  416POPI   C2B 6498   2.065  12.030   9.201  0.2127 -0.2703  0.1029
  416POPI   C3B 6499   2.005  12.238   8.737  0.3728  0.1511  0.2183
  416POPI   C4B 6500   1.752  12.416   8.379 -0.0876 -0.0085  0.3645
  417POPI    C1 6501  17.778   1.544  10.587  0.0869 -0.0599  0.0916
  417POPI    C2 6502  18.002   1.876  10.589 -0.0315  0.0232 -0.1011
  417POPI    C3 6503  17.925   1.684  10.932  0.0059  0.2159  0.0168
  417POPI   PO4 6504  17.631   1.612  10.371  0.0002 -0.1455  0.2056
  417POPI   GL1 6505  17.568   1.872  10.019  0.1437 -0.1353 -0.0808
  417POPI   GL2 6506  17.919   1.894  10.088  0.0197  0.1609 -0.0840
  417POPI   C1A 6507  17.612   1.732   9.678  0.2150 -0.0726 -0.0887
  417POPI   D2A 6508  17.740   1.809   9.328  0.0451  0.0229 -0.2327
  417POPI   C3A 6509  17.573   1.578   8.957  0.1178 -0.1472  0.0521
  417POPI   C4A 6510  17.399   1.382   8.640 -0.0174  0.3449  0.3553
  417POPI   C1B 6511  18.109   1.804   9.659  0.2589  0.0557  0.0662
  417POPI   C2B 6512  18.263   1.869   9.129 -0.2697  0.1290  0.0407
  417POPI   C3B 6513  18.443   1.490   8.897 -0.0007 -0.1637 -0.0066
  417POPI   C4B 6514  18.856   1.246   8.957  0.1500 -0.0843  0.1556
  418POPI    C1 6515   3.651  16.394  10.570 -0.1025  0.2721  0.0169
  418POPI    C2 6516   3.547  16.663  10.847 -0.0525  0.2779  0.0302
  418POPI    C3 6517   3.421  16.285  10.878  0.1059  0.2347  0.1620
  418POPI   PO4 6518   3.676  16.440  10.409  0.1707  0.0981 -0.0719
  418POPI   GL1 6519   3.820  16.069  10.118 -0.3294  0.1678  0.2312
  418POPI   GL2 6520   3.765  15.728  10.115  0.4217 -0.0515  0.0426
  418POPI   C1A 6521   4.025  16.344   9.820  0.5023 -0.1294 -0.3483
  418POPI   D2A 6522   4.359  16.395   9.523  0.2914  0.3652  0.2214
  418POPI   C3A 6523   4.386  16.173   9.171  0.0714  0.0368 -0.3179
  418POPI   C4A 6524   4.582  16.078   8.774  0.1299  0.0161 -0.0521
  418POPI   C1B 6525   3.779  15.514   9.609 -0.1433  0.0772  0.1684
  418POPI   C2B 6526   3.657  15.353   9.225  0.0469 -0.3289  0.3781
  418POPI   C3B 6527   3.429  15.111   8.908 -0.1414  0.4241  0.1166
  418POPI   C4B 6528   3.587  14.881   8.485 -0.0066  0.0393  0.2698
  419POPI    C1 6529   8.934   7.657  10.415 -0.2068 -0.1218 -0.2259
  419POPI    C2 6530   8.546   7.574  10.464 -0.2381  0.1960  0.1102
  419POPI    C3 6531   8.791   7.580  10.780  0.0788 -0.1613 -0.1197
  419POPI   PO4 6532   9.077   7.456  10.267  0.0936 -0.0240 -0.1750
  419POPI   GL1 6533   8.993   7.263   9.954  0.2607  0.3304  0.2024
  419POPI   GL2 6534   9.156   7.478   9.796 -0.0105  0.1773  0.1810
  419POPI   C1A 6535   8.716   7.274   9.583 -0.2345 -0.3660  0.2058
  419POPI   D2A 6536   8.197   7.192   9.386 -0.0397 -0.0843 -0.1500
  419POPI   C3A 6537   8.239   7.079   9.011  0.1396  0.1559  0.0461
  419POPI   C4A 6538   7.939   7.215   8.680  0.0378 -0.2395  0.0396
  419POPI   C1B 6539   9.121   7.366   9.267  0.2390 -0.1098 -0.1070
  419POPI   C2B 6540   9.106   7.390   8.830  0.3250  0.3142  0.0381
  419POPI   C3B 6541   9.209   7.320   8.322  0.1565 -0.0541 -0.0458
  419POPI   C4B 6542   9.064   7.189   8.078 -0.0974 -0.0345 -0.3654
  420POPI    C1 6543   9.210   0.776  10.653 -0.0836  0.0780 -0.1937
  420POPI    C2 6544   8.971   0.474  10.546  0.1258 -0.1781  0.0459
  420POPI    C3 6545   8.855   0.729  10.831  0.0301 -0.1460 -0.0212
  420POPI   PO4 6546   9.318   0.916  10.384 -0.1446  0.1071 -0.1607
  420POPI   GL1 6547   9.278   1.001   9.883  0.1696  0.1275 -0.3613
  420POPI   GL2 6548   9.221   0.664   9.686 -0.0121 -0.1097  0.0700
  420POPI   C1A 6549   9.080   1.268   9.465  0.2137 -0.0782 -0.2322
  420POPI   D2A 6550   9.118   1.159   8.924 -0.0590  0.2317 -0.1559
  420POPI   C3A 6551   9.246   1.415   8.595  0.0656  0.1389  0.0034
  420POPI   C4A 6552   9.390   1.403   8.230  0.0371 -0.2743 -0.3569
  420POPI   C1B 6553   8.844   0.877   9.552 -0.3215  0.0223 -0.1138
  420POPI   C2B 6554   8.683   0.992   9.172  0.0457 -0.3744 -0.2784
  420POPI   C3B 6555   8.573   0.987   8.754  0.0887 -0.3643 -0.2528
  420POPI   C4B 6556   8.474   0.802   8.394 -0.3992 -0.1362  0.4397
  421POPI    C1 6557   0.680   8.278  10.538  0.1115  0.3018  0.2208
  421POPI    C2 6558   0.336   8.083  10.474  0.2942  0.0578 -0.0474
  421POPI    C3 6559   0.444   8.182  10.847  0.1884 -0.3418  0.0945
  421POPI   PO4 6560   0.898   8.139  10.429  0.1402  0.1642  0.1228
  421POPI   GL1 6561   0.966   8.240  10.004  0.1375 -0.0819  0.4245
  421POPI   GL2 6562   1.340   8.478   9.985 -0.2625  0.1638  0.2296
  421POPI   C1A 6563   0.659   8.081   9.677 -0.1216 -0.1219 -0.0766
  421POPI   D2A 6564   0.321   7.910   9.535  0.1111 -0.1838  0.0695
  421POPI   C3A 6565   0.169   7.483   9.750 -0.3971 -0.1934 -0.0761
  421POPI   C4A 6566   0.083   7.056   9.565 -0.1394  0.0545  0.0243
  421POPI   C1B 6567   1.131   8.185   9.567  0.1573  0.2666  0.1980
  421POPI   C2B 6568   0.938   8.170   9.206  0.3410 -0.0754  0.0104
  421POPI   C3B 6569   0.730   8.386   8.859  0.1257  0.2929  0.2175
  421POPI   C4B 6570   0.505   8.522   8.525  0.0895 -0.3622  0.0541
  422POPI    C1 6571   2.244  14.606  10.475  0.3013  0.0445  0.2830
  422POPI    C2 6572   1.942  14.850  10.377  0.1454 -0.2054  0.1303
  422POPI    C3 6573   2.045  14.803  10.761 -0.0246 -0.1359  0.1853
  422POPI   PO4 6574   2.274  14.431  10.258  0.1213 -0.0921 -0.1070
  422POPI   GL1 6575   2.261  14.513   9.773  0.2347 -0.2667  0.1768
  422POPI   GL2 6576   2.000  14.784   9.861 -0.1374 -0.0843 -0.1673
  422POPI   C1A 6577   2.167  14.553   9.353  0.1214 -0.1680  0.1666
  422POPI   D2A 6578   2.306  14.443   9.013 -0.2931 -0.0893  0.0453
  422POPI   C3A 6579   2.513  14.671   8.662  0.0110  0.0172  0.1851
  422POPI   C4A 6580   2.548  14.667   8.215  0.0436  0.0891 -0.2599
  422POPI   C1B 6581   1.673  14.871   9.604 -0.1774 -0.0285 -0.0141
  422POPI   C2B 6582   1.396  14.999   9.215 -0.2165  0.0014 -0.1444
  422POPI   C3B 6583   1.503  15.041   8.781 -0.0610 -0.1216  0.0576
  422POPI   C4B 6584   1.760  15.133   8.483 -0.0477  0.1329 -0.0048
  423DPPI    C1 6585  12.409   2.604  10.034  0.0878 -0.0336 -0.0580
  423DPPI    C2 6586  12.347   2.780  10.387 -0.0730 -0.1011 -0.0514
  423DPPI    C3 6587  12.038   2.630  10.182  0.0114 -0.0058 -0.2509
  423DPPI   PO4 6588  12.557   2.450   9.982  0.2008  0.2658 -0.0975
  423DPPI   GL1 6589  12.663   2.321   9.594  0.0624  0.2839  0.0024
  423DPPI   GL2 6590  12.950   2.142   9.629 -0.0732  0.5397 -0.0257
  423DPPI   C1A 6591  12.608   2.638   9.305 -0.2042 -0.0456  0.0605
  423DPPI   C2A 6592  12.380   2.800   8.965 -0.1698 -0.0120  0.1443
  423DPPI   C3A 6593  12.210   2.696   8.595 -0.0680  0.4405  0.2918
  423DPPI   C4A 6594  12.048   2.410   8.197  0.1709 -0.1313 -0.0589
  423DPPI   C1B 6595  13.051   2.156   9.155  0.1287  0.0556  0.3346
  423DPPI   C2B 6596  13.310   2.087   8.778 -0.1153 -0.1480 -0.2824
  423DPPI   C3B 6597  13.576   2.154   8.371  0.1575  0.2721  0.0397
  423DPPI   C4B 6598  13.726   2.115   7.916 -0.0206  0.4850 -0.1918
  424DPPI    C1 6599  18.011   5.402  10.264 -0.2117  0.0730  0.2096
  424DPPI    C2 6600  17.698   5.580  10.089 -0.1880 -0.0554  0.0349
  424DPPI    C3 6601  17.685   5.491  10.478 -0.3237  0.0425  0.0534
  424DPPI   PO4 6602  18.204   5.528  10.090 -0.0556 -0.0201  0.0949
  424DPPI   GL1 6603  18.549   5.346   9.831  0.0883  0.3314  0.0178
  424DPPI   GL2 6604  18.570   5.595   9.606 -0.0170 -0.2312  0.3018
  424DPPI   C1A 6605  18.775   5.091   9.493  0.2667 -0.3109 -0.0517
  424DPPI   C2A 6606  18.774   5.130   9.052  0.2143  0.0170  0.3397
  424DPPI   C3A 6607  18.695   5.032   8.597 -0.0613 -0.0561  0.1377
  424DPPI   C4A 6608  18.712   5.120   8.204 -0.0346  0.1088 -0.1178
  424DPPI   C1B 6609  18.551   5.540   9.174  0.0101 -0.2700 -0.2841
  424DPPI   C2B 6610  18.597   5.504   8.764 -0.2262 -0.1903  0.1823
  424DPPI   C3B 6611  18.452   5.492   8.412 -0.1799 -0.0589 -0.2242
  424DPPI   C4B 6612  18.381   5.379   7.886 -0.1475  0.0888  0.0468
  425DPPI    C1 6613  10.300  12.289  10.675 -0.2780 -0.0293  0.3560
  425DPPI    C2 6614  10.146  11.968  10.493 -0.1753  0.0941  0.0451
  425DPPI    C3 6615  10.462  11.928  10.734 -0.1675 -0.0390  0.0140
  425DPPI   PO4 6616  10.253  12.444  10.460  0.2518  0.1380  0.3406
  425DPPI   GL1 6617   9.927  12.606  10.042  0.1130 -0.0511 -0.2899
  425DPPI   GL2 6618   9.545  12.660  10.037 -0.0467  0.3662  0.2093
  425DPPI   C1A 6619   9.959  12.363   9.631  0.0659 -0.0742 -0.1489
  425DPPI   C2A 6620   9.808  12.238   9.217 -0.3281 -0.0827  0.2332
  425DPPI   C3A 6621   9.886  12.232   8.777  0.0411  0.0427 -0.1344
  425DPPI   C4A 6622  10.015  12.337   8.333 -0.0102  0.0671  0.0019
  425DPPI   C1B 6623   9.594  12.767   9.605  0.2145  0.1099  0.0338
  425DPPI   C2B 6624   9.550  12.744   9.167  0.2024 -0.1080 -0.0146
  425DPPI   C3B 6625   9.525  12.698   8.731  0.0922 -0.2702 -0.1599
  425DPPI   C4B 6626   9.569  12.402   8.437 -0.0392  0.2584  0.1531
  426DPPI    C1 6627   8.210  15.591  10.194 -0.0170 -0.0064  0.1128
  426DPPI    C2 6628   8.137  15.530  10.583 -0.0077 -0.1594  0.0911
  426DPPI    C3 6629   8.485  15.691  10.467 -0.1427  0.1969  0.1677
  426DPPI   PO4 6630   8.024  15.794  10.105 -0.1807 -0.1468  0.0351
  426DPPI   GL1 6631   7.941  16.066   9.639  0.2941  0.1254 -0.1056
  426DPPI   GL2 6632   8.156  16.142   9.624  0.0547  0.1399 -0.1003
  426DPPI   C1A 6633   7.621  16.271   9.461 -0.0721 -0.0286 -0.1811
  426DPPI   C2A 6634   7.482  16.344   9.086 -0.2590 -0.1392  0.1866
  426DPPI   C3A 6635   7.801  16.419   8.719 -0.0547 -0.0648  0.0100
  426DPPI   C4A 6636   8.014  16.409   8.277  0.0919  0.2230  0.1830
  426DPPI   C1B 6637   8.500  15.932   9.439 -0.2521  0.1759 -0.2525
  426DPPI   C2B 6638   8.480  15.880   8.953  0.2028 -0.0927  0.0775
  426DPPI   C3B 6639   8.638  15.858   8.590  0.0540  0.1277  0.0856
  426DPPI   C4B 6640   8.482  16.173   8.348  0.0379  0.2110 -0.1160
  427DPPI    C1 6641  11.874  12.022  10.099 -0.2079 -0.3172  0.1649
  427DPPI    C2 6642  11.681  12.340   9.952  0.0518 -0.2654 -0.0733
  427DPPI    C3 6643  11.573  12.186  10.305  0.1963  0.3511  0.2529
  427DPPI   PO4 6644  11.907  11.867   9.904 -0.1007  0.1496  0.1548
  427DPPI   GL1 6645  11.919  11.875   9.520  0.0837  0.0370  0.0658
  427DPPI   GL2 6646  11.805  12.192   9.461  0.2137  0.0196 -0.0042
  427DPPI   C1A 6647  12.137  11.775   9.106 -0.0005 -0.1963 -0.0445
  427DPPI   C2A 6648  11.895  11.390   8.774 -0.4706  0.1366 -0.0001
  427DPPI   C3A 6649  11.651  11.494   8.477  0.1558  0.0243 -0.1504
  427DPPI   C4A 6650  11.692  11.342   8.075 -0.0762 -0.0749 -0.2377
  427DPPI   C1B 6651  11.655  12.086   9.136  0.0466 -0.0643 -0.1788
  427DPPI   C2B 6652  11.754  12.067   8.848  0.0647  0.0488  0.1064
  427DPPI   C3B 6653  12.029  11.886   8.549 -0.0456  0.0188  0.2185
  427DPPI   C4B 6654  12.060  11.714   8.109  0.1088 -0.0306  0.1106
  428DPPI    C1 6655   2.028   8.465  10.763 -0.2833 -0.0321 -0.2080
  428DPPI    C2 6656   2.138   8.176  11.017 -0.1103  0.1005 -0.1301
  428DPPI    C3 6657   1.750   8.245  10.948 -0.1534 -0.1082 -0.1014
  428DPPI   PO4 6658   2.161   8.413  10.531 -0.0470  0.1325  0.2530
  428DPPI   GL1 6659   2.026   8.545  10.057  0.0232  0.0766  0.0946
  428DPPI   GL2 6660   1.833   8.339  10.111 -0.1403 -0.0216 -0.0001
  428DPPI   C1A 6661   2.111   8.654   9.562  0.1645 -0.2572 -0.2256
  428DPPI   C2A 6662   2.071   8.594   9.173  0.0286 -0.2039  0.0432
  428DPPI   C3A 6663   2.056   8.531   8.785 -0.0239 -0.1827  0.2700
  428DPPI   C4A 6664   2.097   8.527   8.336 -0.0859 -0.2616 -0.0144
  428DPPI   C1B 6665   1.659   8.337   9.661 -0.0208 -0.2542  0.0687
  428DPPI   C2B 6666   1.563   8.451   9.226 -0.3310  0.0310 -0.1147
  428DPPI   C3B 6667   1.283   8.282   8.792 -0.2352 -0.0496  0.0593
  428DPPI   C4B 6668   1.330   8.397   8.302  0.2206  0.1073  0.1132
  429DPPI    C1 6669   5.870   9.608  10.089  0.1545  0.0444  0.0672
  429DPPI    C2 6670   5.479   9.654  10.024  0.2182  0.3906 -0.0932
  429DPPI    C3 6671   5.617   9.310  10.175 -0.1609  0.3145  0.0934
  429DPPI   PO4 6672   5.947   9.672   9.801 -0.1066 -0.2238 -0.1272
  429DPPI   GL1 6673   5.899   9.762   9.341 -0.0696 -0.1903 -0.2806
  429DPPI   GL2 6674   5.579   9.887   9.430 -0.0578  0.0613 -0.1206
  429DPPI   C1A 6675   5.878   9.771   8.929 -0.1295 -0.1359  0.0946
  429DPPI   C2A 6676   5.978   9.859   8.575  0.0262  0.3065  0.1055
  429DPPI   C3A 6677   6.159  10.203   8.287 -0.0626  0.1628  0.1461
  429DPPI   C4A 6678   6.230  10.563   8.048 -0.1559 -0.0744  0.1909
  429DPPI   C1B 6679   5.587  10.188   9.049 -0.4190 -0.1285 -0.0109
  429DPPI   C2B 6680   5.630  10.280   8.582  0.0996  0.1265 -0.2028
  429DPPI   C3B 6681   5.726  10.449   8.319  0.0110  0.0145  0.0197
  429DPPI   C4B 6682   5.740  10.672   7.950  0.1287 -0.0207  0.1016
  430DPPI    C1 6683  15.653  11.631  10.412  0.1176  0.1248 -0.2949
  430DPPI    C2 6684  15.345  11.542  10.174 -0.0101  0.0093 -0.0899
  430DPPI    C3 6685  15.674  11.316  10.167 -0.0021  0.0229 -0.1757
  430DPPI   PO4 6686  15.797  11.806  10.312 -0.1965  0.1197  0.3351
  430DPPI   GL1 6687  15.800  11.972   9.904 -0.0597 -0.1605  0.0398
  430DPPI   GL2 6688  15.646  11.787   9.842  0.1329  0.1591  0.1423
  430DPPI   C1A 6689  15.916  11.853   9.401 -0.0437  0.2156 -0.0154
  430DPPI   C2A 6690  15.974  11.793   8.924 -0.1863 -0.0789 -0.0070
  430DPPI   C3A 6691  16.058  11.646   8.512 -0.2320  0.2284 -0.0917
  430DPPI   C4A 6692  16.200  11.657   8.059  0.5286  0.0898 -0.0915
  430DPPI   C1B 6693  15.389  11.734   9.443  0.0685 -0.0507  0.1949
  430DPPI   C2B 6694  15.118  11.726   8.995  0.4315 -0.2173  0.1605
  430DPPI   C3B 6695  14.867  11.348   8.921  0.0166  0.0857  0.2151
  430DPPI   C4B 6696  14.624  11.241   8.598 -0.0194 -0.2413  0.3968
  431DPPI    C1 6697   0.451   6.079  10.792  0.3284 -0.0432  0.1233
  431DPPI    C2 6698   0.389   5.700  10.679  0.1693  0.1042 -0.3019
  431DPPI    C3 6699   0.127   5.883  10.920  0.2640 -0.0636 -0.0682
  431DPPI   PO4 6700   0.477   6.133  10.482  0.0894 -0.1433  0.1777
  431DPPI   GL1 6701   0.694   6.052  10.000  0.2435 -0.3109  0.1061
  431DPPI   GL2 6702   0.440   6.139   9.722  0.2867 -0.3897 -0.0372
  431DPPI   C1A 6703   0.895   6.129   9.458  0.1550 -0.2589  0.0938
  431DPPI   C2A 6704   0.947   6.078   8.995  0.1070  0.2326  0.3627
  431DPPI   C3A 6705   1.039   5.850   8.620  0.1369 -0.0274 -0.0281
  431DPPI   C4A 6706   1.096   5.812   8.234 -0.2378 -0.2978  0.0396
  431DPPI   C1B 6707   0.464   6.690   9.764  0.1225 -0.0857 -0.1424
  431DPPI   C2B 6708   0.560   7.034   9.737 -0.2224  0.3384  0.2879
  431DPPI   C3B 6709   0.573   7.452   9.462 -0.0361 -0.0249  0.1570
  431DPPI   C4B 6710   0.290   7.595   9.169  0.2221  0.2300  0.4383
  432DPPI    C1 6711   1.737  14.058  11.202 -0.1468 -0.0671 -0.1222
  432DPPI    C2 6712   2.121  14.128  11.287 -0.1917  0.1140 -0.0616
  432DPPI    C3 6713   1.957  13.774  11.378 -0.0899  0.1039  0.0873
  432DPPI   PO4 6714   1.583  14.068  10.852 -0.1345  0.0182 -0.1100
  432DPPI   GL1 6715   1.613  14.195  10.316 -0.3744  0.1991 -0.0311
  432DPPI   GL2 6716   1.599  13.846  10.192 -0.0023 -0.2613 -0.2488
  432DPPI   C1A 6717   1.189  14.231  10.168  0.1085  0.0119 -0.2652
  432DPPI   C2A 6718   1.090  14.191   9.711 -0.3029  0.2326 -0.0990
  432DPPI   C3A 6719   1.066  14.117   9.209 -0.3031  0.0839 -0.0478
  432DPPI   C4A 6720   0.842  14.027   8.770  0.2218  0.1992 -0.0043
  432DPPI   C1B 6721   1.579  13.954   9.826  0.0533  0.0700  0.1114
  432DPPI   C2B 6722   1.507  13.951   9.478 -0.0836  0.3408 -0.1117
  432DPPI   C3B 6723   1.544  14.063   9.096 -0.2656 -0.1515 -0.1137
  432DPPI   C4B 6724   1.360  14.084   8.681 -0.3077  0.1310  0.1167
  433DPPI    C1 6725   6.398   7.086  10.391 -0.0831  0.0877  0.2150
  433DPPI    C2 6726   6.471   7.389  10.642  0.1102  0.4479 -0.2600
  433DPPI    C3 6727   6.773   7.167  10.505 -0.0404 -0.0389  0.1650
  433DPPI   PO4 6728   6.257   7.149  10.148 -0.4167  0.1872  0.1779
  433DPPI   GL1 6729   6.360   7.041   9.706  0.1447 -0.2352 -0.0219
  433DPPI   GL2 6730   6.419   7.337   9.706 -0.0554  0.0948 -0.0765
  433DPPI   C1A 6731   6.403   7.048   9.260  0.2141 -0.0411  0.0701
  433DPPI   C2A 6732   6.746   7.103   8.823  0.0679  0.3107  0.1348
  433DPPI   C3A 6733   6.984   7.309   8.595 -0.3047 -0.1834 -0.2682
  433DPPI   C4A 6734   6.944   7.732   8.526  0.0157  0.0069  0.2287
  433DPPI   C1B 6735   6.753   7.414   9.358  0.0738 -0.2733 -0.2963
  433DPPI   C2B 6736   6.870   7.586   9.046 -0.0700  0.0093 -0.0653
  433DPPI   C3B 6737   7.043   7.954   8.998 -0.3515  0.3723  0.0564
  433DPPI   C4B 6738   7.292   8.281   8.900 -0.2444  0.0464 -0.1413
  434DPPI    C1 6739  11.906   7.787  10.410  0.0284 -0.1516  0.0657
  434DPPI    C2 6740  11.771   7.850  10.782 -0.1299 -0.0677 -0.0053
  434DPPI    C3 6741  11.900   8.158  10.561  0.2723 -0.1583  0.0959
  434DPPI   PO4 6742  11.782   7.575  10.344  0.1143  0.0132  0.0713
  434DPPI   GL1 6743  11.666   7.593  10.013  0.5479  0.1476 -0.2270
  434DPPI   GL2 6744  11.907   7.725   9.653  0.2053  0.1177 -0.0696
  434DPPI   C1A 6745  11.618   7.289   9.726  0.2695 -0.1119  0.1059
  434DPPI   C2A 6746  11.533   7.119   9.309  0.1450 -0.0792  0.0062
  434DPPI   C3A 6747  11.082   7.239   9.168  0.2701  0.1905  0.2654
  434DPPI   C4A 6748  10.850   6.939   9.061  0.0603  0.2083  0.0468
  434DPPI   C1B 6749  12.036   7.726   9.211  0.1789  0.3912 -0.2953
  434DPPI   C2B 6750  11.985   7.733   8.767  0.0151 -0.2373 -0.0858
  434DPPI   C3B 6751  12.145   7.600   8.372 -0.2005  0.0537 -0.2029
  434DPPI   C4B 6752  12.127   7.228   8.274 -0.6385  0.0549  0.1472
  435DPPI    C1 6753   0.725  11.556  10.440 -0.0294 -0.0235 -0.1304
  435DPPI    C2 6754   0.442  11.785  10.607  0.2257  0.0945  0.1498
  435DPPI    C3 6755   0.560  11.448  10.788  0.1622 -0.0317 -0.0407
  435DPPI   PO4 6756   0.687  11.635  10.195 -0.0446  0.2958  0.4064
  435DPPI   GL1 6757   0.702  11.775   9.892  0.0872  0.0029 -0.0370
  435DPPI   GL2 6758   0.425  11.889   9.790  0.2250  0.1986  0.1588
  435DPPI   C1A 6759   0.956  11.785   9.596 -0.0783 -0.0146 -0.0398
  435DPPI   C2A 6760   1.125  11.657   9.320  0.0074 -0.0726  0.1311
  435DPPI   C3A 6761   1.282  11.518   8.942 -0.2741  0.0033 -0.0376
  435DPPI   C4A 6762   1.422  11.638   8.557 -0.2407 -0.0397  0.1410
  435DPPI   C1B 6763   0.405  11.574   9.442 -0.1698  0.1797  0.0126
  435DPPI   C2B 6764   0.734  11.649   9.040 -0.0204  0.2539  0.0776
  435DPPI   C3B 6765   0.947  11.439   8.603  0.0626  0.0067 -0.1648
  435DPPI   C4B 6766   0.875  11.057   8.458 -0.2005  0.0395 -0.0765
  436DPPI    C1 6767   0.265  15.205  10.726  0.1155  0.0595 -0.1284
  436DPPI    C2 6768   0.621  15.301  10.881  0.2786 -0.1364 -0.3734
  436DPPI    C3 6769   0.479  14.929  10.921 -0.0072 -0.0004 -0.0776
  436DPPI   PO4 6770   0.235  15.330  10.459  0.1751 -0.0549  0.2335
  436DPPI   GL1 6771   0.243  15.320  10.102  0.4485 -0.0456  0.4469
  436DPPI   GL2 6772   0.414  15.017   9.934 -0.1006 -0.0367 -0.0659
  436DPPI   C1A 6773   0.327  15.522   9.684  0.0585  0.0280 -0.1252
  436DPPI   C2A 6774   0.598  15.559   9.280  0.2709 -0.0515  0.2057
  436DPPI   C3A 6775   0.637  15.310   8.893  0.1829  0.2082  0.1717
  436DPPI   C4A 6776   0.477  15.394   8.533  0.0162  0.4427  0.0311
  436DPPI   C1B 6777   0.597  15.129   9.530  0.1539  0.5010  0.2185
  436DPPI   C2B 6778   0.871  14.970   9.210  0.1117  0.2378  0.0598
  436DPPI   C3B 6779   1.019  14.957   8.830  0.2506  0.0612  0.0081
  436DPPI   C4B 6780   0.859  15.023   8.479 -0.1527  0.0118 -0.0134
  437DPPI    C1 6781   8.451   0.942  10.675 -0.0297  0.0832  0.2510
  437DPPI    C2 6782   8.769   1.178  10.614 -0.1611  0.1703 -0.1244
  437DPPI    C3 6783   8.414   1.340  10.702 -0.1436  0.0821  0.1184
  437DPPI   PO4 6784   8.488   0.710  10.476 -0.2060 -0.1801  0.0363
  437DPPI   GL1 6785   8.246   0.403  10.195  0.1486 -0.1649 -0.1038
  437DPPI   GL2 6786   8.280   0.781  10.013  0.1786 -0.3165  0.1589
  437DPPI   C1A 6787   8.251   0.213   9.766  0.1632 -0.0849  0.1420
  437DPPI   C2A 6788   8.240   0.233   9.386  0.0363 -0.2311  0.1051
  437DPPI   C3A 6789   8.055   0.278   8.971 -0.2149 -0.2501 -0.0653
  437DPPI   C4A 6790   7.886   0.279   8.656 -0.1793 -0.2255  0.0318
  437DPPI   C1B 6791   7.888   0.622   9.853 -0.1175 -0.2062  0.3315
  437DPPI   C2B 6792   7.834   0.497   9.418 -0.2337 -0.1924 -0.1003
  437DPPI   C3B 6793   7.646   0.561   9.024 -0.1445  0.2039  0.1556
  437DPPI   C4B 6794   7.549   0.597   8.607 -0.0411 -0.2335  0.1436
  438DPPI    C1 6795   4.661   3.584  10.196  0.0257  0.0779 -0.0949
  438DPPI    C2 6796   4.886   3.493   9.879  0.0055  0.1984 -0.1445
  438DPPI    C3 6797   4.965   3.327  10.234  0.1362  0.1957 -0.1741
  438DPPI   PO4 6798   4.325   3.544   9.985 -0.1368  0.0097  0.1813
  438DPPI   GL1 6799   4.281   3.638   9.589 -0.3889 -0.0803  0.0095
  438DPPI   GL2 6800   4.078   3.952   9.700 -0.0287 -0.0902  0.2729
  438DPPI   C1A 6801   4.412   3.703   9.103  0.2301  0.2191  0.2123
  438DPPI   C2A 6802   4.333   3.587   8.745  0.1552 -0.1255  0.0472
  438DPPI   C3A 6803   4.216   3.559   8.320  0.0388 -0.1980 -0.0244
  438DPPI   C4A 6804   3.857   3.582   8.017  0.1793 -0.0073 -0.0799
  438DPPI   C1B 6805   3.954   3.845   9.236 -0.1115 -0.2591  0.2445
  438DPPI   C2B 6806   3.842   3.521   8.930  0.0528 -0.0249  0.3941
  438DPPI   C3B 6807   3.857   3.414   8.568  0.0682  0.3446  0.2076
  438DPPI   C4B 6808   3.676   3.207   8.354  0.0235 -0.1451 -0.0340
  439DPPI    C1 6809  12.358   7.680  10.212  0.1246  0.0013 -0.3011
  439DPPI    C2 6810  12.280   8.071  10.242 -0.1422 -0.0635 -0.1121
  439DPPI    C3 6811  12.406   7.867  10.563 -0.1393 -0.1615 -0.1751
  439DPPI   PO4 6812  12.197   7.590  10.028 -0.0116 -0.1678  0.0204
  439DPPI   GL1 6813  12.382   7.527   9.675 -0.1960  0.2386 -0.1092
  439DPPI   GL2 6814  12.190   7.266   9.677  0.0104  0.1466 -0.2358
  439DPPI   C1A 6815  12.487   7.299   9.261 -0.0314 -0.0012 -0.0438
  439DPPI   C2A 6816  12.833   7.177   8.999  0.2431  0.1085 -0.1632
  439DPPI   C3A 6817  12.688   6.930   8.638 -0.2775 -0.0710  0.0789
  439DPPI   C4A 6818  12.606   6.760   8.364 -0.0029  0.0842  0.0164
  439DPPI   C1B 6819  12.007   7.126   9.373 -0.2231 -0.0441  0.4664
  439DPPI   C2B 6820  12.079   7.273   8.949  0.0553  0.1213 -0.2302
  439DPPI   C3B 6821  12.470   7.368   8.702  0.1035 -0.0097 -0.1537
  439DPPI   C4B 6822  12.641   7.300   8.282  0.1555 -0.3009 -0.2937
  440DPPI    C1 6823   9.186   9.230  10.284 -0.1385  0.1055  0.0218
  440DPPI    C2 6824   9.467   9.473  10.431  0.0308  0.0061 -0.1329
  440DPPI    C3 6825   9.131   9.409  10.637  0.1395  0.0926  0.0743
  440DPPI   PO4 6826   9.047   9.377  10.021 -0.1602  0.1971 -0.0098
  440DPPI   GL1 6827   8.823   9.300   9.627 -0.0212  0.0764 -0.0359
  440DPPI   GL2 6828   8.576   9.198   9.586 -0.0648 -0.1088 -0.1855
  440DPPI   C1A 6829   8.969   9.475   9.240  0.0448 -0.1039  0.0204
  440DPPI   C2A 6830   9.091   9.425   8.823 -0.0547 -0.0249 -0.1530
  440DPPI   C3A 6831   8.918   9.506   8.504  0.1572  0.1039 -0.0499
  440DPPI   C4A 6832   8.979   9.395   8.100 -0.2169  0.0267  0.2731
  440DPPI   C1B 6833   8.619   9.085   9.209 -0.1470  0.2848  0.1152
  440DPPI   C2B 6834   8.697   9.142   8.776 -0.1022 -0.0336 -0.1172
  440DPPI   C3B 6835   8.682   9.061   8.341  0.1410  0.5408 -0.1390
  440DPPI   C4B 6836   8.451   9.112   7.882  0.1970  0.0334  0.0985
  441DPPI    C1 6837  16.595   2.230  10.793  0.1631  0.0107  0.0447
  441DPPI    C2 6838  16.935   2.417  10.695  0.2454 -0.2495 -0.1771
  441DPPI    C3 6839  16.947   2.073  10.899  0.0930  0.0026  0.2719
  441DPPI   PO4 6840  16.464   2.163  10.537  0.0643 -0.1480 -0.0365
  441DPPI   GL1 6841  16.382   2.308  10.176 -0.0470  0.0361  0.1487
  441DPPI   GL2 6842  16.300   2.584  10.065 -0.2359 -0.0323  0.0970
  441DPPI   C1A 6843  16.203   2.120   9.857  0.3644 -0.1267 -0.1301
  441DPPI   C2A 6844  16.334   2.015   9.463 -0.0493  0.1249 -0.3283
  441DPPI   C3A 6845  16.282   2.075   9.065  0.2078 -0.0514 -0.3388
  441DPPI   C4A 6846  16.400   2.247   8.662  0.0555  0.2782  0.1041
  441DPPI   C1B 6847  16.426   2.465   9.624  0.1477  0.1607  0.0292
  441DPPI   C2B 6848  16.486   2.489   9.199  0.0952 -0.0314 -0.2899
  441DPPI   C3B 6849  16.589   2.655   8.777  0.0783 -0.2041 -0.2131
  441DPPI   C4B 6850  16.332   2.809   8.499 -0.0014 -0.1945  0.0293
  442DPPI    C1 6851  11.902   0.814  10.403 -0.1076  0.0737 -0.0038
  442DPPI    C2 6852  12.281   0.939  10.437 -0.0729  0.0302 -0.2134
  442DPPI    C3 6853  12.015   1.023  10.724  0.0807  0.1133 -0.0944
  442DPPI   PO4 6854  11.856   0.869  10.157 -0.1544  0.1485  0.1357
  442DPPI   GL1 6855  11.801   0.952   9.701 -0.1185  0.0815  0.2168
  442DPPI   GL2 6856  11.902   1.377   9.568  0.2452 -0.1645 -0.1948
  442DPPI   C1A 6857  11.664   0.726   9.388  0.1016  0.0240 -0.0326
  442DPPI   C2A 6858  11.636   0.704   9.040 -0.1126 -0.0011  0.2603
  442DPPI   C3A 6859  11.641   0.612   8.626  0.0458  0.2130 -0.2230
  442DPPI   C4A 6860  11.666   0.465   8.217 -0.1817 -0.0993  0.1320
  442DPPI   C1B 6861  11.969   1.110   9.163 -0.0182 -0.0154 -0.0301
  442DPPI   C2B 6862  12.017   0.996   8.799  0.1343  0.0048 -0.0226
  442DPPI   C3B 6863  12.109   0.662   8.389 -0.1736  0.2229 -0.5396
  442DPPI   C4B 6864  12.136   0.230   8.047 -0.0734 -0.1557  0.1124
  443DPPI    C1 6865   1.025  12.891  10.251 -0.0325  0.0304  0.2197
  443DPPI    C2 6866   1.420  12.830  10.230 -0.0357  0.0202  0.1879
  443DPPI    C3 6867   1.173  12.521  10.283 -0.0661 -0.0215 -0.1711
  443DPPI   PO4 6868   1.012  13.032  10.035  0.2326  0.1668  0.2565
  443DPPI   GL1 6869   0.736  12.981   9.667 -0.3152 -0.1376 -0.0444
  443DPPI   GL2 6870   0.430  13.021   9.646 -0.3630 -0.2760 -0.1837
  443DPPI   C1A 6871   0.988  13.186   9.400 -0.2684  0.1520  0.0028
  443DPPI   C2A 6872   1.015  13.190   8.973 -0.0206 -0.4543  0.2257
  443DPPI   C3A 6873   0.938  13.054   8.565 -0.0994  0.1947 -0.3721
  443DPPI   C4A 6874   0.965  12.909   8.083 -0.1055 -0.0606 -0.0960
  443DPPI   C1B 6875   0.545  13.094   9.170  0.1122  0.0994  0.0827
  443DPPI   C2B 6876   0.495  13.121   8.779 -0.1194 -0.0383  0.1178
  443DPPI   C3B 6877   0.126  13.035   8.460  0.1228 -0.0966 -0.0872
  443DPPI   C4B 6878  -0.023  12.967   8.019 -0.1679 -0.0563  0.0416
  444DPPI    C1 6879   8.335   8.962  10.306  0.1345 -0.0069  0.0602
  444DPPI    C2 6880   8.716   8.909  10.196  0.1003 -0.0630 -0.0321
  444DPPI    C3 6881   8.589   9.271  10.308  0.1967 -0.0577  0.0627
  444DPPI   PO4 6882   8.168   8.819  10.112 -0.2686  0.3965 -0.1417
  444DPPI   GL1 6883   8.080   8.898   9.713  0.1059 -0.2706  0.2903
  444DPPI   GL2 6884   8.161   8.531   9.636 -0.1064  0.0781 -0.0837
  444DPPI   C1A 6885   8.157   9.148   9.369  0.5441  0.0499 -0.0391
  444DPPI   C2A 6886   8.166   9.157   8.915  0.0383  0.2397 -0.4704
  444DPPI   C3A 6887   8.208   9.252   8.544 -0.2151 -0.0852  0.1533
  444DPPI   C4A 6888   8.453   9.480   8.202 -0.1555  0.1895  0.0366
  444DPPI   C1B 6889   8.260   8.696   9.178  0.0200  0.0161  0.0318
  444DPPI   C2B 6890   8.428   8.748   8.748 -0.1468  0.2043 -0.1079
  444DPPI   C3B 6891   8.211   8.827   8.232  0.1079 -0.0885 -0.2159
  444DPPI   C4B 6892   8.439   8.549   7.851 -0.1797 -0.4370  0.2492
  445DPPI    C1 6893  10.877  15.819  10.216 -0.0716 -0.0266  0.0414
  445DPPI    C2 6894  10.582  15.552  10.256 -0.2464  0.1566 -0.0065
  445DPPI    C3 6895  10.586  15.881  10.484  0.0250  0.0645  0.1262
  445DPPI   PO4 6896  10.971  15.755  10.002 -0.0863 -0.0695 -0.2069
  445DPPI   GL1 6897  11.051  15.939   9.644  0.0443  0.2658 -0.2754
  445DPPI   GL2 6898  11.398  15.966   9.576  0.3553  0.1617 -0.0797
  445DPPI   C1A 6899  11.101  15.933   9.179  0.0338 -0.0697 -0.0443
  445DPPI   C2A 6900  11.195  15.749   8.799 -0.0128 -0.0494  0.3661
  445DPPI   C3A 6901  11.431  15.379   8.704 -0.1097  0.0108  0.2218
  445DPPI   C4A 6902  11.584  15.031   8.938 -0.1035 -0.3182  0.3494
  445DPPI   C1B 6903  11.452  16.307   9.403  0.1679  0.0868  0.0551
  445DPPI   C2B 6904  11.448  16.262   8.995  0.2742 -0.0452  0.0047
  445DPPI   C3B 6905  11.419  16.139   8.618  0.0445  0.1684 -0.0656
  445DPPI   C4B 6906  11.283  16.156   8.125 -0.0667 -0.1658  0.2306
  446DPPI    C1 6907  17.512   2.992  10.659  0.0617  0.0335 -0.0057
  446DPPI    C2 6908  17.712   2.815  10.956 -0.0292 -0.0144  0.0275
  446DPPI    C3 6909  17.324   2.737  10.903 -0.0717  0.1797  0.0459
  446DPPI   PO4 6910  17.644   3.026  10.477  0.0656  0.2772  0.0387
  446DPPI   GL1 6911  17.793   2.820  10.135 -0.0754  0.0679 -0.0014
  446DPPI   GL2 6912  18.051   2.789  10.002 -0.0266  0.2738  0.2766
  446DPPI   C1A 6913  17.563   2.719   9.697 -0.0501 -0.0761  0.3298
  446DPPI   C2A 6914  17.565   2.767   9.213  0.1381  0.0505  0.1891
  446DPPI   C3A 6915  17.541   2.700   8.803 -0.0869 -0.1617 -0.0938
  446DPPI   C4A 6916  17.553   2.756   8.378 -0.0821 -0.2643 -0.1070
  446DPPI   C1B 6917  18.017   2.836   9.580  0.1430  0.0657 -0.0082
  446DPPI   C2B 6918  18.103   2.771   9.110  0.3601  0.2470 -0.3174
  446DPPI   C3B 6919  17.993   2.775   8.746  0.0697 -0.1147  0.0991
  446DPPI   C4B 6920  18.071   2.648   8.385 -0.1068  0.0650 -0.0489
  447DPPI    C1 6921   2.968   8.527  10.294  0.1153  0.2785 -0.0317
  447DPPI    C2 6922   2.589   8.625  10.373  0.0602  0.0964 -0.0651
  447DPPI    C3 6923   2.873   8.689  10.647 -0.0352  0.0034  0.0561
  447DPPI   PO4 6924   2.957   8.248  10.167 -0.1946 -0.1245  0.0166
  447DPPI   GL1 6925   3.022   8.018   9.734  0.2502  0.0217 -0.1679
  447DPPI   GL2 6926   2.713   8.072   9.684  0.1276  0.0475  0.3449
  447DPPI   C1A 6927   2.968   7.958   9.262 -0.0184 -0.0302 -0.0431
  447DPPI   C2A 6928   2.924   8.103   8.835 -0.0818  0.1215 -0.1665
  447DPPI   C3A 6929   2.986   8.139   8.420  0.1762  0.0485 -0.1117
  447DPPI   C4A 6930   2.926   8.358   7.960  0.1451 -0.1840  0.0775
  447DPPI   C1B 6931   2.445   8.215   9.440 -0.0457  0.0336  0.2681
  447DPPI   C2B 6932   2.508   8.329   9.028  0.0360  0.1417 -0.2647
  447DPPI   C3B 6933   2.504   8.300   8.594  0.2988  0.2101  0.0090
  447DPPI   C4B 6934   2.532   8.216   8.194 -0.2326  0.1412 -0.0459
  448DPPI    C1 6935   7.196   6.357  10.335 -0.0215  0.0802  0.2014
  448DPPI    C2 6936   7.579   6.307  10.438 -0.0016  0.1066  0.1409
  448DPPI    C3 6937   7.309   6.025  10.527  0.0579  0.0222  0.0554
  448DPPI   PO4 6938   7.211   6.463  10.030  0.1691  0.1557 -0.2651
  448DPPI   GL1 6939   7.099   6.373   9.593 -0.0080  0.0023 -0.1472
  448DPPI   GL2 6940   7.289   6.061   9.517  0.2395  0.0315 -0.0436
  448DPPI   C1A 6941   6.961   6.368   9.249  0.4507 -0.2045 -0.1275
  448DPPI   C2A 6942   6.853   6.113   8.909 -0.0233  0.3377 -0.0550
  448DPPI   C3A 6943   6.681   5.754   8.580 -0.1709 -0.0517  0.1960
  448DPPI   C4A 6944   6.814   5.590   8.241 -0.0087 -0.0319 -0.1026
  448DPPI   C1B 6945   7.303   5.945   9.145  0.3888  0.4565  0.0047
  448DPPI   C2B 6946   7.120   5.658   8.890  0.3422  0.0580 -0.0431
  448DPPI   C3B 6947   7.204   5.406   8.563  0.2599  0.0279 -0.2598
  448DPPI   C4B 6948   7.287   5.398   8.147 -0.0198  0.0669  0.0941
  449DPPI    C1 6949   2.180  15.297  10.744 -0.2247  0.2372  0.0285
  449DPPI    C2 6950   2.264  15.629  10.950 -0.0704  0.1545  0.1003
  449DPPI    C3 6951   1.885  15.543  10.857 -0.1012  0.4085 -0.0180
  449DPPI   PO4 6952   2.265  15.255  10.499 -0.0402 -0.0440 -0.3902
  449DPPI   GL1 6953   2.227  15.216  10.107  0.1513 -0.0890 -0.1134
  449DPPI   GL2 6954   2.483  14.949  10.033 -0.2445  0.0413  0.1170
  449DPPI   C1A 6955   2.431  15.329   9.750  0.1810 -0.2811  0.3808
  449DPPI   C2A 6956   2.516  15.359   9.283 -0.1665  0.2038  0.3558
  449DPPI   C3A 6957   2.632  15.657   8.962 -0.0757 -0.1203 -0.1473
  449DPPI   C4A 6958   2.568  15.993   8.638  0.0512 -0.1051 -0.0780
  449DPPI   C1B 6959   2.561  14.876   9.620  0.2436  0.0627  0.0739
  449DPPI   C2B 6960   2.731  14.940   9.149 -0.4032 -0.2398 -0.1621
  449DPPI   C3B 6961   2.991  14.849   8.782 -0.2385  0.3274 -0.1323
  449DPPI   C4B 6962   3.106  14.741   8.379  0.1609  0.0984  0.1654
  450DPPI    C1 6963   9.125   5.536  10.152  0.2401 -0.2177 -0.1919
  450DPPI    C2 6964   8.929   5.451  10.490  0.1483  0.0042 -0.1879
  450DPPI    C3 6965   9.079   5.156  10.266  0.0307 -0.1543 -0.0597
  450DPPI   PO4 6966   9.211   5.866  10.260 -0.2653 -0.0970 -0.0682
  450DPPI   GL1 6967   9.336   6.270   9.927 -0.0975 -0.0957  0.0396
  450DPPI   GL2 6968   9.487   6.085   9.843  0.0876  0.0839  0.1840
  450DPPI   C1A 6969   9.028   6.301   9.640  0.2027  0.1106  0.3973
  450DPPI   C2A 6970   8.830   6.241   9.284 -0.0192 -0.0275  0.2323
  450DPPI   C3A 6971   8.725   6.373   8.946 -0.3775 -0.0335 -0.1779
  450DPPI   C4A 6972   8.466   6.704   8.763  0.4177  0.2007  0.1011
  450DPPI   C1B 6973   9.412   6.209   9.373 -0.1974 -0.0647  0.1207
  450DPPI   C2B 6974   9.248   6.126   8.892 -0.3015  0.0287  0.1967
  450DPPI   C3B 6975   9.451   5.909   8.568  0.2268  0.1714 -0.0841
  450DPPI   C4B 6976   9.477   6.065   8.160 -0.1015 -0.0408  0.2036
  451DPPI    C1 6977   4.092   2.626  11.002 -0.0230  0.0493  0.0401
  451DPPI    C2 6978   3.777   2.747  11.217 -0.1257 -0.0907 -0.0300
  451DPPI    C3 6979   4.095   2.985  11.177 -0.1080 -0.0602  0.2710
  451DPPI   PO4 6980   4.124   2.612  10.696 -0.0128 -0.0711 -0.3444
  451DPPI   GL1 6981   4.217   2.633  10.269  0.0564 -0.1082  0.0733
  451DPPI   GL2 6982   4.486   2.543  10.127  0.3615  0.0990  0.1087
  451DPPI   C1A 6983   4.020   2.666  10.010 -0.1035 -0.2943 -0.1801
  451DPPI   C2A 6984   3.879   2.490   9.553 -0.0947 -0.1592 -0.2226
  451DPPI   C3A 6985   3.821   2.626   9.130 -0.2858 -0.0656 -0.1575
  451DPPI   C4A 6986   3.536   2.494   8.775 -0.1596  0.0677  0.1100
  451DPPI   C1B 6987   4.475   2.587   9.683  0.0823 -0.0471  0.0367
  451DPPI   C2B 6988   4.369   2.801   9.276  0.0065 -0.0050 -0.0227
  451DPPI   C3B 6989   4.492   2.883   8.922 -0.3117 -0.1958 -0.0692
  451DPPI   C4B 6990   4.802   2.857   8.654  0.1561 -0.0664 -0.1070
  452DPPI    C1 6991   4.215   1.227  10.694  0.1455  0.2757 -0.0762
  452DPPI    C2 6992   4.000   1.443  10.953 -0.0645 -0.0899  0.0612
  452DPPI    C3 6993   4.364   1.314  11.055 -0.0227  0.0231  0.0566
  452DPPI   PO4 6994   4.225   1.304  10.484  0.2206 -0.1236  0.0763
  452DPPI   GL1 6995   4.423   1.378  10.128  0.0871 -0.0043  0.1635
  452DPPI   GL2 6996   4.402   1.566   9.849  0.2404 -0.3770  0.0551
  452DPPI   C1A 6997   4.834   1.360   9.940 -0.1261  0.0047 -0.3232
  452DPPI   C2A 6998   5.213   1.422   9.857 -0.6401  0.1936  0.3537
  452DPPI   C3A 6999   5.534   1.404   9.507 -0.0524 -0.0579  0.0240
  452DPPI   C4A 7000   5.944   1.459   9.346  0.0056  0.0486  0.1200
  452DPPI   C1B 7001   4.488   1.662   9.362 -0.0600 -0.1079  0.0307
  452DPPI   C2B 7002   4.356   1.838   8.992 -0.3498 -0.1863  0.0119
  452DPPI   C3B 7003   4.458   2.055   8.610  0.0726 -0.3843 -0.0688
  452DPPI   C4B 7004   4.402   2.136   8.227 -0.1850  0.1398 -0.4729
  453DPPI    C1 7005  15.418  17.487  10.048  0.0526 -0.0155  0.1956
  453DPPI    C2 7006  15.233  17.735  10.302 -0.2858 -0.0866  0.0249
  453DPPI    C3 7007  15.180  17.340  10.334 -0.0417 -0.1178  0.0656
  453DPPI   PO4 7008  15.667  17.533  10.041  0.4881 -0.2801  0.2266
  453DPPI   GL1 7009  15.848  17.795   9.729  0.1174  0.1707 -0.0861
  453DPPI   GL2 7010  15.880  18.071   9.667 -0.0524 -0.0273  0.0201
  453DPPI   C1A 7011  15.795  17.669   9.306  0.2001 -0.0506 -0.0420
  453DPPI   C2A 7012  15.772  17.732   8.895 -0.0442 -0.1578  0.0852
  453DPPI   C3A 7013  15.789  17.690   8.566  0.1184 -0.3319 -0.0779
  453DPPI   C4A 7014  15.943  17.457   8.173  0.0736  0.0595  0.0869
  453DPPI   C1B 7015  16.120  18.137   9.279 -0.3728  0.1105  0.0935
  453DPPI   C2B 7016  16.238  18.487   9.019 -0.1981  0.0721 -0.1700
  453DPPI   C3B 7017  16.281  18.548   8.598 -0.2590 -0.1332 -0.1125
  453DPPI   C4B 7018  16.297  18.338   8.268  0.0197  0.1242 -0.0790
  454DPPI    C1 7019   7.458   2.004  10.592  0.0828 -0.1199  0.0663
  454DPPI    C2 7020   7.265   1.689  10.440  0.1436 -0.1472  0.0453
  454DPPI    C3 7021   7.319   1.718  10.835  0.1013 -0.1421  0.0507
  454DPPI   PO4 7022   7.309   2.250  10.397  0.0395  0.1918  0.1313
  454DPPI   GL1 7023   7.235   2.238   9.986 -0.0849 -0.4054  0.0260
  454DPPI   GL2 7024   7.142   1.938   9.972 -0.1378 -0.5418  0.0110
  454DPPI   C1A 7025   7.485   2.078   9.595 -0.0930  0.0840  0.0207
  454DPPI   C2A 7026   7.259   1.880   9.204 -0.0448 -0.1674  0.1994
  454DPPI   C3A 7027   7.230   1.915   8.759 -0.0279  0.0413 -0.1505
  454DPPI   C4A 7028   7.508   2.131   8.438  0.2312  0.3551 -0.3036
  454DPPI   C1B 7029   7.014   1.805   9.586  0.0447 -0.1095 -0.0114
  454DPPI   C2B 7030   6.825   1.688   9.288 -0.1809  0.1105  0.1036
  454DPPI   C3B 7031   6.753   1.833   8.916 -0.2210  0.1782  0.2840
  454DPPI   C4B 7032   6.665   2.179   8.573 -0.0160 -0.1801 -0.2366
  455DPPI    C1 7033  12.199  16.498  10.225  0.0424  0.0125  0.0811
  455DPPI    C2 7034  12.295  16.320  10.570 -0.0182  0.0739  0.1300
  455DPPI    C3 7035  11.975  16.197  10.364  0.1391 -0.1035 -0.0125
  455DPPI   PO4 7036  12.521  16.489  10.101 -0.1850 -0.4181 -0.1170
  455DPPI   GL1 7037  12.886  16.633   9.674 -0.0204  0.2357  0.1485
  455DPPI   GL2 7038  12.863  16.450   9.502 -0.0137 -0.0602  0.2210
  455DPPI   C1A 7039  12.536  16.935   9.405  0.0201 -0.0950 -0.0036
  455DPPI   C2A 7040  12.558  17.099   8.977  0.0968  0.2545  0.0259
  455DPPI   C3A 7041  12.495  17.016   8.596  0.2223  0.2270  0.1440
  455DPPI   C4A 7042  12.440  17.087   8.152 -0.2694  0.0299  0.0669
  455DPPI   C1B 7043  12.860  16.767   9.083  0.1313  0.1960 -0.1314
  455DPPI   C2B 7044  13.000  16.809   8.705  0.4119 -0.1614  0.2455
  455DPPI   C3B 7045  12.835  16.827   8.279 -0.1118 -0.3277 -0.1625
  455DPPI   C4B 7046  12.805  16.862   7.864 -0.1021 -0.0818  0.3196
  456DPPI    C1 7047   5.568   1.095  10.541 -0.0797 -0.0643  0.0529
  456DPPI    C2 7048   5.863   1.148  10.806  0.0117 -0.2227 -0.0161
  456DPPI    C3 7049   5.486   1.099  10.933  0.0030  0.0501  0.0695
  456DPPI   PO4 7050   5.675   1.216  10.331  0.0873  0.3008  0.0014
  456DPPI   GL1 7051   5.951   1.181   9.886  0.1637 -0.2993 -0.1644
  456DPPI   GL2 7052   5.642   1.092   9.890 -0.0467  0.0754  0.0500
  456DPPI   C1A 7053   6.120   1.000   9.539  0.1673  0.1693  0.0381
  456DPPI   C2A 7054   6.124   0.947   9.119  0.2523  0.0648 -0.1364
  456DPPI   C3A 7055   6.195   0.801   8.630  0.3043  0.0288  0.1152
  456DPPI   C4A 7056   6.201   0.468   8.285  0.0255  0.0664 -0.1129
  456DPPI   C1B 7057   5.518   0.942   9.511 -0.1499  0.1753 -0.0523
  456DPPI   C2B 7058   5.602   1.063   9.122  0.0107  0.0724  0.1204
  456DPPI   C3B 7059   5.698   1.051   8.734 -0.0508 -0.0566 -0.1646
  456DPPI   C4B 7060   5.477   1.226   8.306 -0.0108  0.1947 -0.0271
  457DPPI    C1 7061   3.918   0.783  10.489 -0.0324 -0.0004 -0.0658
  457DPPI    C2 7062   4.087   0.436  10.381 -0.0795 -0.0971  0.1642
  457DPPI    C3 7063   4.307   0.770  10.396 -0.0292 -0.1198 -0.0382
  457DPPI   PO4 7064   3.689   0.762  10.329  0.0989  0.1233 -0.1423
  457DPPI   GL1 7065   3.713   0.645   9.964  0.0220  0.0313 -0.2372
  457DPPI   GL2 7066   3.695   0.494   9.730  0.2263  0.0646 -0.1182
  457DPPI   C1A 7067   3.706   1.019   9.642  0.2716  0.1378 -0.0000
  457DPPI   C2A 7068   3.669   1.245   9.297 -0.1869  0.0015  0.0432
  457DPPI   C3A 7069   3.392   1.396   9.069 -0.4421  0.1812 -0.0784
  457DPPI   C4A 7070   3.379   1.507   8.621 -0.0836 -0.1559 -0.0904
  457DPPI   C1B 7071   3.559   0.308   9.317 -0.0181  0.0657  0.2841
  457DPPI   C2B 7072   3.327   0.298   8.872 -0.1538 -0.1514  0.1875
  457DPPI   C3B 7073   3.459   0.282   8.490  0.1476 -0.0126 -0.0625
  457DPPI   C4B 7074   3.280  -0.032   8.065 -0.0671 -0.4165 -0.0117
  458DPPI    C1 7075  12.304  18.304   9.884 -0.1364  0.1949 -0.0869
  458DPPI    C2 7076  12.561  18.521  10.099  0.0756 -0.0716 -0.0650
  458DPPI    C3 7077  12.632  18.455   9.711  0.0710 -0.1936 -0.0453
  458DPPI   PO4 7078  12.101  18.319   9.941 -0.0058 -0.1556 -0.1309
  458DPPI   GL1 7079  11.795  18.070   9.735  0.2884 -0.1326 -0.0492
  458DPPI   GL2 7080  11.607  18.351   9.564 -0.4171  0.0143 -0.2091
  458DPPI   C1A 7081  11.788  17.723   9.445  0.1103 -0.0785  0.4192
  458DPPI   C2A 7082  11.721  17.658   9.045 -0.2777 -0.0098 -0.1711
  458DPPI   C3A 7083  11.630  17.760   8.597 -0.1015 -0.2019 -0.2115
  458DPPI   C4A 7084  11.651  17.779   8.072 -0.1293  0.0572 -0.0924
  458DPPI   C1B 7085  11.567  18.585   9.242  0.4029 -0.0770 -0.1248
  458DPPI   C2B 7086  11.328  18.582   8.901  0.0750 -0.2420  0.0626
  458DPPI   C3B 7087  11.131  18.777   8.616  0.0549 -0.0217 -0.3390
  458DPPI   C4B 7088  11.177  18.683   8.165 -0.3735 -0.0320 -0.2277
  459DPPI    C1 7089   5.240  11.920  10.331 -0.0983 -0.1101  0.1016
  459DPPI    C2 7090   5.349  12.155  10.636  0.0659 -0.1526  0.0766
  459DPPI    C3 7091   5.533  11.805  10.577  0.1383 -0.0770 -0.1596
  459DPPI   PO4 7092   5.239  12.175  10.097 -0.2898 -0.0510 -0.1226
  459DPPI   GL1 7093   5.324  12.448   9.807 -0.1618  0.0909 -0.0967
  459DPPI   GL2 7094   5.770  12.601   9.882 -0.1216 -0.0121  0.0463
  459DPPI   C1A 7095   5.319  12.403   9.366 -0.0201  0.1101 -0.0267
  459DPPI   C2A 7096   5.263  12.447   8.971 -0.1347  0.2278  0.0948
  459DPPI   C3A 7097   5.236  12.404   8.541 -0.2547  0.4145  0.2360
  459DPPI   C4A 7098   5.123  12.482   8.051 -0.2682  0.0050 -0.0655
  459DPPI   C1B 7099   5.751  12.515   9.554  0.0140  0.1901  0.0750
  459DPPI   C2B 7100   5.772  12.479   9.074 -0.0703  0.3808  0.3277
  459DPPI   C3B 7101   5.725  12.386   8.635 -0.0909 -0.0759 -0.3122
  459DPPI   C4B 7102   5.802  12.327   8.233  0.0688  0.3660 -0.0121
  460DPPI    C1 7103   5.357  11.279  10.408  0.2855 -0.4230 -0.0328
  460DPPI    C2 7104   5.138  10.947  10.452 -0.1187 -0.1447  0.1069
  460DPPI    C3 7105   5.339  11.097  10.764  0.0792 -0.2649  0.0391
  460DPPI   PO4 7106   5.196  11.443  10.231 -0.1227 -0.0179  0.0637
  460DPPI   GL1 7107   5.293  11.513   9.820 -0.3625 -0.2411  0.0449
  460DPPI   GL2 7108   5.065  11.821   9.790  0.0309 -0.2351 -0.0381
  460DPPI   C1A 7109   5.339  11.460   9.368  0.0206  0.0829  0.2813
  460DPPI   C2A 7110   5.319  11.522   8.802 -0.0970  0.1554 -0.0989
  460DPPI   C3A 7111   5.234  11.512   8.383  0.1013 -0.1719 -0.0478
  460DPPI   C4A 7112   5.015  11.487   7.966 -0.0371 -0.0680  0.0459
  460DPPI   C1B 7113   5.102  11.926   9.399 -0.2802  0.0638 -0.0734
  460DPPI   C2B 7114   5.022  11.878   8.983  0.2059 -0.3209  0.1112
  460DPPI   C3B 7115   5.008  11.975   8.534  0.0305  0.4344  0.3210
  460DPPI   C4B 7116   4.945  12.015   8.101  0.3804  0.1041 -0.5017
  461DPPI    C1 7117  11.294   4.327  10.042  0.3062  0.4326 -0.2733
  461DPPI    C2 7118  11.278   4.504  10.401 -0.0601 -0.0345 -0.0473
  461DPPI    C3 7119  11.590   4.271  10.307 -0.0741 -0.0972  0.0603
  461DPPI   PO4 7120  11.250   4.600   9.875 -0.1812  0.0090  0.0078
  461DPPI   GL1 7121  11.124   4.662   9.501 -0.0244 -0.0206  0.1308
  461DPPI   GL2 7122  10.843   4.622   9.606 -0.0544 -0.3637 -0.0486
  461DPPI   C1A 7123  11.365   4.837   9.220 -0.0444 -0.2546  0.0138
  461DPPI   C2A 7124  11.357   4.660   8.849 -0.3681 -0.2212  0.0086
  461DPPI   C3A 7125  11.462   4.887   8.493  0.1888 -0.0985  0.0758
  461DPPI   C4A 7126  11.414   5.030   8.136  0.0978 -0.0569 -0.0896
  461DPPI   C1B 7127  10.647   4.838   9.335 -0.2252  0.0961 -0.0426
  461DPPI   C2B 7128  10.523   5.016   8.977 -0.2230 -0.2867 -0.2905
  461DPPI   C3B 7129  10.257   5.215   8.734 -0.2948 -0.1813  0.1025
  461DPPI   C4B 7130  10.161   5.479   8.378 -0.0843  0.0858  0.0541
  462DPPI    C1 7131  17.293   7.135  10.058 -0.0081 -0.0778  0.1352
  462DPPI    C2 7132  17.341   6.739  10.084  0.0468 -0.0730  0.1087
  462DPPI    C3 7133  17.659   6.976  10.029 -0.0347 -0.0633 -0.3633
  462DPPI   PO4 7134  17.100   7.159   9.953 -0.1781 -0.6498  0.4235
  462DPPI   GL1 7135  16.961   7.220   9.528 -0.1133  0.2454  0.1252
  462DPPI   GL2 7136  16.865   7.536   9.458 -0.2986 -0.2363  0.2337
  462DPPI   C1A 7137  16.985   7.015   9.166 -0.2111 -0.0121 -0.3712
  462DPPI   C2A 7138  16.952   6.781   8.789  0.1367 -0.1534 -0.1842
  462DPPI   C3A 7139  16.957   6.530   8.480  0.2094 -0.2787  0.4407
  462DPPI   C4A 7140  17.102   6.179   8.168  0.2938  0.0776  0.0316
  462DPPI   C1B 7141  17.166   7.490   9.111 -0.0402  0.0884 -0.1143
  462DPPI   C2B 7142  17.280   7.177   8.809 -0.0224  0.0932  0.1062
  462DPPI   C3B 7143  17.304   6.916   8.444  0.0810 -0.2488 -0.0299
  462DPPI   C4B 7144  17.719   6.983   8.254  0.0092 -0.3861  0.0954
  463DPPI    C1 7145   0.290  16.815  10.573 -0.1644 -0.0637  0.0769
  463DPPI    C2 7146   0.421  16.495  10.775 -0.0421  0.0222  0.1353
  463DPPI    C3 7147   0.176  16.758  10.953 -0.2861 -0.1310  0.0309
  463DPPI   PO4 7148   0.509  16.963  10.494  0.0001  0.0926  0.0065
  463DPPI   GL1 7149   0.765  16.977  10.148  0.0069 -0.3758 -0.1801
  463DPPI   GL2 7150   1.103  17.079  10.123  0.2137 -0.2792 -0.2772
  463DPPI   C1A 7151   0.554  16.977   9.724 -0.0341 -0.2924  0.1617
  463DPPI   C2A 7152   0.546  16.930   9.291  0.0236  0.1379  0.0084
  463DPPI   C3A 7153   0.858  16.791   9.013  0.1030  0.1254 -0.3833
  463DPPI   C4A 7154   0.942  17.035   8.750 -0.0505 -0.4285 -0.1917
  463DPPI   C1B 7155   1.023  17.055   9.762 -0.2221 -0.1488 -0.4633
  463DPPI   C2B 7156   1.151  16.930   9.457 -0.1366  0.2444  0.1282
  463DPPI   C3B 7157   1.449  16.946   9.075  0.3045  0.3239 -0.2463
  463DPPI   C4B 7158   1.306  16.728   8.751 -0.2491  0.1181 -0.1187
  464DPPI    C1 7159   8.981  13.852  10.902 -0.2567  0.2046 -0.0489
  464DPPI    C2 7160   8.888  14.152  11.149 -0.0635  0.2872 -0.0746
  464DPPI    C3 7161   9.205  14.183  10.907  0.3427 -0.1855  0.3707
  464DPPI   PO4 7162   8.795  13.743  10.695  0.3659 -0.1246 -0.3177
  464DPPI   GL1 7163   8.698  13.666  10.321 -0.0885  0.0379 -0.3618
  464DPPI   GL2 7164   8.892  13.827  10.180  0.3556 -0.4131 -0.0403
  464DPPI   C1A 7165   8.512  13.220  10.148  0.3045  0.0490  0.0046
  464DPPI   C2A 7166   8.344  13.010   9.822  0.4056  0.0278  0.0138
  464DPPI   C3A 7167   8.286  12.935   9.469 -0.3949  0.1262  0.0647
  464DPPI   C4A 7168   8.019  12.702   9.211  0.2021 -0.0713 -0.0658
  464DPPI   C1B 7169   8.688  13.885   9.809  0.1459 -0.1349 -0.0068
  464DPPI   C2B 7170   8.540  13.945   9.380 -0.0104  0.1831  0.0139
  464DPPI   C3B 7171   8.426  13.834   8.994 -0.0201  0.3474  0.0506
  464DPPI   C4B 7172   8.002  13.692   9.009 -0.4227  0.1184  0.0748
  465DPPI    C1 7173   5.152   0.679  10.907  0.2751  0.0819 -0.0624
  465DPPI    C2 7174   4.937   0.916  11.146 -0.1284 -0.1548 -0.1802
  465DPPI    C3 7175   5.254   0.721  11.291 -0.0797  0.0794  0.0360
  465DPPI   PO4 7176   5.174   0.817  10.663  0.2330 -0.2581 -0.1128
  465DPPI   GL1 7177   5.108   0.971  10.427  0.2896  0.1594 -0.1908
  465DPPI   GL2 7178   5.140   1.202  10.296  0.3056 -0.0134  0.1023
  465DPPI   C1A 7179   4.729   0.980  10.173 -0.0810 -0.1199  0.0010
  465DPPI   C2A 7180   4.458   0.945   9.836 -0.1875 -0.1355  0.3807
  465DPPI   C3A 7181   4.538   1.080   9.441  0.0230 -0.3794  0.0383
  465DPPI   C4A 7182   4.669   1.220   9.099  0.0788 -0.0834 -0.1123
  465DPPI   C1B 7183   5.140   0.949   9.903  0.2444 -0.0282  0.2624
  465DPPI   C2B 7184   4.995   1.003   9.542  0.1217  0.2332  0.0524
  465DPPI   C3B 7185   5.096   1.024   9.139  0.0000  0.2212  0.0774
  465DPPI   C4B 7186   5.140   1.281   8.723 -0.0878 -0.0630 -0.0701
  466DPPI    C1 7187   4.550  16.027  10.632  0.0787  0.3082  0.1908
  466DPPI    C2 7188   4.423  16.193  10.972  0.0776  0.2298  0.2289
  466DPPI    C3 7189   4.611  15.840  10.980  0.1019  0.2408  0.1509
  466DPPI   PO4 7190   4.623  16.251  10.501  0.1412  0.0803  0.1691
  466DPPI   GL1 7191   4.906  16.374  10.126  0.0936  0.4335  0.0063
  466DPPI   GL2 7192   4.849  16.705   9.865  0.0756  0.0372 -0.0174
  466DPPI   C1A 7193   4.724  16.178   9.810 -0.0826 -0.0731 -0.0476
  466DPPI   C2A 7194   4.786  15.970   9.384  0.0860 -0.0575 -0.2032
  466DPPI   C3A 7195   4.613  15.671   9.059  0.3649  0.0355  0.4884
  466DPPI   C4A 7196   4.421  15.447   8.667  0.0066 -0.2446  0.0628
  466DPPI   C1B 7197   4.711  16.799   9.508  0.0039  0.3396  0.0976
  466DPPI   C2B 7198   4.598  17.083   9.063  0.1352  0.2024 -0.2225
  466DPPI   C3B 7199   4.777  16.968   8.606  0.1007  0.0375  0.0669
  466DPPI   C4B 7200   4.655  17.180   8.225 -0.4603  0.1410 -0.4416
  467DPPI    C1 7201   1.289   1.830  10.724 -0.0315  0.0778  0.0498
  467DPPI    C2 7202   1.195   1.513  10.949  0.0910  0.1207  0.1629
  467DPPI    C3 7203   0.990   1.855  10.988 -0.1711 -0.0027 -0.0996
  467DPPI   PO4 7204   1.324   1.758  10.463 -0.1582  0.1357 -0.2807
  467DPPI   GL1 7205   1.196   1.809  10.071  0.0692  0.0656 -0.1584
  467DPPI   GL2 7206   0.769   1.647   9.992  0.0339  0.0550 -0.4222
  467DPPI   C1A 7207   1.046   2.137   9.760  0.1577  0.0961  0.2604
  467DPPI   C2A 7208   0.957   2.200   9.321  0.1202 -0.0608 -0.0664
  467DPPI   C3A 7209   0.876   2.328   8.934  0.0478  0.0706  0.1665
  467DPPI   C4A 7210   0.553   2.371   8.537  0.0668  0.0711  0.0055
  467DPPI   C1B 7211   1.011   1.644   9.589  0.3215  0.3523 -0.0725
  467DPPI   C2B 7212   0.810   1.667   9.193 -0.3590  0.0797 -0.2337
  467DPPI   C3B 7213   0.929   1.587   8.836 -0.0613 -0.1706  0.0120
  467DPPI   C4B 7214   1.166   1.407   8.497  0.0761  0.1451  0.0469
  468DPPI    C1 7215   1.762   7.825  10.615  0.3554  0.1209 -0.1865
  468DPPI    C2 7216   2.028   7.555  10.744  0.0396 -0.1526 -0.0940
  468DPPI    C3 7217   1.814   7.768  11.008  0.0948 -0.0045 -0.1678
  468DPPI   PO4 7218   1.890   7.914  10.338 -0.1766  0.1150 -0.2614
  468DPPI   GL1 7219   1.596   7.877  10.045 -0.3281 -0.1082 -0.0290
  468DPPI   GL2 7220   1.333   7.950  10.041  0.0473  0.2811 -0.0706
  468DPPI   C1A 7221   1.478   7.851   9.546 -0.1986  0.0229 -0.0218
  468DPPI   C2A 7222   1.385   7.912   9.106  0.1490 -0.0843 -0.0557
  468DPPI   C3A 7223   1.627   7.923   8.680  0.1359  0.3060 -0.1557
  468DPPI   C4A 7224   1.755   8.214   8.579  0.1339  0.1059 -0.3114
  468DPPI   C1B 7225   1.030   7.651   9.638  0.0772 -0.2597 -0.2057
  468DPPI   C2B 7226   0.971   7.660   9.134 -0.0674 -0.1044 -0.1459
  468DPPI   C3B 7227   1.060   7.851   8.696  0.0680  0.0917 -0.0953
  468DPPI   C4B 7228   0.840   8.083   8.516  0.0260  0.1359  0.2776
  469DPPI    C1 7229   0.680  17.416  10.562  0.1264  0.2065  0.0430
  469DPPI    C2 7230   0.994  17.173  10.608  0.1978  0.2501 -0.2029
  469DPPI    C3 7231   0.954  17.495  10.843  0.0900 -0.0086  0.1411
  469DPPI   PO4 7232   0.602  17.427  10.327 -0.1939  0.1706  0.1040
  469DPPI   GL1 7233   0.568  17.456   9.876  0.0635  0.2763 -0.3240
  469DPPI   GL2 7234   0.806  17.569   9.884  0.2537 -0.2072 -0.2403
  469DPPI   C1A 7235   0.775  17.356   9.445 -0.0978 -0.0863 -0.0009
  469DPPI   C2A 7236   0.708  17.382   9.058  0.1259 -0.1804 -0.0826
  469DPPI   C3A 7237   0.658  17.553   8.709 -0.0463 -0.1691  0.3131
  469DPPI   C4A 7238   0.465  17.556   8.349 -0.0147 -0.1307 -0.0403
  469DPPI   C1B 7239   0.557  17.857   9.594  0.1926  0.1713  0.1192
  469DPPI   C2B 7240   0.427  17.740   9.186 -0.3160  0.3318 -0.0430
  469DPPI   C3B 7241   0.444  18.062   8.854 -0.1086 -0.3419 -0.0430
  469DPPI   C4B 7242   0.315  18.041   8.352 -0.2509  0.0457 -0.1707
  470DPPI    C1 7243  13.945   5.650  10.276 -0.0177  0.0219  0.1845
  470DPPI    C2 7244  13.992   5.941  10.547 -0.0345 -0.1529  0.3774
  470DPPI    C3 7245  14.206   5.604  10.577  0.4961  0.1101 -0.2328
  470DPPI   PO4 7246  14.041   5.743  10.057 -0.2150  0.1789  0.0550
  470DPPI   GL1 7247  14.320   5.839   9.768  0.1029  0.0915 -0.0533
  470DPPI   GL2 7248  14.334   5.562   9.642 -0.3705  0.1885 -0.1692
  470DPPI   C1A 7249  14.405   5.998   9.396 -0.1540 -0.2516  0.0578
  470DPPI   C2A 7250  14.316   6.061   8.904  0.1584 -0.1604  0.0336
  470DPPI   C3A 7251  14.281   6.138   8.567 -0.1058 -0.3172  0.1038
  470DPPI   C4A 7252  14.352   6.269   8.204  0.1590  0.0889 -0.1335
  470DPPI   C1B 7253  14.389   5.547   9.232  0.2285  0.1600  0.3835
  470DPPI   C2B 7254  14.457   5.274   8.885 -0.1030 -0.0188 -0.3082
  470DPPI   C3B 7255  14.387   5.165   8.418 -0.2207 -0.0052 -0.1651
  470DPPI   C4B 7256  14.509   4.898   8.010 -0.1461 -0.1428 -0.5255
  471DPPI    C1 7257   6.184   8.958   9.962  0.0214  0.0391  0.0763
  471DPPI    C2 7258   6.296   9.340  10.000  0.0129  0.0312  0.1862
  471DPPI    C3 7259   6.476   9.057  10.217  0.0867 -0.0408  0.0332
  471DPPI   PO4 7260   5.966   8.985   9.927 -0.1823  0.0875  0.0877
  471DPPI   GL1 7261   5.833   8.615   9.646  0.1201 -0.2235 -0.0565
  471DPPI   GL2 7262   5.786   8.895   9.465  0.0538 -0.0366  0.1251
  471DPPI   C1A 7263   5.736   8.467   9.167 -0.2607 -0.2179 -0.0991
  471DPPI   C2A 7264   5.448   8.414   8.856  0.0158  0.0494 -0.0065
  471DPPI   C3A 7265   5.187   8.494   8.578 -0.2682 -0.0787 -0.1844
  471DPPI   C4A 7266   4.888   8.722   8.389  0.2428  0.2566 -0.0751
  471DPPI   C1B 7267   5.549   8.916   9.038 -0.1773 -0.1019  0.1792
  471DPPI   C2B 7268   5.590   8.834   8.556  0.0375 -0.0373 -0.1572
  471DPPI   C3B 7269   5.407   8.739   8.093  0.2735  0.2395  0.0530
  471DPPI   C4B 7270   5.498   8.966   7.692 -0.2031 -0.2437 -0.1248
  472DPPI    C1 7271   2.747  13.516  10.814 -0.1171  0.0814  0.2615
  472DPPI    C2 7272   3.133  13.538  10.915  0.0384 -0.3837 -0.1901
  472DPPI    C3 7273   2.951  13.855  10.753  0.1659 -0.0941  0.2156
  472DPPI   PO4 7274   2.777  13.290  10.622 -0.2239  0.2810 -0.0173
  472DPPI   GL1 7275   2.820  13.401  10.246 -0.0594 -0.1622  0.2612
  472DPPI   GL2 7276   3.128  13.662  10.177  0.2722 -0.1621 -0.0279
  472DPPI   C1A 7277   2.768  13.367   9.827 -0.0488  0.1667  0.2441
  472DPPI   C2A 7278   2.785  13.251   9.421 -0.1259  0.0763 -0.1975
  472DPPI   C3A 7279   2.672  13.084   8.946  0.0170 -0.0414  0.2339
  472DPPI   C4A 7280   2.523  13.017   8.577 -0.0793 -0.0484  0.2400
  472DPPI   C1B 7281   2.872  13.898   9.825 -0.0504 -0.2805  0.0702
  472DPPI   C2B 7282   2.835  13.842   9.397  0.0517  0.0366 -0.0550
  472DPPI   C3B 7283   2.759  13.720   9.003  0.1598 -0.1356  0.1591
  472DPPI   C4B 7284   2.487  13.595   8.662 -0.0803  0.1828  0.2646
  473PYPI    C1 7285  14.318  14.939  10.158 -0.0298  0.0704 -0.0442
  473PYPI    C2 7286  14.271  14.691   9.848  0.2732  0.1601 -0.1651
  473PYPI    C3 7287  14.301  14.544  10.218 -0.0402  0.0494 -0.1809
  473PYPI   PO4 7288  14.210  15.137  10.026 -0.1909  0.1270 -0.1798
  473PYPI   GL1 7289  14.492  15.116   9.763  0.0510 -0.1817  0.0930
  473PYPI   GL2 7290  14.777  14.888   9.819 -0.0838 -0.0946 -0.2657
  473PYPI   C1A 7291  14.412  15.073   9.321  0.0059  0.0691  0.1373
  473PYPI   C2A 7292  14.420  15.059   8.882 -0.0705  0.4637  0.1801
  473PYPI   D3A 7293  14.623  15.254   8.505  0.0061 -0.2046  0.2221
  473PYPI   C4A 7294  14.939  15.613   8.503 -0.1172 -0.2292 -0.0007
  473PYPI   C1B 7295  14.915  15.123   9.465  0.1285 -0.0220 -0.0616
  473PYPI   C2B 7296  15.200  15.402   9.448  0.0904 -0.2451  0.1764
  473PYPI   C3B 7297  15.493  15.654   9.252  0.0984 -0.2310 -0.0144
  473PYPI   C4B 7298  15.964  15.713   8.983  0.2690  0.2012 -0.2049
  474PYPI    C1 7299   0.420   1.023  10.821 -0.0270  0.2289  0.1350
  474PYPI    C2 7300   0.691   0.758  10.949  0.1261  0.3989  0.1682
  474PYPI    C3 7301   0.489   0.981  11.212 -0.0555  0.2656  0.1441
  474PYPI   PO4 7302   0.386   0.897  10.591  0.1366  0.2394 -0.0820
  474PYPI   GL1 7303   0.342   0.905  10.210 -0.0622  0.1117  0.0036
  474PYPI   GL2 7304   0.444   1.194   9.976  0.3893 -0.1387  0.0551
  474PYPI   C1A 7305   0.572   0.621   9.942 -0.1278 -0.1876  0.0836
  474PYPI   C2A 7306   0.611   0.476   9.526 -0.0652  0.2374  0.1917
  474PYPI   D3A 7307   0.999   0.359   9.391  0.0164  0.1250 -0.0162
  474PYPI   C4A 7308   1.278   0.725   9.487  0.3717  0.3007  0.0484
  474PYPI   C1B 7309   0.052   1.267   9.786 -0.1076 -0.0324 -0.0289
  474PYPI   C2B 7310  -0.035   1.368   9.395  0.0836  0.1700  0.0851
  474PYPI   C3B 7311  -0.295   1.408   9.102 -0.1141 -0.0168  0.1460
  474PYPI   C4B 7312  -0.337   1.545   8.667 -0.2007 -0.1094 -0.1807
  475PYPI    C1 7313  17.495  14.244  10.365  0.0535 -0.2414  0.0319
  475PYPI    C2 7314  17.488  14.081  10.730  0.1133 -0.1552  0.0718
  475PYPI    C3 7315  17.828  14.236  10.586 -0.0218  0.2521  0.1769
  475PYPI   PO4 7316  17.420  14.040  10.173 -0.1495 -0.3041  0.0763
  475PYPI   GL1 7317  17.319  13.938   9.817  0.1028  0.1591  0.2824
  475PYPI   GL2 7318  17.038  13.817   9.724 -0.2983 -0.1166 -0.0264
  475PYPI   C1A 7319  17.270  14.266   9.558  0.3247  0.2044  0.0963
  475PYPI   C2A 7320  17.220  14.007   9.136  0.0678 -0.1661  0.0970
  475PYPI   D3A 7321  17.178  13.802   8.740 -0.3459 -0.0614 -0.2296
  475PYPI   C4A 7322  17.262  13.885   8.352  0.2759  0.1929  0.2121
  475PYPI   C1B 7323  17.073  13.505   9.296  0.0919 -0.4480 -0.1399
  475PYPI   C2B 7324  16.839  13.495   8.930 -0.1017 -0.0477 -0.1376
  475PYPI   C3B 7325  16.483  13.409   8.622 -0.1092  0.1530 -0.1039
  475PYPI   C4B 7326  16.377  13.850   8.506  0.0252 -0.0131  0.0496
  476PYPI    C1 7327   7.927  17.294  10.493  0.2785 -0.0019  0.1842
  476PYPI    C2 7328   7.657  17.004  10.447 -0.0847  0.3222  0.2211
  476PYPI    C3 7329   7.927  16.980  10.740  0.0901 -0.1231  0.0327
  476PYPI   PO4 7330   7.853  17.459  10.291 -0.0058 -0.0772  0.1251
  476PYPI   GL1 7331   7.960  17.551   9.873 -0.2127 -0.1395 -0.0662
  476PYPI   GL2 7332   8.141  17.768   9.999  0.0244  0.0158 -0.0271
  476PYPI   C1A 7333   7.895  17.598   9.405 -0.2367 -0.3255  0.4176
  476PYPI   C2A 7334   7.720  17.296   9.026 -0.1150  0.1772 -0.3840
  476PYPI   D3A 7335   7.646  17.032   8.578  0.3034  0.0539  0.0231
  476PYPI   C4A 7336   7.365  17.093   8.321  0.1428  0.3780 -0.0980
  476PYPI   C1B 7337   8.092  18.009   9.623 -0.1801 -0.0216 -0.0703
  476PYPI   C2B 7338   8.094  18.108   9.193 -0.0526  0.1299 -0.2833
  476PYPI   C3B 7339   8.193  18.174   8.792  0.0564 -0.0135  0.1786
  476PYPI   C4B 7340   8.425  18.382   8.491 -0.0317 -0.0108 -0.0579
  477PYPI    C1 7341  15.844  10.008   9.873  0.0211  0.1009 -0.0364
  477PYPI    C2 7342  15.444  10.022   9.852 -0.0060 -0.1415  0.2461
  477PYPI    C3 7343  15.624   9.969  10.205  0.2694 -0.2449  0.0934
  477PYPI   PO4 7344  15.938  10.238   9.752  0.0458 -0.0000  0.1622
  477PYPI   GL1 7345  15.984  10.371   9.309 -0.2009  0.1148 -0.2020
  477PYPI   GL2 7346  16.220  10.159   9.273 -0.1301 -0.4038 -0.0921
  477PYPI   C1A 7347  16.112  10.739   9.137  0.2556  0.0042 -0.1496
  477PYPI   C2A 7348  16.348  11.013   9.131 -0.1110  0.2374  0.1172
  477PYPI   D3A 7349  16.340  11.308   8.759  0.0243  0.0750  0.0857
  477PYPI   C4A 7350  16.586  11.772   8.655  0.1081  0.1892 -0.0626
  477PYPI   C1B 7351  16.565  10.460   9.187  0.0318  0.1499 -0.0026
  477PYPI   C2B 7352  16.815  10.809   9.303 -0.0772  0.0710  0.3139
  477PYPI   C3B 7353  16.937  10.964   9.037  0.1035  0.1338 -0.0016
  477PYPI   C4B 7354  17.361  11.089   8.761  0.1740 -0.2651  0.3274
  478PYPI    C1 7355  17.292   6.038  10.487 -0.2066  0.0927 -0.4118
  478PYPI    C2 7356  17.611   6.028  10.729 -0.3241  0.0558 -0.2568
  478PYPI    C3 7357  17.260   6.163  10.866 -0.4314 -0.1150 -0.3600
  478PYPI   PO4 7358  17.355   5.880  10.306 -0.0127 -0.2191 -0.2621
  478PYPI   GL1 7359  17.349   5.889   9.907  0.0421 -0.0064 -0.1764
  478PYPI   GL2 7360  17.225   5.590   9.761 -0.3588 -0.0131  0.1517
  478PYPI   C1A 7361  17.473   6.046   9.479 -0.0691  0.0386  0.0545
  478PYPI   C2A 7362  17.629   6.082   9.043  0.3200  0.0891 -0.2091
  478PYPI   D3A 7363  17.493   6.128   8.670  0.1163 -0.0902  0.0253
  478PYPI   C4A 7364  17.617   5.933   8.257 -0.0932  0.1131  0.0274
  478PYPI   C1B 7365  17.529   5.548   9.571  0.4951  0.1844  0.0788
  478PYPI   C2B 7366  17.632   5.332   9.232 -0.0011 -0.0915  0.0065
  478PYPI   C3B 7367  17.642   5.214   8.826 -0.0501  0.0249  0.1646
  478PYPI   C4B 7368  17.603   4.994   8.379 -0.0858 -0.0650  0.2825
  479PYPI    C1 7369   1.682  12.803  10.738  0.1805  0.1969  0.1437
  479PYPI    C2 7370   1.509  13.146  10.626 -0.0124 -0.0127 -0.2202
  479PYPI    C3 7371   1.287  12.851  10.781  0.0944 -0.1086 -0.2482
  479PYPI   PO4 7372   1.799  12.710  10.558 -0.1307 -0.2894  0.1406
  479PYPI   GL1 7373   1.897  12.996  10.313  0.1168  0.4582  0.0659
  479PYPI   GL2 7374   1.785  13.180  10.082  0.4208 -0.4493  0.0245
  479PYPI   C1A 7375   2.248  12.923   9.911  0.0799  0.3437  0.1861
  479PYPI   C2A 7376   2.343  13.017   9.500 -0.3070  0.3039 -0.0643
  479PYPI   D3A 7377   2.250  12.964   9.157  0.0382 -0.4669  0.3509
  479PYPI   C4A 7378   1.841  12.740   9.010  0.1557 -0.3353  0.2347
  479PYPI   C1B 7379   1.600  13.311   9.798 -0.1150  0.2492 -0.0625
  479PYPI   C2B 7380   1.342  13.488   9.540 -0.2384 -0.2009 -0.0352
  479PYPI   C3B 7381   1.229  13.581   9.132 -0.0248 -0.3293 -0.0922
  479PYPI   C4B 7382   1.104  13.615   8.734 -0.1862 -0.1917 -0.0998
  480PYPI    C1 7383  17.662   0.773  10.875  0.1229 -0.0374  0.0984
  480PYPI    C2 7384  17.870   0.480  11.052  0.1050 -0.2159 -0.1692
  480PYPI    C3 7385  17.478   0.436  10.987  0.0776 -0.0800 -0.1004
  480PYPI   PO4 7386  17.888   0.897  10.698 -0.0309  0.2023 -0.1947
  480PYPI   GL1 7387  17.954   0.783  10.307 -0.1493  0.1984  0.0195
  480PYPI   GL2 7388  17.680   0.806  10.106 -0.1210  0.1175 -0.1467
  480PYPI   C1A 7389  18.200   0.850   9.920 -0.1948 -0.0406  0.0223
  480PYPI   C2A 7390  18.204   0.858   9.470  0.0786  0.1312 -0.0976
  480PYPI   D3A 7391  18.104   0.820   9.102 -0.2276  0.1946  0.0569
  480PYPI   C4A 7392  17.776   1.090   8.816 -0.0097  0.0145 -0.2240
  480PYPI   C1B 7393  17.794   0.671   9.676  0.0411  0.2274  0.0458
  480PYPI   C2B 7394  17.667   0.357   9.546  0.3670  0.1228  0.0014
  480PYPI   C3B 7395  17.520  -0.018   9.548 -0.5051  0.1052  0.0866
  480PYPI   C4B 7396  17.421  -0.441   9.661  0.3951  0.0567 -0.1873
  481PYPI    C1 7397   2.567   5.649  10.288  0.0178 -0.0659  0.0704
  481PYPI    C2 7398   2.852   5.803  10.523  0.1249 -0.0557 -0.0648
  481PYPI    C3 7399   2.475   5.777  10.656  0.1375  0.1726  0.0192
  481PYPI   PO4 7400   2.709   5.414  10.190 -0.0410 -0.2271 -0.0325
  481PYPI   GL1 7401   2.886   5.357   9.683  0.0755  0.2671 -0.0561
  481PYPI   GL2 7402   2.691   5.538   9.717  0.2926  0.1455 -0.0618
  481PYPI   C1A 7403   2.985   5.050   9.360  0.2574  0.1795  0.0698
  481PYPI   C2A 7404   3.067   4.883   8.900 -0.2473  0.1928 -0.1357
  481PYPI   D3A 7405   3.188   4.875   8.500 -0.0633  0.0084 -0.0341
  481PYPI   C4A 7406   3.471   4.559   8.315 -0.0612 -0.0265  0.1051
  481PYPI   C1B 7407   2.521   5.267   9.408 -0.1705 -0.1490  0.2112
  481PYPI   C2B 7408   2.516   5.289   8.997 -0.3019 -0.1936 -0.0029
  481PYPI   C3B 7409   2.310   5.274   8.510  0.1086  0.2511  0.2466
  481PYPI   C4B 7410   2.075   5.468   8.113  0.0992 -0.0498  0.0321
  482PYPI    C1 7411   6.351   6.477  10.407 -0.1884  0.0699  0.0086
  482PYPI    C2 7412   6.360   6.642  10.042  0.0920  0.1011  0.0275
  482PYPI    C3 7413   6.676   6.676  10.286 -0.0564 -0.0021  0.2380
  482PYPI   PO4 7414   6.231   6.214  10.306  0.1568 -0.1694  0.1746
  482PYPI   GL1 7415   6.161   6.153   9.834  0.0915  0.0224 -0.3453
  482PYPI   GL2 7416   6.316   6.041   9.650 -0.1370  0.1289 -0.1884
  482PYPI   C1A 7417   5.927   6.186   9.385  0.1596  0.0597 -0.3822
  482PYPI   C2A 7418   5.817   6.023   9.065 -0.0659  0.0938  0.1861
  482PYPI   D3A 7419   5.808   5.817   8.689 -0.1531 -0.1589  0.0022
  482PYPI   C4A 7420   5.878   5.736   8.208  0.1630 -0.0706  0.0889
  482PYPI   C1B 7421   6.207   5.799   9.321 -0.1882  0.3570  0.1062
  482PYPI   C2B 7422   6.283   5.609   8.913  0.4659 -0.1946 -0.1618
  482PYPI   C3B 7423   6.225   5.523   8.496  0.1870 -0.0649  0.0354
  482PYPI   C4B 7424   6.261   5.410   8.124  0.0677  0.0375 -0.1378
  483PYPI    C1 7425   5.451  12.738  10.257  0.3136 -0.1148  0.0098
  483PYPI    C2 7426   5.448  12.857  10.639  0.2674  0.0629 -0.0454
  483PYPI    C3 7427   5.190  12.578  10.515  0.5473 -0.2887  0.1433
  483PYPI   PO4 7428   5.421  12.911  10.110  0.1639  0.0730 -0.3292
  483PYPI   GL1 7429   5.498  12.992   9.769 -0.2282 -0.0279  0.2695
  483PYPI   GL2 7430   5.510  13.324   9.775  0.0747  0.2480 -0.1041
  483PYPI   C1A 7431   5.462  12.930   9.183  0.0604 -0.3966  0.0591
  483PYPI   C2A 7432   5.486  12.826   8.763 -0.1226  0.0511  0.1609
  483PYPI   D3A 7433   5.600  12.788   8.327 -0.0755  0.0896  0.1644
  483PYPI   C4A 7434   5.749  13.184   8.189 -0.0416  0.1026  0.2245
  483PYPI   C1B 7435   5.682  13.450   9.454  0.0706  0.0152  0.2056
  483PYPI   C2B 7436   5.698  13.444   9.042  0.0819 -0.0642  0.3460
  483PYPI   C3B 7437   5.433  13.293   8.642 -0.0438 -0.2133 -0.3007
  483PYPI   C4B 7438   5.380  13.470   8.209  0.1386 -0.3858  0.3366
  484PYPI    C1 7439   9.602   3.494   9.970 -0.1969  0.1948  0.1082
  484PYPI    C2 7440   9.489   3.841   9.808 -0.1918  0.2149  0.1475
  484PYPI    C3 7441   9.359   3.739  10.172 -0.4224  0.0463  0.0205
  484PYPI   PO4 7442   9.836   3.511   9.851  0.0998 -0.0474  0.2122
  484PYPI   GL1 7443   9.801   3.464   9.387 -0.0707 -0.0512 -0.1898
  484PYPI   GL2 7444   9.925   3.843   9.355  0.0871  0.1381  0.2248
  484PYPI   C1A 7445  10.073   3.218   9.082 -0.0064  0.0306  0.0949
  484PYPI   C2A 7446  10.094   3.364   8.663  0.0027 -0.1260  0.0405
  484PYPI   D3A 7447  10.001   3.286   8.260  0.0280  0.1765  0.0229
  484PYPI   C4A 7448   9.981   3.098   7.902 -0.0542  0.2823  0.1292
  484PYPI   C1B 7449   9.964   3.703   8.959 -0.4675  0.0700  0.0493
  484PYPI   C2B 7450  10.106   3.781   8.461  0.0386 -0.2065 -0.0825
  484PYPI   C3B 7451  10.023   3.806   8.051 -0.0065 -0.1826 -0.0655
  484PYPI   C4B 7452   9.859   3.809   7.573  0.0548  0.0654  0.0452
  485PYPI    C1 7453   1.095   9.378  10.753  0.2380 -0.1908 -0.2148
  485PYPI    C2 7454   1.013   9.003  10.642  0.1745 -0.1999 -0.1380
  485PYPI    C3 7455   1.100   9.084  11.024 -0.4412 -0.0411 -0.0205
  485PYPI   PO4 7456   1.050   9.616  10.572 -0.1165 -0.2150  0.1746
  485PYPI   GL1 7457   1.271   9.656  10.203 -0.1400 -0.1052  0.0192
  485PYPI   GL2 7458   1.181   9.439  10.004 -0.0231  0.0185 -0.0551
  485PYPI   C1A 7459   1.223   9.917   9.856  0.2968  0.2088 -0.0846
  485PYPI   C2A 7460   1.251   9.851   9.387 -0.0866  0.3753  0.0718
  485PYPI   D3A 7461   1.454   9.860   9.040 -0.1689 -0.0529  0.1993
  485PYPI   C4A 7462   1.251   9.869   8.647 -0.2101  0.3199  0.1116
  485PYPI   C1B 7463   1.208   9.394   9.632 -0.4378 -0.1463 -0.0149
  485PYPI   C2B 7464   1.266   9.362   9.226 -0.0151 -0.2258 -0.0790
  485PYPI   C3B 7465   1.262   9.296   8.778  0.4592  0.0589  0.0931
  485PYPI   C4B 7466   1.148   9.268   8.335  0.0308 -0.3781  0.0856
  486PYPI    C1 7467  17.625  13.603  10.562 -0.0605  0.0694  0.0434
  486PYPI    C2 7468  17.403  13.514  10.241 -0.0546 -0.4467  0.1739
  486PYPI    C3 7469  17.239  13.508  10.606 -0.0346  0.0325  0.1968
  486PYPI   PO4 7470  17.794  13.748  10.434  0.1165  0.1081 -0.1903
  486PYPI   GL1 7471  17.880  13.944  10.123 -0.1905  0.1750 -0.0556
  486PYPI   GL2 7472  18.121  14.227  10.142  0.3021  0.0457 -0.4703
  486PYPI   C1A 7473  18.015  13.698   9.778  0.0050 -0.0738  0.0002
  486PYPI   C2A 7474  17.838  13.321   9.495 -0.0587 -0.0272 -0.0534
  486PYPI   D3A 7475  17.871  13.246   9.169  0.2128 -0.2274  0.1583
  486PYPI   C4A 7476  18.081  12.966   8.851 -0.2415 -0.0261 -0.0054
  486PYPI   C1B 7477  18.129  14.205   9.696 -0.1013 -0.2802 -0.1146
  486PYPI   C2B 7478  18.171  14.215   9.206  0.3451 -0.1144  0.0136
  486PYPI   C3B 7479  18.177  14.048   8.816 -0.2535  0.0885 -0.3336
  486PYPI   C4B 7480  18.142  14.169   8.472 -0.0941 -0.2649 -0.1508
  487PYPI    C1 7481   1.340  10.378  10.677  0.0083 -0.0567  0.0121
  487PYPI    C2 7482   1.337  10.072  10.420  0.2175 -0.1060  0.0662
  487PYPI    C3 7483   1.098  10.066  10.740  0.0693 -0.1155 -0.0430
  487PYPI   PO4 7484   1.385  10.596  10.432  0.1652 -0.1642  0.0067
  487PYPI   GL1 7485   1.629  10.474  10.161 -0.2757 -0.0007 -0.0319
  487PYPI   GL2 7486   1.418  10.405   9.935 -0.1868  0.1528 -0.1134
  487PYPI   C1A 7487   1.803  10.716   9.793 -0.0675  0.1196 -0.1187
  487PYPI   C2A 7488   1.786  10.678   9.383 -0.1496 -0.0092 -0.1582
  487PYPI   D3A 7489   1.651  10.799   8.986 -0.0452  0.1585  0.1540
  487PYPI   C4A 7490   1.885  10.828   8.613 -0.0899 -0.2319  0.2392
  487PYPI   C1B 7491   1.388  10.460   9.551  0.1713 -0.1874  0.2782
  487PYPI   C2B 7492   1.395  10.353   9.163 -0.0940 -0.1277  0.2091
  487PYPI   C3B 7493   1.196  10.453   8.670 -0.1938  0.0042  0.0028
  487PYPI   C4B 7494   1.004  10.538   8.393 -0.0681 -0.1054  0.1549
  488PYPI    C1 7495   9.090  17.484  10.489 -0.2036 -0.0743 -0.2945
  488PYPI    C2 7496   8.752  17.513  10.702  0.0366  0.1732  0.0641
  488PYPI    C3 7497   8.895  17.153  10.602 -0.3244  0.0667 -0.0824
  488PYPI   PO4 7498   9.052  17.704  10.352  0.3725  0.0126 -0.1872
  488PYPI   GL1 7499   9.147  17.728  10.005 -0.2402  0.3965 -0.0066
  488PYPI   GL2 7500   9.398  17.870   9.870  0.1009  0.0004  0.1918
  488PYPI   C1A 7501   8.949  17.919   9.667  0.2715  0.0514  0.0579
  488PYPI   C2A 7502   9.036  17.969   9.241 -0.0263  0.2365  0.0224
  488PYPI   D3A 7503   9.170  17.862   8.845 -0.1052  0.0384 -0.0899
  488PYPI   C4A 7504   9.195  18.045   8.473 -0.0990  0.1609  0.1016
  488PYPI   C1B 7505   9.369  17.729   9.492 -0.1444 -0.1959  0.0059
  488PYPI   C2B 7506   9.688  17.663   9.154  0.1007  0.3171 -0.1016
  488PYPI   C3B 7507   9.751  17.983   8.828  0.0384 -0.0398  0.0848
  488PYPI   C4B 7508   9.846  17.908   8.344 -0.0297  0.1543  0.3929
  489PYPI    C1 7509   8.559   6.677  10.293  0.0567  0.0004 -0.3182
  489PYPI    C2 7510   8.384   7.008  10.433  0.0689 -0.1358  0.0307
  489PYPI    C3 7511   8.777   7.006  10.356  0.0183  0.0124 -0.2479
  489PYPI   PO4 7512   8.422   6.579  10.027  0.2138 -0.1513  0.1359
  489PYPI   GL1 7513   8.467   6.452   9.553 -0.5245 -0.0594 -0.1740
  489PYPI   GL2 7514   8.150   6.386   9.580  0.2126  0.1261  0.1679
  489PYPI   C1A 7515   8.436   6.790   9.369  0.2221  0.0222 -0.0097
  489PYPI   C2A 7516   8.784   6.919   9.125 -0.1150  0.1905  0.2185
  489PYPI   D3A 7517   9.022   6.849   8.675  0.0230  0.1027 -0.4306
  489PYPI   C4A 7518   9.151   6.525   8.561 -0.4523  0.3091 -0.0914
  489PYPI   C1B 7519   8.179   6.440   9.172 -0.1792  0.2220  0.1982
  489PYPI   C2B 7520   8.021   6.497   8.762  0.1383  0.0941  0.3187
  489PYPI   C3B 7521   7.886   6.303   8.390  0.2258  0.0827 -0.1654
  489PYPI   C4B 7522   7.617   6.138   8.164  0.1150 -0.2801 -0.0334
  490PYPI    C1 7523  11.116   3.393  10.055  0.1972  0.0926 -0.1497
  490PYPI    C2 7524  11.198   3.133  10.347 -0.1948 -0.1136 -0.2178
  490PYPI    C3 7525  10.995   3.468  10.429 -0.1154 -0.0658 -0.2163
  490PYPI   PO4 7526  11.300   3.229   9.829  0.2244  0.2439 -0.0961
  490PYPI   GL1 7527  11.284   3.356   9.370 -0.2194  0.2708 -0.3176
  490PYPI   GL2 7528  11.646   3.154   9.327  0.1261  0.0806  0.2768
  490PYPI   C1A 7529  11.025   3.350   9.006 -0.2171  0.0567  0.0202
  490PYPI   C2A 7530  11.045   3.480   8.650 -0.0373 -0.0898  0.0041
  490PYPI   D3A 7531  11.101   3.666   8.233  0.0400 -0.2451 -0.0938
  490PYPI   C4A 7532  10.893   3.456   8.011 -0.2882  0.0037  0.1348
  490PYPI   C1B 7533  11.542   3.344   8.897  0.1261  0.0496 -0.0472
  490PYPI   C2B 7534  11.451   3.314   8.468 -0.0241 -0.1556  0.1514
  490PYPI   C3B 7535  11.537   3.328   8.084 -0.0538  0.2297 -0.0454
  490PYPI   C4B 7536  11.686   3.198   7.758  0.1688 -0.2138 -0.0868
  491PYPI    C1 7537  11.938  10.159  10.213  0.0240  0.1571  0.1864
  491PYPI    C2 7538  11.929   9.769  10.302 -0.2985  0.0692 -0.2022
  491PYPI    C3 7539  11.591   9.984  10.309 -0.1637  0.2845 -0.2337
  491PYPI   PO4 7540  12.124  10.214   9.959 -0.0259 -0.0364 -0.0725
  491PYPI   GL1 7541  12.315  10.576   9.631  0.0071 -0.0594  0.1489
  491PYPI   GL2 7542  12.056  10.388   9.467 -0.1387  0.3286 -0.0111
  491PYPI   C1A 7543  12.441  10.823   9.295 -0.2596  0.0807  0.0836
  491PYPI   C2A 7544  12.218  11.211   9.123  0.1284  0.0190 -0.0219
  491PYPI   D3A 7545  11.872  11.352   9.280  0.2138 -0.0803  0.1215
  491PYPI   C4A 7546  11.526  11.562   9.060  0.0581  0.0012  0.2361
  491PYPI   C1B 7547  12.205  10.423   9.044  0.2689  0.0093  0.0441
  491PYPI   C2B 7548  12.404  10.785   8.774 -0.3175 -0.2740 -0.1219
  491PYPI   C3B 7549  12.499  11.184   8.727 -0.0140  0.0969  0.0105
  491PYPI   C4B 7550  12.886  11.408   8.592  0.0704 -0.0755 -0.0060
  492PYPI    C1 7551  16.500  13.562  10.337 -0.1554  0.2825  0.1265
  492PYPI    C2 7552  16.372  13.637  10.709 -0.0779 -0.0099  0.2150
  492PYPI    C3 7553  16.756  13.547  10.645 -0.1220 -0.1088  0.0845
  492PYPI   PO4 7554  16.463  13.697  10.130  0.3865 -0.0732 -0.3713
  492PYPI   GL1 7555  16.600  14.067   9.929  0.0656 -0.1423 -0.0968
  492PYPI   GL2 7556  16.329  14.025   9.704  0.0670  0.1970 -0.2352
  492PYPI   C1A 7557  16.801  14.199   9.559  0.2227 -0.3178  0.0595
  492PYPI   C2A 7558  16.939  14.475   9.171  0.1555  0.2156 -0.2693
  492PYPI   D3A 7559  17.214  14.383   8.796  0.1740  0.0104  0.1539
  492PYPI   C4A 7560  17.566  14.704   8.653 -0.0454  0.1726 -0.1715
  492PYPI   C1B 7561  16.315  14.108   9.363  0.0542  0.0064  0.1489
  492PYPI   C2B 7562  16.214  14.236   8.873 -0.1612 -0.2317 -0.1061
  492PYPI   C3B 7563  16.289  14.372   8.446  0.0703 -0.0136 -0.1464
  492PYPI   C4B 7564  16.514  14.488   8.166 -0.0191 -0.3223  0.2794
  493PYPI    C1 7565  15.202   9.685  10.230  0.0536 -0.1492 -0.1552
  493PYPI    C2 7566  14.866   9.469  10.257 -0.0636  0.0514  0.0195
  493PYPI    C3 7567  14.911   9.798  10.480  0.2786 -0.0107  0.0481
  493PYPI   PO4 7568  15.247   9.595   9.984 -0.2112 -0.0253 -0.3755
  493PYPI   GL1 7569  15.347   9.609   9.550  0.5781 -0.0366 -0.0878
  493PYPI   GL2 7570  15.059   9.415   9.344 -0.0735 -0.0825 -0.1948
  493PYPI   C1A 7571  15.505   9.527   9.111 -0.0797 -0.0285  0.6274
  493PYPI   C2A 7572  15.510   9.616   8.690 -0.0491 -0.1904 -0.2626
  493PYPI   D3A 7573  15.543   9.750   8.329  0.0606  0.1940  0.2883
  493PYPI   C4A 7574  15.575   9.409   8.076  0.0343  0.2071  0.3531
  493PYPI   C1B 7575  15.057   9.619   8.947 -0.0793 -0.0231  0.0732
  493PYPI   C2B 7576  15.015   9.706   8.565  0.3255  0.1372 -0.0257
  493PYPI   C3B 7577  14.898   9.748   8.126 -0.0516  0.0276  0.0393
  493PYPI   C4B 7578  14.714   9.908   7.697  0.1675  0.0919 -0.1423
  494PYPI    C1 7579   6.780   3.633  10.478 -0.0406 -0.1509  0.1558
  494PYPI    C2 7580   6.747   3.665  10.875 -0.0804  0.2093  0.1272
  494PYPI    C3 7581   6.523   3.896  10.637 -0.2217 -0.1630 -0.1101
  494PYPI   PO4 7582   6.752   3.353  10.431 -0.1253  0.2947  0.1916
  494PYPI   GL1 7583   6.829   3.076  10.169  0.1931  0.2604  0.1473
  494PYPI   GL2 7584   6.915   3.208   9.946  0.2145  0.1808  0.2078
  494PYPI   C1A 7585   6.655   2.806   9.753  0.0267  0.2955 -0.0947
  494PYPI   C2A 7586   6.674   2.637   9.312  0.1672  0.4327 -0.1550
  494PYPI   D3A 7587   6.666   2.629   8.862 -0.0730 -0.0086  0.1039
  494PYPI   C4A 7588   6.690   2.747   8.353 -0.2287 -0.2060  0.1940
  494PYPI   C1B 7589   7.122   3.275   9.571  0.0186 -0.0327  0.2779
  494PYPI   C2B 7590   7.036   3.014   9.224  0.1057  0.0494  0.0268
  494PYPI   C3B 7591   6.930   3.039   8.773 -0.0477  0.0353  0.0382
  494PYPI   C4B 7592   6.865   3.332   8.468  0.1917  0.0632 -0.2282
  495PYPI    C1 7593  13.661   2.413  10.384  0.1991 -0.1196 -0.0150
  495PYPI    C2 7594  13.923   2.218  10.617  0.0422 -0.1833  0.1101
  495PYPI    C3 7595  13.534   2.219  10.710  0.0507  0.2684  0.1637
  495PYPI   PO4 7596  13.690   2.326  10.184 -0.1691  0.0501 -0.0496
  495PYPI   GL1 7597  13.710   2.187   9.812  0.3252  0.1743 -0.2161
  495PYPI   GL2 7598  13.408   2.112   9.671 -0.1532 -0.1370 -0.2007
  495PYPI   C1A 7599  13.968   2.153   9.356 -0.1968  0.1760 -0.0720
  495PYPI   C2A 7600  14.204   2.147   8.926  0.0868 -0.2029  0.0752
  495PYPI   D3A 7601  14.164   2.145   8.561 -0.1775 -0.3140  0.5472
  495PYPI   C4A 7602  14.016   2.345   8.296 -0.1656 -0.1419 -0.1799
  495PYPI   C1B 7603  13.512   1.848   9.294 -0.0814 -0.3112 -0.4111
  495PYPI   C2B 7604  13.414   1.615   8.951 -0.0916  0.1252 -0.3494
  495PYPI   C3B 7605  13.233   1.737   8.458  0.0237 -0.0432  0.1647
  495PYPI   C4B 7606  12.925   1.713   8.112 -0.1328  0.2051 -0.1188
  496PYPI    C1 7607   3.724   3.456  10.587  0.0410  0.0197 -0.1094
  496PYPI    C2 7608   3.585   3.831  10.609 -0.3684 -0.1277 -0.0897
  496PYPI    C3 7609   3.562   3.590  10.928  0.3517 -0.0235  0.0582
  496PYPI   PO4 7610   3.616   3.244  10.370 -0.2158 -0.1716 -0.1400
  496PYPI   GL1 7611   3.377   3.525   9.998  0.1692  0.0431 -0.0527
  496PYPI   GL2 7612   3.502   3.841   9.909  0.0768  0.1493 -0.2188
  496PYPI   C1A 7613   3.301   3.250   9.589  0.0891 -0.2478 -0.2090
  496PYPI   C2A 7614   3.023   3.066   9.342 -0.0965 -0.0631  0.2053
  496PYPI   D3A 7615   3.089   2.805   8.995  0.1007 -0.0292 -0.0829
  496PYPI   C4A 7616   2.943   2.755   8.551  0.0876  0.1671 -0.1114
  496PYPI   C1B 7617   3.405   3.863   9.560  0.2856 -0.1282  0.0479
  496PYPI   C2B 7618   3.409   3.592   9.206 -0.0669  0.0163 -0.0497
  496PYPI   C3B 7619   3.180   3.408   8.891  0.2147  0.0550  0.1130
  496PYPI   C4B 7620   2.829   3.387   8.601 -0.0219 -0.1850  0.1271
  497PYPI    C1 7621  17.106   9.174  10.204 -0.1578 -0.0181 -0.1083
  497PYPI    C2 7622  17.174   9.568  10.187 -0.0345 -0.0243  0.1910
  497PYPI    C3 7623  16.867   9.428  10.400 -0.2321 -0.0771 -0.1224
  497PYPI   PO4 7624  17.129   9.035   9.972  0.0678  0.1716  0.1890
  497PYPI   GL1 7625  17.411   8.890   9.624  0.1297 -0.0493  0.2836
  497PYPI   GL2 7626  17.444   8.591   9.730  0.2224 -0.1754  0.0194
  497PYPI   C1A 7627  17.463   8.988   9.223  0.0345  0.1122  0.3155
  497PYPI   C2A 7628  17.195   8.946   8.851  0.1111  0.0230 -0.2026
  497PYPI   D3A 7629  16.854   9.051   8.583  0.1902  0.0895 -0.1873
  497PYPI   C4A 7630  16.801   8.952   8.157 -0.2411  0.0374 -0.1340
  497PYPI   C1B 7631  17.429   8.399   9.386 -0.0848  0.5265  0.2527
  497PYPI   C2B 7632  17.397   8.488   8.848  0.0499 -0.1696  0.1212
  497PYPI   C3B 7633  17.101   8.469   8.526 -0.3375 -0.0732  0.2600
  497PYPI   C4B 7634  16.984   8.428   8.047 -0.2155  0.0178  0.2087
  498PYPI    C1 7635  10.908  13.566   9.872  0.0138  0.2756  0.1257
  498PYPI    C2 7636  10.824  13.798  10.187 -0.1796  0.0119  0.2715
  498PYPI    C3 7637  10.531  13.597  10.003 -0.0198 -0.0899  0.1251
  498PYPI   PO4 7638  11.112  13.732   9.735 -0.0022 -0.0445 -0.2688
  498PYPI   GL1 7639  11.210  14.035   9.486  0.0957 -0.0582  0.0683
  498PYPI   GL2 7640  11.338  14.360   9.487 -0.0912 -0.0284 -0.0550
  498PYPI   C1A 7641  11.224  13.756   9.072  0.2941  0.2360 -0.1607
  498PYPI   C2A 7642  11.235  13.432   8.751  0.3467  0.1048 -0.1519
  498PYPI   D3A 7643  11.479  13.158   8.707 -0.1017 -0.1534  0.0930
  498PYPI   C4A 7644  11.492  12.923   8.282  0.0718 -0.0002 -0.2668
  498PYPI   C1B 7645  11.399  14.190   9.018 -0.2430 -0.1992  0.0418
  498PYPI   C2B 7646  11.328  13.977   8.665  0.1180  0.1726 -0.3761
  498PYPI   C3B 7647  11.471  13.903   8.225 -0.1397 -0.1072  0.0840
  498PYPI   C4B 7648  11.687  13.730   7.830 -0.0555  0.1634  0.0579
  499PYPI    C1 7649   0.789  10.959  10.713 -0.0770  0.1698  0.0102
  499PYPI    C2 7650   0.947  11.256  10.930 -0.1777  0.0979  0.1850
  499PYPI    C3 7651   0.705  10.990  11.103 -0.2507  0.0322 -0.0152
  499PYPI   PO4 7652   0.703  11.061  10.473  0.2466  0.1703 -0.1306
  499PYPI   GL1 7653   0.601  11.040  10.054  0.1599 -0.0916 -0.0351
  499PYPI   GL2 7654   0.480  11.273   9.884 -0.0322 -0.1694 -0.0174
  499PYPI   C1A 7655   0.505  10.690   9.726  0.2111  0.2565 -0.1680
  499PYPI   C2A 7656   0.435  10.558   9.317 -0.1468  0.0711  0.0247
  499PYPI   D3A 7657   0.540  10.636   8.841 -0.3299 -0.1898 -0.1708
  499PYPI   C4A 7658   0.157  10.747   8.638  0.1713  0.1063 -0.2565
  499PYPI   C1B 7659   0.278  11.099   9.512  0.0103  0.1637  0.1498
  499PYPI   C2B 7660   0.180  11.096   9.125  0.2339 -0.1050 -0.1265
  499PYPI   C3B 7661  -0.096  11.175   8.725  0.1240 -0.2031 -0.0307
  499PYPI   C4B 7662  -0.521  11.214   8.548 -0.2330  0.0407  0.2802
  500PYPI    C1 7663  10.372  14.083  10.230  0.0664  0.2152 -0.0676
  500PYPI    C2 7664  10.032  13.905  10.344  0.0716  0.2743  0.0412
  500PYPI    C3 7665  10.383  13.782  10.492  0.1170  0.0875 -0.2149
  500PYPI   PO4 7666  10.429  14.111  10.037 -0.1239 -0.0104 -0.0014
  500PYPI   GL1 7667  10.304  13.923   9.642  0.0383  0.0260  0.0131
  500PYPI   GL2 7668  10.607  13.899   9.607  0.1004 -0.3108  0.0805
  500PYPI   C1A 7669  10.064  13.786   9.238 -0.0948 -0.0812  0.3037
  500PYPI   C2A 7670   9.830  13.681   8.784 -0.1292 -0.1290 -0.0334
  500PYPI   D3A 7671  10.007  13.986   8.451  0.1580 -0.1599 -0.1232
  500PYPI   C4A 7672   9.875  14.040   8.070  0.0762  0.1145 -0.1294
  500PYPI   C1B 7673  10.561  13.818   9.175 -0.4966 -0.0162 -0.0703
  500PYPI   C2B 7674  10.342  13.867   8.835 -0.0338 -0.1888 -0.2193
  500PYPI   C3B 7675  10.431  13.722   8.533 -0.0362  0.0078 -0.1608
  500PYPI   C4B 7676  10.432  13.578   8.104 -0.0396 -0.3334  0.0068
  501PYPI    C1 7677   6.777  10.262   9.956 -0.0347  0.0564 -0.0383
  501PYPI    C2 7678   7.048  10.386  10.223 -0.1909  0.0451  0.1279
  501PYPI    C3 7679   7.138  10.382   9.833  0.0748 -0.0358  0.1880
  501PYPI   PO4 7680   6.567  10.428   9.959  0.2654  0.0147  0.0498
  501PYPI   GL1 7681   6.384  10.584   9.635 -0.1230  0.0025  0.3678
  501PYPI   GL2 7682   6.568  10.481   9.403 -0.0319 -0.1062 -0.1247
  501PYPI   C1A 7683   6.219  10.870   9.350 -0.3034  0.1897 -0.1722
  501PYPI   C2A 7684   6.339  11.089   8.896 -0.0061  0.0527  0.0584
  501PYPI   D3A 7685   6.369  11.265   8.564 -0.1625 -0.1053 -0.0153
  501PYPI   C4A 7686   6.280  11.474   8.264 -0.1638  0.2963  0.0428
  501PYPI   C1B 7687   6.699  10.581   9.034 -0.0450  0.0117  0.2958
  501PYPI   C2B 7688   6.888  10.606   8.621  0.2987 -0.3058  0.0230
  501PYPI   C3B 7689   7.013  10.746   8.263 -0.2627 -0.2839 -0.3159
  501PYPI   C4B 7690   7.093  10.683   7.899  0.0303  0.1069 -0.2775
  502PYPI    C1 7691  11.693   1.685  10.239  0.0515  0.0064 -0.0857
  502PYPI    C2 7692  11.691   1.312  10.096  0.1527 -0.0247 -0.0077
  502PYPI    C3 7693  11.848   1.386  10.456  0.1357  0.0938 -0.0245
  502PYPI   PO4 7694  11.826   1.798   9.959  0.0755  0.0620 -0.1603
  502PYPI   GL1 7695  11.791   1.944   9.604 -0.1589 -0.3063 -0.0053
  502PYPI   GL2 7696  11.985   2.032   9.435  0.5103 -0.0469  0.0841
  502PYPI   C1A 7697  11.568   1.671   9.248 -0.1002 -0.2929  0.0471
  502PYPI   C2A 7698  11.315   1.757   8.920  0.0567  0.0660 -0.0140
  502PYPI   D3A 7699  11.461   1.728   8.466  0.5320  0.1578 -0.2120
  502PYPI   C4A 7700  11.628   1.681   8.086 -0.0457 -0.0699 -0.2313
  502PYPI   C1B 7701  11.837   2.034   8.989  0.1868  0.0794  0.0594
  502PYPI   C2B 7702  11.879   1.959   8.517 -0.2713 -0.2359 -0.1621
  502PYPI   C3B 7703  12.086   1.966   8.035  0.3326 -0.0862 -0.0010
  502PYPI   C4B 7704  12.374   1.743   7.769 -0.1080  0.1875  0.0023
  503PYPI    C1 7705  12.691   9.923   9.695 -0.0842 -0.1172  0.0325
  503PYPI    C2 7706  12.814   9.933  10.076 -0.3488 -0.1012  0.1197
  503PYPI    C3 7707  12.828   9.590   9.869  0.3091  0.0054 -0.0339
  503PYPI   PO4 7708  12.530  10.045   9.696  0.1894  0.0184 -0.0022
  503PYPI   GL1 7709  12.169   9.887   9.464  0.2826  0.0730  0.1595
  503PYPI   GL2 7710  11.923   9.905   9.306  0.0393  0.1388  0.1582
  503PYPI   C1A 7711  12.322   9.964   8.942  0.0717  0.1114 -0.0811
  503PYPI   C2A 7712  12.328   9.862   8.526  0.0777 -0.2091  0.1183
  503PYPI   D3A 7713  12.260   9.839   8.055 -0.0887 -0.0925 -0.1068
  503PYPI   C4A 7714  12.109  10.187   7.843 -0.1082  0.1051 -0.2167
  503PYPI   C1B 7715  11.863   9.692   9.071  0.0416  0.1498  0.3163
  503PYPI   C2B 7716  11.815   9.602   8.673  0.1105  0.0487  0.0656
  503PYPI   C3B 7717  11.834   9.828   8.317 -0.0474  0.0663 -0.0550
  503PYPI   C4B 7718  11.628   9.829   7.917 -0.0731 -0.0676 -0.0506
  504PYPI    C1 7719  13.983   0.607  10.327 -0.0524  0.1255 -0.0220
  504PYPI    C2 7720  13.859   0.361  10.617  0.2772  0.0389  0.0497
  504PYPI    C3 7721  13.898   0.753  10.689 -0.0529  0.0851 -0.0058
  504PYPI   PO4 7722  14.190   0.590  10.261  0.0562  0.1740  0.0025
  504PYPI   GL1 7723  14.483   0.571   9.899 -0.0384  0.0336  0.0693
  504PYPI   GL2 7724  14.116   0.392   9.786 -0.1988 -0.3346  0.0825
  504PYPI   C1A 7725  14.468   0.790   9.589  0.0279 -0.1896 -0.0754
  504PYPI   C2A 7726  14.443   0.749   9.063 -0.3233 -0.0317 -0.0235
  504PYPI   D3A 7727  14.363   0.652   8.616 -0.1944 -0.3037  0.2701
  504PYPI   C4A 7728  14.155   0.722   8.146 -0.2334 -0.1080  0.1957
  504PYPI   C1B 7729  14.119   0.437   9.413 -0.0652  0.1724  0.0217
  504PYPI   C2B 7730  14.075   0.258   9.103 -0.0554 -0.1418  0.0219
  504PYPI   C3B 7731  14.018   0.227   8.750 -0.1841 -0.6360  0.0113
  504PYPI   C4B 7732  13.966   0.262   8.317  0.0179 -0.1121 -0.1897
  505PYPI    C1 7733  17.901  15.667  10.694 -0.2577  0.1455 -0.2445
  505PYPI    C2 7734  17.694  15.640  11.035 -0.0857  0.0748 -0.1447
  505PYPI    C3 7735  17.937  15.951  10.973  0.1586 -0.0933 -0.0467
  505PYPI   PO4 7736  18.064  15.472  10.588  0.1222 -0.1039  0.3294
  505PYPI   GL1 7737  18.131  15.486  10.174  0.2383 -0.2364 -0.3305
  505PYPI   GL2 7738  17.819  15.779  10.229  0.0262 -0.2939  0.0133
  505PYPI   C1A 7739  18.299  15.749   9.936 -0.0563 -0.0395 -0.2004
  505PYPI   C2A 7740  18.301  15.679   9.425 -0.0935 -0.2174  0.2319
  505PYPI   D3A 7741  18.385  15.739   9.057  0.0041  0.1345  0.2148
  505PYPI   C4A 7742  18.679  15.770   8.908 -0.1239 -0.0482  0.3018
  505PYPI   C1B 7743  17.543  16.137   9.952  0.0363  0.4205  0.3381
  505PYPI   C2B 7744  17.551  16.200   9.469 -0.3579 -0.2103 -0.0508
  505PYPI   C3B 7745  17.580  16.317   8.926  0.0274 -0.1786  0.0259
  505PYPI   C4B 7746  17.740  16.309   8.451 -0.4276  0.1941  0.1879
  506ERGO   ROH 7747   2.383  14.030   9.939  0.3349 -0.2152 -0.0642
  506ERGO    R1 7748   2.290  13.941   9.687  0.0997 -0.1632  0.0020
  506ERGO    R2 7749   2.115  14.089   9.532  0.0478 -0.0770  0.1422
  506ERGO    R3 7750   2.307  14.058   9.342 -0.1115 -0.1584 -0.0085
  506ERGO    R4 7751   2.054  14.059   9.193 -0.2275 -0.0176  0.1838
  506ERGO    R5 7752   2.210  13.906   9.184 -0.3101 -0.0964  0.0510
  506ERGO    C1 7753   2.199  14.012   8.818 -0.5373 -0.0594  0.0666
  506ERGO    C2 7754   2.281  14.195   8.554 -0.0052 -0.1484 -0.2757
  507ERGO   ROH 7755  15.146  14.494   9.815 -0.2185 -0.0755 -0.0880
  507ERGO    R1 7756  15.228  14.702   9.642 -0.2451 -0.0238 -0.0388
  507ERGO    R2 7757  15.448  14.679   9.475 -0.1441  0.1052  0.0761
  507ERGO    R3 7758  15.268  14.747   9.283 -0.0814  0.0086 -0.0174
  507ERGO    R4 7759  15.527  14.828   9.173 -0.0484 -0.0116  0.0424
  507ERGO    R5 7760  15.350  14.953   9.194 -0.0689 -0.0195 -0.0729
  507ERGO    C1 7761  15.404  14.978   8.817  0.0660 -0.1701 -0.0649
  507ERGO    C2 7762  15.229  15.163   8.456 -0.3089 -0.0390 -0.1282
  508ERGO   ROH 7763  11.409   2.751   9.481 -0.0534 -0.1460  0.0061
  508ERGO    R1 7764  11.332   2.744   9.209 -0.1178  0.0906  0.0177
  508ERGO    R2 7765  11.279   2.973   9.064  0.2380  0.2397  0.1239
  508ERGO    R3 7766  11.464   2.870   8.894  0.0346 -0.0036  0.0403
  508ERGO    R4 7767  11.240   2.949   8.721  0.0498  0.3132  0.1377
  508ERGO    R5 7768  11.335   2.753   8.729 -0.2047  0.1742  0.0871
  508ERGO    C1 7769  11.392   2.838   8.362 -0.2507  0.1276  0.0674
  508ERGO    C2 7770  11.531   2.714   8.069  0.1080 -0.0402 -0.3214
  509ERGO   ROH 7771   6.573  14.366   9.858  0.1653  0.0625  0.1156
  509ERGO    R1 7772   6.505  14.334   9.585 -0.0175 -0.0134  0.1689
  509ERGO    R2 7773   6.263  14.417   9.481  0.0019  0.1606  0.2655
  509ERGO    R3 7774   6.421  14.551   9.306  0.0318 -0.0753  0.1043
  509ERGO    R4 7775   6.253  14.381   9.137 -0.1226 -0.1227  0.2950
  509ERGO    R5 7776   6.470  14.392   9.135 -0.1131 -0.2520  0.2206
  509ERGO    C1 7777   6.395  14.487   8.773 -0.1671 -0.5090  0.1608
  509ERGO    C2 7778   6.443  14.477   8.483  0.3323  0.0528  0.3099
  510ERGO   ROH 7779   6.718  10.995   9.312  0.1887  0.1952  0.1953
  510ERGO    R1 7780   6.880  11.117   9.115  0.1239  0.0859  0.0736
  510ERGO    R2 7781   6.889  11.028   8.853 -0.0434  0.0065  0.0960
  510ERGO    R3 7782   6.828  11.287   8.797  0.0113  0.0108  0.0509
  510ERGO    R4 7783   6.886  11.166   8.536 -0.0536 -0.0589  0.0667
  510ERGO    R5 7784   6.977  11.346   8.619  0.0023 -0.0624  0.0171
  510ERGO    C1 7785   6.827  11.489   8.299 -0.0083 -0.0931  0.0073
  510ERGO    C2 7786   6.755  11.453   7.960  0.0212  0.2316 -0.0958
  511ERGO   ROH 7787  13.293  16.184   9.652  0.2266 -0.1199  0.0661
  511ERGO    R1 7788  13.334  16.300   9.397  0.0491  0.0075  0.0941
  511ERGO    R2 7789  13.355  16.149   9.168  0.2055  0.1003  0.0499
  511ERGO    R3 7790  13.156  16.312   9.080 -0.0101 -0.1188  0.1210
  511ERGO    R4 7791  13.253  16.174   8.838  0.3852  0.3204  0.0079
  511ERGO    R5 7792  13.234  16.390   8.867  0.0103  0.2668  0.2596
  511ERGO    C1 7793  13.006  16.342   8.565  0.2875  0.2429  0.0501
  511ERGO    C2 7794  12.842  16.288   8.317 -0.2826  0.1201 -0.2587
  512ERGO   ROH 7795   3.917   9.150   9.613  0.3543  0.0427  0.0353
  512ERGO    R1 7796   3.870   9.075   9.344  0.3125 -0.0863  0.0781
  512ERGO    R2 7797   3.827   9.260   9.143 -0.0432 -0.1886  0.0533
  512ERGO    R3 7798   4.032   9.129   9.023  0.0749  0.0561 -0.0210
  512ERGO    R4 7799   3.893   9.265   8.804 -0.3038 -0.2821 -0.0012
  512ERGO    R5 7800   3.940   9.052   8.815  0.0330 -0.2077  0.0903
  512ERGO    C1 7801   4.124   9.144   8.493 -0.3446 -0.1068 -0.1027
  512ERGO    C2 7802   4.183   9.272   8.243  0.0457  0.0332  0.0234
  513ERGO   ROH 7803   9.099  18.246   9.989  0.0511 -0.2381 -0.1700
  513ERGO    R1 7804   9.043  18.448   9.799  0.1210 -0.0905 -0.0344
  513ERGO    R2 7805   9.047  18.402   9.527 -0.0150  0.0597 -0.0581
  513ERGO    R3 7806   8.796  18.505   9.538  0.0600  0.2368  0.0867
  513ERGO    R4 7807   8.895  18.576   9.271 -0.1352 -0.0905 -0.0913
  513ERGO    R5 7808   8.812  18.713   9.420  0.0958  0.1162 -0.1359
  513ERGO    C1 7809   8.570  18.774   9.131 -0.1347 -0.0116  0.0253
  513ERGO    C2 7810   8.429  18.807   8.777 -0.2187  0.0117 -0.1080
  514ERGO   ROH 7811  11.332  10.053   9.269  0.1875 -0.1751  0.1208
  514ERGO    R1 7812  11.301  10.113   8.994  0.1114 -0.1519  0.1343
  514ERGO    R2 7813  11.419   9.962   8.795  0.1068 -0.0975  0.0914
  514ERGO    R3 7814  11.165   9.946   8.701  0.0910 -0.1536  0.1447
  514ERGO    R4 7815  11.334   9.899   8.466  0.0592  0.1822  0.0474
  514ERGO    R5 7816  11.175  10.047   8.484 -0.0254  0.0725  0.2404
  514ERGO    C1 7817  11.046   9.847   8.186  0.0168  0.2925  0.0717
  514ERGO    C2 7818  11.157   9.703   7.882 -0.0786  0.1331  0.2418
  515ERGO   ROH 7819   8.221   5.059   9.787 -0.0091  0.1454  0.0618
  515ERGO    R1 7820   8.347   5.086   9.535  0.1516  0.2774  0.1545
  515ERGO    R2 7821   8.210   5.058   9.297  0.3761  0.0163  0.0511
  515ERGO    R3 7822   8.315   5.303   9.245  0.0498  0.1679  0.0828
  515ERGO    R4 7823   8.270   5.185   8.981  0.4465  0.0339  0.0706
  515ERGO    R5 7824   8.457   5.269   9.055  0.2628  0.3362  0.2070
  515ERGO    C1 7825   8.403   5.489   8.748  0.1813  0.1864  0.1119
  515ERGO    C2 7826   8.217   5.503   8.455 -0.2533  0.3102  0.2245
  516ERGO   ROH 7827   0.633   0.108   8.540  0.0360 -0.1485 -0.0152
  516ERGO    R1 7828   0.354   0.157   8.550  0.0223 -0.2456  0.1127
  516ERGO    R2 7829   0.232   0.356   8.403 -0.0783 -0.1036  0.3755
  516ERGO    R3 7830   0.076   0.151   8.316 -0.0319 -0.0536  0.1724
  516ERGO    R4 7831  -0.092   0.391   8.289 -0.1064 -0.0754  0.4649
  516ERGO    R5 7832  -0.143   0.207   8.395 -0.0353 -0.2078  0.2682
  516ERGO    C1 7833  -0.428   0.219   8.140 -0.0794 -0.0119  0.3262
  516ERGO    C2 7834  -0.716   0.419   8.001 -0.3659  0.0158 -0.0488
  517ERGO   ROH 7835  12.647  10.349   9.261 -0.0059  0.2735 -0.0304
  517ERGO    R1 7836  12.707  10.411   8.991 -0.3859  0.3668 -0.0966
  517ERGO    R2 7837  12.801  10.222   8.813  0.1827  0.5988 -0.0443
  517ERGO    R3 7838  12.590  10.306   8.663 -0.2271 -0.2158  0.0174
  517ERGO    R4 7839  12.787  10.204   8.468  0.3094  0.7875 -0.0635
  517ERGO    R5 7840  12.692  10.401   8.467 -0.6041  0.4154  0.0890
  517ERGO    C1 7841  12.581  10.271   8.126 -0.0015  0.1327 -0.0167
  517ERGO    C2 7842  12.624  10.159   7.826 -0.1656  0.0322  0.1242
  518ERGO   ROH 7843  13.605   2.674   9.719 -0.0625 -0.1987  0.0568
  518ERGO    R1 7844  13.738   2.604   9.480 -0.0177 -0.2069  0.0846
  518ERGO    R2 7845  13.620   2.449   9.284 -0.0422 -0.0724 -0.0057
  518ERGO    R3 7846  13.687   2.657   9.123  0.1477 -0.0645  0.0807
  518ERGO    R4 7847  13.677   2.427   8.944 -0.1550  0.0297 -0.0324
  518ERGO    R5 7848  13.843   2.565   8.967  0.0076 -0.1634 -0.0050
  518ERGO    C1 7849  13.773   2.610   8.595 -0.0425  0.0966  0.0331
  518ERGO    C2 7850  13.892   2.883   8.298  0.1118 -0.0220 -0.1773
  519ERGO   ROH 7851  14.824   7.882   9.351  0.0902  0.2498 -0.0726
  519ERGO    R1 7852  14.716   8.028   9.134  0.0754  0.0563 -0.1985
  519ERGO    R2 7853  14.850   8.060   8.895  0.0980 -0.0820 -0.2044
  519ERGO    R3 7854  14.621   7.959   8.789  0.1430 -0.2295 -0.1631
  519ERGO    R4 7855  14.766   8.071   8.560  0.0317 -0.1245 -0.1889
  519ERGO    R5 7856  14.560   8.116   8.618  0.0101 -0.2604 -0.1477
  519ERGO    C1 7857  14.501   7.982   8.266  0.0353 -0.2880 -0.1410
  519ERGO    C2 7858  14.492   7.820   7.934 -0.0118  0.0209  0.1363
  520ERGO   ROH 7859  16.371   3.604  10.002  0.1522  0.1946 -0.1634
  520ERGO    R1 7860  16.399   3.526   9.731  0.0548  0.0866 -0.1436
  520ERGO    R2 7861  16.199   3.396   9.593  0.0190 -0.0074 -0.0097
  520ERGO    R3 7862  16.231   3.600   9.417 -0.0874 -0.0728 -0.1062
  520ERGO    R4 7863  16.117   3.383   9.257  0.0916 -0.2294 -0.0201
  520ERGO    R5 7864  16.299   3.494   9.213  0.0233 -0.1274 -0.0397
  520ERGO    C1 7865  16.100   3.567   8.896  0.0340 -0.4201 -0.1166
  520ERGO    C2 7866  16.050   3.775   8.524 -0.0145  0.0716  0.1133
  521ERGO   ROH 7867   8.475  16.511   9.622  0.3137 -0.0915 -0.0839
  521ERGO    R1 7868   8.563  16.513   9.353  0.2106 -0.2714 -0.1222
  521ERGO    R2 7869   8.450  16.353   9.158 -0.1369 -0.1203 -0.0636
  521ERGO    R3 7870   8.418  16.589   9.028  0.1952 -0.0753 -0.0682
  521ERGO    R4 7871   8.422  16.387   8.815 -0.2651 -0.0951 -0.0498
  521ERGO    R5 7872   8.548  16.565   8.828  0.0434 -0.3097 -0.1344
  521ERGO    C1 7873   8.376  16.629   8.493 -0.0281 -0.0385 -0.0462
  521ERGO    C2 7874   8.453  16.613   8.156 -0.1347 -0.2497 -0.2036
  522ERGO   ROH 7875  13.786   0.026   9.654  0.1449 -0.4371  0.1469
  522ERGO    R1 7876  13.777  -0.133   9.421  0.1047 -0.2657  0.0281
  522ERGO    R2 7877  13.551  -0.154   9.263  0.0651 -0.1701  0.0618
  522ERGO    R3 7878  13.722  -0.079   9.065  0.0144 -0.0028  0.0818
  522ERGO    R4 7879  13.511  -0.229   8.928  0.2080 -0.2458  0.0620
  522ERGO    R5 7880  13.726  -0.266   8.916  0.2470 -0.0104  0.1001
  522ERGO    C1 7881  13.648  -0.203   8.547  0.2435 -0.1328  0.0808
  522ERGO    C2 7882  13.645  -0.337   8.293 -0.1266  0.1643  0.4586
  523ERGO   ROH 7883   3.993   5.435   9.643  0.2242  0.2567 -0.0310
  523ERGO    R1 7884   3.905   5.305   9.408  0.0647  0.2096  0.0523
  523ERGO    R2 7885   3.784   5.441   9.199  0.0797  0.1970  0.0331
  523ERGO    R3 7886   3.980   5.323   9.052 -0.0404  0.0115  0.0189
  523ERGO    R4 7887   3.796   5.437   8.854  0.1318  0.3241  0.0336
  523ERGO    R5 7888   3.865   5.230   8.864 -0.1269  0.2314 -0.0388
  523ERGO    C1 7889   3.987   5.325   8.515  0.0493  0.2239  0.0207
  523ERGO    C2 7890   4.163   5.210   8.169  0.0362  0.1557 -0.2054
  524ERGO   ROH 7891  11.731  13.628   9.155 -0.2542  0.1255 -0.0300
  524ERGO    R1 7892  11.687  13.649   8.876 -0.1627 -0.0647 -0.0602
  524ERGO    R2 7893  11.889  13.712   8.698 -0.1783  0.1858  0.0097
  524ERGO    R3 7894  11.808  13.483   8.576  0.2459 -0.0026  0.0627
  524ERGO    R4 7895  11.963  13.624   8.372 -0.1752  0.3492 -0.0345
  524ERGO    R5 7896  11.760  13.549   8.351 -0.0350 -0.1000  0.0883
  524ERGO    C1 7897  11.930  13.358   8.068  0.2249  0.2676 -0.0105
  524ERGO    C2 7898  12.142  13.324   7.915 -0.1730 -0.3628  0.2630
  525ERGO   ROH 7899   2.237   9.003   9.929  0.0132  0.1822  0.0077
  525ERGO    R1 7900   2.142   9.139   9.699 -0.2785 -0.1044 -0.0456
  525ERGO    R2 7901   2.306   9.205   9.487 -0.3976  0.2283 -0.0277
  525ERGO    R3 7902   2.119   9.071   9.342 -0.0619 -0.2604 -0.0349
  525ERGO    R4 7903   2.272   9.222   9.143 -0.5065  0.2809 -0.0160
  525ERGO    R5 7904   2.056   9.224   9.170 -0.5357 -0.3458  0.0373
  525ERGO    C1 7905   2.077   9.106   8.808 -0.2548 -0.1474 -0.0160
  525ERGO    C2 7906   2.164   8.973   8.534 -0.0554 -0.3165 -0.0354
  526ERGO   ROH 7907   4.881  15.842  10.256 -0.0641 -0.0075  0.1872
  526ERGO    R1 7908   4.720  15.681  10.088 -0.0487  0.0350  0.1316
  526ERGO    R2 7909   4.734  15.692   9.813  0.0359  0.0457  0.1369
  526ERGO    R3 7910   4.775  15.424   9.836 -0.0286  0.0353  0.1355
  526ERGO    R4 7911   4.763  15.473   9.547  0.2229  0.0774  0.1295
  526ERGO    R5 7912   4.644  15.329   9.659  0.1026  0.0814  0.0111
  526ERGO    C1 7913   4.818  15.094   9.414  0.2712  0.0860  0.1239
  526ERGO    C2 7914   4.862  14.797   9.236 -0.3774 -0.0075  0.0110
  527ERGO   ROH 7915  17.770   2.320  10.199 -0.2364 -0.0025 -0.0807
  527ERGO    R1 7916  17.796   2.398   9.928 -0.1399 -0.0508 -0.0854
  527ERGO    R2 7917  17.989   2.293   9.761 -0.1153 -0.1205 -0.0115
  527ERGO    R3 7918  17.775   2.234   9.604 -0.0822 -0.0967 -0.0662
  527ERGO    R4 7919  17.998   2.272   9.416 -0.0267 -0.1403 -0.0086
  527ERGO    R5 7920  17.805   2.373   9.410 -0.0101 -0.1113 -0.0660
  527ERGO    C1 7921  17.803   2.206   9.067  0.0558 -0.1295 -0.0584
  527ERGO    C2 7922  17.945   2.038   8.735  0.0727 -0.4334  0.0792
  528ERGO   ROH 7923   3.644   2.943   9.905 -0.1284 -0.1044  0.0521
  528ERGO    R1 7924   3.515   2.721   9.785  0.0668 -0.1402 -0.0988
  528ERGO    R2 7925   3.277   2.745   9.646 -0.0724 -0.2841  0.1023
  528ERGO    R3 7926   3.418   2.621   9.449 -0.0507  0.1161 -0.1427
  528ERGO    R4 7927   3.144   2.521   9.418  0.1062 -0.4323  0.1417
  528ERGO    R5 7928   3.325   2.401   9.438  0.3874 -0.0776 -0.1480
  528ERGO    C1 7929   3.199   2.276   9.100  0.2306 -0.1427 -0.0653
  528ERGO    C2 7930   2.998   2.203   8.830  0.1095  0.0025 -0.1107
  529ERGO   ROH 7931   3.118   7.448   9.780 -0.0824 -0.2867 -0.0494
  529ERGO    R1 7932   3.071   7.497   9.505 -0.1195 -0.0591 -0.0052
  529ERGO    R2 7933   3.162   7.329   9.306  0.0613  0.2276 -0.1760
  529ERGO    R3 7934   2.901   7.327   9.232  0.0639  0.0375 -0.1809
  529ERGO    R4 7935   3.050   7.313   8.980  0.0742  0.0826 -0.1730
  529ERGO    R5 7936   2.895   7.458   9.031 -0.0219 -0.0107 -0.2078
  529ERGO    C1 7937   2.739   7.301   8.720  0.0841 -0.1803 -0.1758
  529ERGO    C2 7938   2.557   7.062   8.464 -0.0311  0.0377 -0.1250
  530ERGO   ROH 7939   6.867  18.164  10.301  0.0167  0.0007 -0.1166
  530ERGO    R1 7940   6.729  18.298  10.093  0.0537  0.0526 -0.1080
  530ERGO    R2 7941   6.850  18.484   9.929  0.1238 -0.0227 -0.1410
  530ERGO    R3 7942   6.755  18.323   9.731  0.0141  0.0083 -0.1144
  530ERGO    R4 7943   6.888  18.544   9.590 -0.0951  0.0518 -0.1539
  530ERGO    R5 7944   6.683  18.475   9.560 -0.1091  0.0377 -0.0384
  530ERGO    C1 7945   6.821  18.428   9.208 -0.3255  0.1243 -0.1365
  530ERGO    C2 7946   6.782  18.422   8.882 -0.1964  0.0614 -0.1362
  531ERGO   ROH 7947   2.622  16.397   9.724 -0.2219 -0.1892  0.0224
  531ERGO    R1 7948   2.724  16.410   9.460 -0.1949 -0.1600  0.0337
  531ERGO    R2 7949   2.779  16.649   9.334 -0.2005 -0.1443  0.0575
  531ERGO    R3 7950   3.024  16.537   9.298 -0.1881 -0.1224  0.0766
  531ERGO    R4 7951   2.990  16.718   9.069 -0.1205 -0.0136  0.1544
  531ERGO    R5 7952   3.040  16.506   9.061 -0.1149 -0.0076  0.0669
  531ERGO    C1 7953   3.343  16.653   8.882 -0.0623  0.0829  0.2290
  531ERGO    C2 7954   3.625  16.648   8.716 -0.0325 -0.0246  0.0415
  532ERGO   ROH 7955   9.797  13.173   9.921 -0.0502  0.1236 -0.0230
  532ERGO    R1 7956   9.713  13.232   9.657 -0.0660  0.0227 -0.0409
  532ERGO    R2 7957   9.878  13.355   9.472 -0.0845 -0.0219 -0.0892
  532ERGO    R3 7958   9.814  13.138   9.321 -0.0656 -0.0840 -0.0111
  532ERGO    R4 7959   9.778  13.366   9.142  0.0266 -0.1626 -0.1289
  532ERGO    R5 7960   9.631  13.212   9.185 -0.0102 -0.1212 -0.1060
  532ERGO    C1 7961   9.660  13.170   8.807  0.1091 -0.3029 -0.0788
  532ERGO    C2 7962   9.620  13.296   8.491  0.0287  0.1047  0.1137
  533ERGO   ROH 7963   0.776   5.557   9.855 -0.1271 -0.1832 -0.1038
  533ERGO    R1 7964   0.728   5.615   9.582 -0.4122 -0.3175 -0.0857
  533ERGO    R2 7965   0.930   5.620   9.393 -0.4939  0.2293 -0.1756
  533ERGO    R3 7966   0.768   5.444   9.264 -0.0812 -0.2284 -0.0952
  533ERGO    R4 7967   0.928   5.568   9.052 -0.4485  0.1450 -0.1633
  533ERGO    R5 7968   0.711   5.554   9.060 -0.4255 -0.4169 -0.1066
  533ERGO    C1 7969   0.776   5.371   8.732 -0.0346 -0.3337 -0.0808
  533ERGO    C2 7970   0.747   5.416   8.438 -0.2802 -0.0701 -0.2435
  534ERGO   ROH 7971  15.478  17.350   9.593  0.3248 -0.0319  0.1346
  534ERGO    R1 7972  15.244  17.434   9.457  0.2509  0.0017  0.2789
  534ERGO    R2 7973  15.212  17.691   9.362  0.2662 -0.0140  0.2189
  534ERGO    R3 7974  15.163  17.564   9.127  0.0547 -0.0775  0.2961
  534ERGO    R4 7975  15.148  17.850   9.062  0.4848 -0.0929  0.1292
  534ERGO    R5 7976  14.996  17.699   9.021  0.2516  0.1139  0.2300
  534ERGO    C1 7977  15.064  17.823   8.666  0.4136 -0.1987  0.1494
  534ERGO    C2 7978  15.105  17.746   8.362 -0.3955  0.2278 -0.2704
  535ERGO   ROH 7979  10.444  17.746   9.920  0.0330  0.2757 -0.1353
  535ERGO    R1 7980  10.524  17.838   9.665  0.0875  0.0811 -0.1895
  535ERGO    R2 7981  10.755  17.751   9.541  0.0638 -0.0856 -0.1156
  535ERGO    R3 7982  10.585  17.690   9.338  0.0586 -0.1527 -0.0917
  535ERGO    R4 7983  10.839  17.750   9.205  0.0534 -0.1723 -0.1184
  535ERGO    R5 7984  10.645  17.840   9.162  0.0439 -0.1954 -0.1357
  535ERGO    C1 7985  10.728  17.692   8.820  0.0425 -0.2858 -0.0977
  535ERGO    C2 7986  10.802  17.597   8.476 -0.1248  0.1688 -0.1406
  536ERGO   ROH 7987   5.541  11.989   9.725 -0.3676  0.0502 -0.2254
  536ERGO    R1 7988   5.662  12.024   9.472 -0.1514 -0.0685 -0.1440
  536ERGO    R2 7989   5.678  11.821   9.285 -0.1921 -0.1026 -0.1287
  536ERGO    R3 7990   5.557  12.004   9.124  0.0732  0.0001 -0.2133
  536ERGO    R4 7991   5.641  11.789   8.943 -0.2749 -0.1990 -0.1101
  536ERGO    R5 7992   5.688  12.001   8.923  0.0430 -0.2882 -0.2202
  536ERGO    C1 7993   5.507  11.941   8.592 -0.0741 -0.1586 -0.1787
  536ERGO    C2 7994   5.473  11.970   8.246 -0.0450  0.2542  0.0010
  537ERGO   ROH 7995  11.560  12.643   9.555 -0.0375 -0.1624  0.1399
  537ERGO    R1 7996  11.459  12.558   9.304  0.0463 -0.2007  0.1185
  537ERGO    R2 7997  11.419  12.731   9.093 -0.1014 -0.1896  0.1529
  537ERGO    R3 7998  11.575  12.553   8.960  0.0636 -0.0238  0.1218
  537ERGO    R4 7999  11.410  12.677   8.752  0.1230  0.0281  0.1099
  537ERGO    R5 8000  11.432  12.464   8.790  0.2072  0.0148 -0.0198
  537ERGO    C1 8001  11.552  12.479   8.428  0.4086  0.3106  0.0557
  537ERGO    C2 8002  11.406  12.436   8.111  0.0453  0.0058  0.0479
  538ERGO   ROH 8003  17.290   6.728   9.542 -0.0852  0.1272 -0.0273
  538ERGO    R1 8004  17.425   6.578   9.344 -0.0572  0.0915  0.0181
  538ERGO    R2 8005  17.371   6.605   9.074 -0.0693 -0.0074  0.0077
  538ERGO    R3 8006  17.638   6.649   9.058 -0.0796  0.0466 -0.0089
  538ERGO    R4 8007  17.546   6.651   8.780 -0.0804 -0.0385 -0.0035
  538ERGO    R5 8008  17.707   6.529   8.862 -0.0548  0.0177  0.0204
  538ERGO    C1 8009  17.899   6.719   8.593 -0.0965 -0.0059 -0.0257
  538ERGO    C2 8010  18.196   6.599   8.381 -0.0831  0.0324  0.0183
  539ERGO   ROH 8011   5.443  18.260   9.918 -0.0719 -0.2456 -0.1381
  539ERGO    R1 8012   5.556  18.390   9.693  0.0428 -0.2170 -0.0638
  539ERGO    R2 8013   5.639  18.253   9.468 -0.1153 -0.1591 -0.1532
  539ERGO    R3 8014   5.474  18.427   9.341  0.0537  0.0920 -0.0379
  539ERGO    R4 8015   5.579  18.257   9.127 -0.2726 -0.0232 -0.1256
  539ERGO    R5 8016   5.584  18.474   9.133  0.0245 -0.0211 -0.0849
  539ERGO    C1 8017   5.388  18.423   8.810 -0.2056  0.2917 -0.0013
  539ERGO    C2 8018   5.335  18.640   8.544  0.2706  0.2875 -0.1967
  540ERGO   ROH 8019  17.947   1.250  10.134 -0.1851  0.0427  0.0713
  540ERGO    R1 8020  17.872   1.325   9.872 -0.3284  0.0826  0.1226
  540ERGO    R2 8021  17.904   1.159   9.653 -0.0359  0.2765  0.0097
  540ERGO    R3 8022  17.639   1.206   9.618 -0.1282 -0.1717  0.0553
  540ERGO    R4 8023  17.735   1.123   9.354  0.0349  0.2721 -0.0295
  540ERGO    R5 8024  17.624   1.305   9.401 -0.3024  0.0273  0.1555
  540ERGO    C1 8025  17.388   1.146   9.147 -0.0110 -0.1513 -0.0093
  540ERGO    C2 8026  17.140   0.954   8.891 -0.0415 -0.1269  0.1311
  541ERGO   ROH 8027   5.030  12.915   9.523 -0.0545 -0.1868 -0.2182
  541ERGO    R1 8028   4.915  12.878   9.267 -0.0117 -0.2799 -0.2273
  541ERGO    R2 8029   4.926  13.071   9.069 -0.2868 -0.1967 -0.1861
  541ERGO    R3 8030   5.033  12.868   8.923  0.0052 -0.0165 -0.2268
  541ERGO    R4 8031   4.971  13.075   8.726 -0.5270 -0.1855 -0.2167
  541ERGO    R5 8032   4.906  12.868   8.720 -0.1274 -0.3035 -0.1354
  541ERGO    C1 8033   5.096  12.887   8.390 -0.3927 -0.0099 -0.2729
  541ERGO    C2 8034   5.238  12.976   8.024 -0.0908 -0.1873 -0.0880
  542ERGO   ROH 8035  12.171  15.862   9.180  0.4241  0.2770  0.0814
  542ERGO    R1 8036  12.324  15.933   8.953  0.2201  0.2217 -0.0776
  542ERGO    R2 8037  12.330  15.779   8.723  0.0726  0.1218 -0.0218
  542ERGO    R3 8038  12.258  16.013   8.604 -0.0921  0.0528 -0.0592
  542ERGO    R4 8039  12.319  15.832   8.382  0.2041  0.1237 -0.0259
  542ERGO    R5 8040  12.403  16.030   8.414 -0.0100  0.2023  0.0216
  542ERGO    C1 8041  12.245  16.082   8.071  0.1261  0.0601 -0.0633
  542ERGO    C2 8042  12.079  16.064   7.762  0.1547 -0.0624 -0.0164
  543ERGO   ROH 8043   6.440  16.853   9.883 -0.0609 -0.0185 -0.0195
  543ERGO    R1 8044   6.285  16.934   9.661  0.1276  0.1259 -0.1015
  543ERGO    R2 8045   6.398  17.029   9.427  0.3516 -0.2236 -0.1442
  543ERGO    R3 8046   6.247  16.833   9.314  0.0154 -0.0302 -0.0443
  543ERGO    R4 8047   6.284  17.030   9.101  0.1938 -0.1166 -0.0898
  543ERGO    R5 8048   6.094  16.950   9.171  0.1108  0.1638  0.0115
  543ERGO    C1 8049   6.076  16.847   8.805 -0.2137  0.1273  0.0355
  543ERGO    C2 8050   5.824  16.813   8.591  0.0312 -0.0984 -0.0801
  544ERGO   ROH 8051   5.502  17.445   9.905  0.2428  0.0281 -0.3064
  544ERGO    R1 8052   5.357  17.385   9.670  0.1196  0.0688 -0.2425
  544ERGO    R2 8053   5.082  17.396   9.658  0.1025 -0.0411 -0.0648
  544ERGO    R3 8054   5.129  17.561   9.448 -0.0952  0.0719 -0.0221
  544ERGO    R4 8055   4.924  17.373   9.352  0.2337 -0.2403 -0.1191
  544ERGO    R5 8056   5.115  17.417   9.256  0.1949  0.0821 -0.0514
  544ERGO    C1 8057   4.876  17.515   8.975  0.1244 -0.2501 -0.1105
  544ERGO    C2 8058   4.533  17.519   8.817  0.3057  0.1327  0.2163
  545ERGO   ROH 8059  16.062   6.262   9.555 -0.2597  0.0046 -0.1596
  545ERGO    R1 8060  15.939   6.171   9.317 -0.2229 -0.1549 -0.1180
  545ERGO    R2 8061  16.071   6.162   9.074 -0.2968  0.0294 -0.1646
  545ERGO    R3 8062  15.994   5.902   9.078  0.0522 -0.0782 -0.1443
  545ERGO    R4 8063  16.070   5.953   8.800 -0.2346  0.0703 -0.1968
  545ERGO    R5 8064  15.880   5.871   8.869 -0.0725 -0.1946 -0.0595
  545ERGO    C1 8065  15.996   5.586   8.643  0.1293 -0.0068 -0.1965
  545ERGO    C2 8066  15.822   5.241   8.560 -0.0187 -0.0204 -0.1154
  546ERGO   ROH 8067   9.493  14.447   9.809  0.0993 -0.0589 -0.1074
  546ERGO    R1 8068   9.405  14.362   9.554  0.1277 -0.0451 -0.1220
  546ERGO    R2 8069   9.172  14.457   9.438  0.0181 -0.2097 -0.0433
  546ERGO    R3 8070   9.339  14.518   9.232 -0.0726  0.0168 -0.0527
  546ERGO    R4 8071   9.073  14.513   9.111 -0.0904 -0.1863 -0.0066
  546ERGO    R5 8072   9.248  14.402   9.044  0.0012 -0.0025 -0.0766
  546ERGO    C1 8073   9.172  14.602   8.728 -0.2387  0.0401  0.0058
  546ERGO    C2 8074   9.080  14.618   8.375 -0.1273  0.0948  0.0683
  547ERGO   ROH 8075  10.149   1.866   9.076  0.0849  0.0219  0.1272
  547ERGO    R1 8076  10.166   1.875   8.793  0.1315  0.1496  0.1322
  547ERGO    R2 8077  10.399   1.818   8.656  0.1453  0.1681  0.1403
  547ERGO    R3 8078  10.241   1.639   8.526  0.1302  0.2578  0.0370
  547ERGO    R4 8079  10.465   1.689   8.343  0.3698 -0.0012  0.2549
  547ERGO    R5 8080  10.252   1.707   8.296  0.4332  0.1654  0.0223
  547ERGO    C1 8081  10.354   1.446   8.037  0.4864 -0.0156  0.2246
  547ERGO    C2 8082  10.220   1.211   7.864 -0.3212 -0.0037  0.1749
  548ERGO   ROH 8083   5.988   0.398  10.194 -0.1005  0.2418  0.0745
  548ERGO    R1 8084   5.839   0.388   9.953 -0.0697  0.0137  0.0661
  548ERGO    R2 8085   5.836   0.597   9.771 -0.1112 -0.1355 -0.0828
  548ERGO    R3 8086   5.912   0.402   9.597 -0.0446 -0.2389  0.0545
  548ERGO    R4 8087   5.833   0.626   9.427  0.0204 -0.2989 -0.1018
  548ERGO    R5 8088   5.759   0.422   9.414  0.0124 -0.3202 -0.0196
  548ERGO    C1 8089   5.902   0.460   9.063  0.1596 -0.4911  0.0160
  548ERGO    C2 8090   5.767   0.532   8.820  0.1529  0.1434  0.0164
  549ERGO   ROH 8091   9.312   9.193   9.589 -0.2230 -0.0222  0.1294
  549ERGO    R1 8092   9.283   8.998   9.386 -0.0116  0.0298  0.0460
  549ERGO    R2 8093   9.045   8.865   9.341  0.0972 -0.1242 -0.0891
  549ERGO    R3 8094   9.080   8.956   9.087  0.1246 -0.0055 -0.0425
  549ERGO    R4 8095   8.937   8.703   9.055 -0.0330  0.0952 -0.1664
  549ERGO    R5 8096   9.123   8.760   8.958 -0.0082  0.0366 -0.1549
  549ERGO    C1 8097   8.907   8.694   8.651 -0.0831  0.3343 -0.1676
  549ERGO    C2 8098   8.699   8.581   8.334  0.1700  0.0117  0.2047
  550ERGO   ROH 8099  15.761   4.813   9.860  0.1475  0.1982 -0.0266
  550ERGO    R1 8100  15.678   4.733   9.601  0.2353  0.0649 -0.0145
  550ERGO    R2 8101  15.437   4.813   9.491  0.1233 -0.2582 -0.0087
  550ERGO    R3 8102  15.595   4.899   9.288  0.0010 -0.0697 -0.0267
  550ERGO    R4 8103  15.327   4.887   9.172 -0.0139 -0.3311  0.0206
  550ERGO    R5 8104  15.506   4.793   9.093  0.0726 -0.1395 -0.0237
  550ERGO    C1 8105  15.411   5.012   8.796 -0.2085 -0.1965  0.0206
  550ERGO    C2 8106  15.364   4.967   8.570  0.3313 -0.0837 -0.0520
  551ERGO   ROH 8107  15.859  13.761   9.807  0.3709 -0.1324  0.0368
  551ERGO    R1 8108  15.906  13.782   9.529  0.2184 -0.1325  0.0104
  551ERGO    R2 8109  15.761  13.639   9.342  0.0555 -0.0643  0.0840
  551ERGO    R3 8110  15.716  13.885   9.236  0.0884 -0.0404  0.1251
  551ERGO    R4 8111  15.815  13.723   9.011 -0.1359 -0.0797  0.0479
  551ERGO    R5 8112  15.895  13.914   9.079 -0.0045 -0.1148  0.0014
  551ERGO    C1 8113  15.804  14.003   8.719 -0.2165 -0.0662  0.0653
  551ERGO    C2 8114  15.860  14.174   8.404 -0.0849  0.3636  0.2169
  552ERGO   ROH 8115   0.295  12.573   9.768  0.1580 -0.1486  0.0723
  552ERGO    R1 8116   0.244  12.505   9.498  0.2073 -0.2363  0.0849
  552ERGO    R2 8117   0.165  12.691   9.310 -0.0349 -0.3462  0.0745
  552ERGO    R3 8118   0.380  12.596   9.173  0.0650 -0.1080  0.0603
  552ERGO    R4 8119   0.199  12.696   8.966  0.0368 -0.1088  0.0832
  552ERGO    R5 8120   0.286  12.497   8.976  0.1781 -0.0546 -0.0218
  552ERGO    C1 8121   0.420  12.610   8.637  0.1722  0.2530  0.0749
  552ERGO    C2 8122   0.571  12.748   8.388  0.0717  0.1497 -0.2367
  553ERGO   ROH 8123   3.624   6.046   9.478 -0.1018  0.2763  0.1873
  553ERGO    R1 8124   3.479   6.168   9.267 -0.0531  0.3520  0.1971
  553ERGO    R2 8125   3.552   6.412   9.158  0.3100  0.1312 -0.0793
  553ERGO    R3 8126   3.549   6.272   8.925 -0.1334 -0.0801  0.0426
  553ERGO    R4 8127   3.374   6.502   8.877  0.1423  0.1344  0.0268
  553ERGO    R5 8128   3.323   6.292   8.847 -0.1936  0.1722  0.2641
  553ERGO    C1 8129   3.267   6.424   8.494 -0.3717 -0.0622  0.2031
  553ERGO    C2 8130   3.175   6.415   8.245 -0.4750 -0.2266 -0.0261
  554ERGO   ROH 8131  18.013   5.210   9.721  0.0153  0.0570  0.0684
  554ERGO    R1 8132  18.116   5.279   9.466 -0.0485 -0.0982 -0.0013
  554ERGO    R2 8133  18.263   5.102   9.312 -0.1032 -0.2018  0.0572
  554ERGO    R3 8134  18.076   5.161   9.124 -0.1538 -0.2953  0.0787
  554ERGO    R4 8135  18.308   5.071   8.971 -0.0428  0.0676  0.0386
  554ERGO    R5 8136  18.200   5.258   8.944 -0.2517 -0.0395  0.1488
  554ERGO    C1 8137  18.159   5.108   8.596 -0.0550  0.1367  0.0479
  554ERGO    C2 8138  18.253   5.038   8.251 -0.0442 -0.1054 -0.1558
  555ERGO   ROH 8139   6.058  12.075   9.835 -0.0043 -0.1327 -0.0029
  555ERGO    R1 8140   6.195  12.052   9.588  0.0954 -0.1706  0.0552
  555ERGO    R2 8141   6.150  11.845   9.412  0.0249 -0.0947 -0.0177
  555ERGO    R3 8142   6.105  12.047   9.236  0.2551 -0.0155  0.0111
  555ERGO    R4 8143   6.116  11.804   9.070 -0.2275 -0.0368 -0.0015
  555ERGO    R5 8144   6.234  11.986   9.042  0.0550 -0.2226 -0.0607
  555ERGO    C1 8145   6.054  11.970   8.706 -0.1584  0.0713  0.0350
  555ERGO    C2 8146   6.021  11.914   8.384 -0.1940 -0.1471 -0.0018
  556ERGO   ROH 8147  14.845   0.886   9.923  0.1822  0.0761  0.0413
  556ERGO    R1 8148  14.963   0.894   9.665  0.1502  0.0654  0.0254
  556ERGO    R2 8149  15.016   0.666   9.519  0.1882  0.0542  0.0513
  556ERGO    R3 8150  14.869   0.792   9.328  0.1336 -0.0089  0.0527
  556ERGO    R4 8151  14.999   0.569   9.188  0.2611  0.0709  0.0436
  556ERGO    R5 8152  15.005   0.780   9.131  0.1525  0.0785  0.0610
  556ERGO    C1 8153  14.851   0.631   8.816  0.2524  0.0214  0.0403
  556ERGO    C2 8154  14.908   0.477   8.472 -0.2792  0.1001 -0.1676
  557ERGO   ROH 8155   8.986  16.731   9.707 -0.0152  0.0171  0.0277
  557ERGO    R1 8156   9.025  16.821   9.442  0.0432 -0.0326  0.0188
  557ERGO    R2 8157   9.104  16.653   9.238 -0.0812 -0.1085  0.0298
  557ERGO    R3 8158   8.882  16.750   9.115 -0.0171  0.0404  0.0294
  557ERGO    R4 8159   9.066  16.682   8.896 -0.0997 -0.1678  0.0270
  557ERGO    R5 8160   8.968  16.874   8.928  0.0615 -0.0790 -0.0134
  557ERGO    C1 8161   8.835  16.789   8.581 -0.0503 -0.0623  0.0249
  557ERGO    C2 8162   8.866  16.896   8.227  0.0707 -0.3288 -0.1694
  558ERGO   ROH 8163  13.650   0.544   9.527  0.0611  0.2072 -0.0980
  558ERGO    R1 8164  13.628   0.345   9.327  0.1270  0.0874  0.0138
  558ERGO    R2 8165  13.405   0.319   9.166  0.1077 -0.1241  0.0812
  558ERGO    R3 8166  13.587   0.338   8.965  0.0484 -0.1328  0.0244
  558ERGO    R4 8167  13.331   0.295   8.830 -0.0454  0.1490  0.0907
  558ERGO    R5 8168  13.513   0.179   8.803 -0.1388  0.0231 -0.0531
  558ERGO    C1 8169  13.459   0.298   8.445 -0.1901  0.2999  0.0430
  558ERGO    C2 8170  13.453   0.491   8.212 -0.4707  0.1387  0.0061
  559ERGO   ROH 8171   6.842  12.508   9.742  0.0198  0.0206 -0.0005
  559ERGO    R1 8172   6.792  12.486   9.464 -0.0163  0.1583 -0.0063
  559ERGO    R2 8173   6.785  12.705   9.296  0.0977  0.2317  0.0774
  559ERGO    R3 8174   6.970  12.564   9.156  0.0058  0.1763  0.0122
  559ERGO    R4 8175   6.861  12.756   8.963  0.0218  0.2253  0.0596
  559ERGO    R5 8176   6.874  12.540   8.938 -0.0629  0.2257  0.0395
  559ERGO    C1 8177   7.079  12.653   8.637 -0.1086  0.1693 -0.0120
  559ERGO    C2 8178   7.157  12.800   8.348 -0.1555  0.0293 -0.0685
  560ERGO   ROH 8179  11.459   5.071   9.670 -0.0950  0.1257  0.0490
  560ERGO    R1 8180  11.479   5.325   9.548 -0.1820  0.0948 -0.0298
  560ERGO    R2 8181  11.663   5.380   9.350 -0.0553  0.1548  0.1066
  560ERGO    R3 8182  11.443   5.461   9.212  0.0004 -0.0584 -0.1143
  560ERGO    R4 8183  11.670   5.557   9.053  0.0845  0.3630  0.2310
  560ERGO    R5 8184  11.502   5.676   9.126 -0.1794  0.0875  0.1077
  560ERGO    C1 8185  11.467   5.735   8.751  0.2182  0.2840  0.0959
  560ERGO    C2 8186  11.447   5.966   8.374  0.0967  0.3181  0.2222
  561ERGO   ROH 8187  10.353  14.408   9.652  0.1570  0.0431 -0.0613
  561ERGO    R1 8188  10.410  14.361   9.379  0.1090  0.0425 -0.0711
  561ERGO    R2 8189  10.230  14.240   9.208  0.0711  0.0632 -0.0435
  561ERGO    R3 8190  10.271  14.463   9.059  0.0682  0.0608 -0.0486
  561ERGO    R4 8191  10.121  14.283   8.883  0.2082 -0.0147 -0.1008
  561ERGO    R5 8192  10.311  14.380   8.837  0.2007  0.0444 -0.0220
  561ERGO    C1 8193  10.096  14.518   8.553  0.2853 -0.0625 -0.1388
  561ERGO    C2 8194  10.022  14.541   8.259 -0.0248  0.1320 -0.0114
  562ERGO   ROH 8195  17.427   9.371   9.508 -0.0177  0.1478  0.0603
  562ERGO    R1 8196  17.600   9.506   9.329 -0.1197  0.2074  0.0051
  562ERGO    R2 8197  17.689   9.392   9.093 -0.0025  0.1627  0.0684
  562ERGO    R3 8198  17.587   9.619   8.983 -0.1920  0.0203 -0.0541
  562ERGO    R4 8199  17.807   9.543   8.805  0.0479  0.2516  0.1358
  562ERGO    R5 8200  17.778   9.737   8.901 -0.2652  0.2379  0.0795
  562ERGO    C1 8201  17.779   9.844   8.534 -0.1006  0.1698  0.0598
  562ERGO    C2 8202  17.875   9.822   8.168  0.2281 -0.1313  0.0663
  563ERGO   ROH 8203   9.836  17.101   9.203  0.1304 -0.0718  0.0353
  563ERGO    R1 8204   9.920  17.224   8.963  0.0655  0.0404  0.0697
  563ERGO    R2 8205   9.961  17.083   8.729  0.2436  0.1099  0.0573
  563ERGO    R3 8206   9.788  17.265   8.626  0.0950 -0.0341  0.0490
  563ERGO    R4 8207   9.889  17.119   8.393  0.1504 -0.0171  0.0629
  563ERGO    R5 8208   9.890  17.335   8.421  0.0050 -0.0095  0.0124
  563ERGO    C1 8209   9.684  17.311   8.101 -0.0436 -0.2265  0.0584
  563ERGO    C2 8210   9.718  17.120   7.794 -0.3609  0.2859 -0.5128
  564ERGO   ROH 8211   7.619   4.216   9.972  0.0411 -0.0521  0.0337
  564ERGO    R1 8212   7.757   4.124   9.743 -0.1707 -0.3272  0.0113
  564ERGO    R2 8213   7.630   4.003   9.530 -0.4800  0.0972 -0.0524
  564ERGO    R3 8214   7.756   4.196   9.386  0.0567 -0.1628  0.0404
  564ERGO    R4 8215   7.713   3.976   9.195 -0.7113  0.0842 -0.1121
  564ERGO    R5 8216   7.903   4.075   9.240 -0.3681 -0.5210 -0.1164
  564ERGO    C1 8217   7.880   4.142   8.865 -0.3422 -0.1674 -0.0598
  564ERGO    C2 8218   7.930   4.108   8.526  0.1453 -0.0062 -0.0631
  565ERGO   ROH 8219   6.600  12.071   9.943 -0.0614 -0.1443  0.0386
  565ERGO    R1 8220   6.690  12.085   9.675  0.0302 -0.1624  0.0686
  565ERGO    R2 8221   6.644  11.884   9.492 -0.1986 -0.0302 -0.0199
  565ERGO    R3 8222   6.538  12.087   9.345  0.1162  0.1764  0.0260
  565ERGO    R4 8223   6.673  11.916   9.149 -0.4355 -0.1936 -0.0576
  565ERGO    R5 8224   6.702  12.130   9.176  0.0718 -0.2379 -0.1367
  565ERGO    C1 8225   6.590  12.124   8.811 -0.2780 -0.0948 -0.0366
  565ERGO    C2 8226   6.737  12.256   8.537 -0.1875  0.4677 -0.1627
  566ERGO   ROH 8227   8.340  10.626   9.966  0.2546 -0.1623 -0.0564
  566ERGO    R1 8228   8.277  10.867   9.831  0.0163 -0.1582  0.0575
  566ERGO    R2 8229   8.379  10.929   9.582  0.1994  0.1899  0.2149
  566ERGO    R3 8230   8.117  10.962   9.519  0.2094 -0.1848 -0.0526
  566ERGO    R4 8231   8.263  11.082   9.295  0.2973  0.5104  0.3407
  566ERGO    R5 8232   8.107  11.177   9.414 -0.0435  0.0071  0.3344
  566ERGO    C1 8233   7.949  11.201   9.068  0.3637  0.3452  0.1629
  566ERGO    C2 8234   7.805  11.358   8.816  0.3581 -0.1296 -0.1047
  567ERGO   ROH 8235  15.776   7.380   9.690 -0.0426 -0.1451 -0.0219
  567ERGO    R1 8236  15.884   7.392   9.429 -0.0699 -0.1458 -0.0329
  567ERGO    R2 8237  16.043   7.190   9.324 -0.1421 -0.1796 -0.0749
  567ERGO    R3 8238  15.859   7.195   9.124 -0.1636 -0.1018 -0.0545
  567ERGO    R4 8239  16.105   7.101   8.997 -0.2297 -0.2614 -0.0701
  567ERGO    R5 8240  15.982   7.268   8.932 -0.1420 -0.1980 -0.0790
  567ERGO    C1 8241  15.969   7.053   8.618 -0.3012 -0.2359 -0.0482
  567ERGO    C2 8242  15.999   6.918   8.352 -0.1565  0.1889 -0.0590
  568ERGO   ROH 8243   4.380  11.895  10.043  0.0170 -0.3070 -0.0563
  568ERGO    R1 8244   4.512  11.949   9.798  0.0583 -0.3336 -0.0389
  568ERGO    R2 8245   4.589  11.749   9.623 -0.3235 -0.3285 -0.2160
  568ERGO    R3 8246   4.445  11.894   9.444 -0.1131  0.0684 -0.0752
  568ERGO    R4 8247   4.620  11.726   9.280 -0.4852 -0.1829 -0.2423
  568ERGO    R5 8248   4.601  11.943   9.269 -0.0705 -0.1240 -0.0981
  568ERGO    C1 8249   4.504  11.850   8.912 -0.3818  0.2745 -0.1255
  568ERGO    C2 8250   4.545  11.985   8.589  0.1606  0.1483 -0.2238
  569ERGO   ROH 8251   3.439  11.707   9.800 -0.1537  0.2950  0.0261
  569ERGO    R1 8252   3.532  11.677   9.534  0.0535  0.2948  0.0963
  569ERGO    R2 8253   3.378  11.562   9.335  0.3701 -0.1284  0.0766
  569ERGO    R3 8254   3.433  11.794   9.204  0.0079 -0.0998 -0.0341
  569ERGO    R4 8255   3.386  11.598   8.992  0.2494 -0.2544  0.0602
  569ERGO    R5 8256   3.561  11.726   9.014  0.0684  0.0094 -0.0290
  569ERGO    C1 8257   3.441  11.837   8.669 -0.1609 -0.3008 -0.0532
  569ERGO    C2 8258   3.561  11.962   8.444  0.0301  0.2601  0.3159
  570ERGO   ROH 8259  15.086   8.900   9.424 -0.1433 -0.0254 -0.0643
  570ERGO    R1 8260  15.066   8.939   9.145 -0.0945 -0.1685 -0.0885
  570ERGO    R2 8261  15.238   9.104   9.005 -0.3131  0.0717 -0.0758
  570ERGO    R3 8262  15.277   8.882   8.853  0.1301  0.0733  0.0207
  570ERGO    R4 8263  15.340   9.106   8.675 -0.5523  0.1595 -0.1512
  570ERGO    R5 8264  15.199   8.944   8.636 -0.1919 -0.2262  0.0380
  570ERGO    C1 8265  15.436   8.899   8.340 -0.2756  0.2120 -0.1045
  570ERGO    C2 8266  15.424   8.913   8.019  0.0803  0.0751 -0.0178
  571ERGO   ROH 8267  13.526   5.438   9.202 -0.0464 -0.1447 -0.2603
  571ERGO    R1 8268  13.571   5.373   8.930 -0.0225 -0.0119 -0.2871
  571ERGO    R2 8269  13.369   5.378   8.740 -0.0351 -0.0690 -0.2672
  571ERGO    R3 8270  13.540   5.544   8.609 -0.1506  0.0899 -0.2232
  571ERGO    R4 8271  13.414   5.385   8.398 -0.0950  0.1008 -0.2737
  571ERGO    R5 8272  13.628   5.410   8.431 -0.0993  0.2121 -0.2955
  571ERGO    C1 8273  13.601   5.545   8.075 -0.2385  0.3488 -0.2362
  571ERGO    C2 8274  13.273   5.601   7.797 -0.3094 -0.1863  0.1140
  572ERGO   ROH 8275  11.423   2.273   9.517  0.0764  0.0559 -0.0880
  572ERGO    R1 8276  11.385   2.175   9.255  0.2474  0.0940 -0.1287
  572ERGO    R2 8277  11.153   2.218   9.112  0.1342 -0.3079 -0.0829
  572ERGO    R3 8278  11.324   2.317   8.925 -0.0753  0.1279 -0.0572
  572ERGO    R4 8279  11.072   2.273   8.780  0.0088 -0.3774 -0.0644
  572ERGO    R5 8280  11.269   2.197   8.725  0.1833  0.0656 -0.0929
  572ERGO    C1 8281  11.186   2.398   8.412 -0.2610 -0.0088 -0.0296
  572ERGO    C2 8282  10.966   2.551   8.151  0.4752  0.2370 -0.1149
  573ERGO   ROH 8283   5.975  10.258   9.395 -0.1295  0.2714  0.0250
  573ERGO    R1 8284   6.124  10.259   9.153 -0.2514  0.0529 -0.0548
  573ERGO    R2 8285   6.016  10.343   8.913 -0.2429  0.2697  0.0098
  573ERGO    R3 8286   6.232  10.508   8.911  0.0399 -0.0900 -0.0734
  573ERGO    R4 8287   6.122  10.528   8.640 -0.2293  0.3467  0.0673
  573ERGO    R5 8288   6.327  10.479   8.694 -0.2480 -0.0511 -0.2047
  573ERGO    C1 8289   6.386  10.790   8.480  0.0440  0.0538  0.0227
  573ERGO    C2 8290   6.538  10.955   8.205  0.0269  0.5387 -0.1355
  574ERGO   ROH 8291  15.018  12.662   9.324 -0.0255 -0.1541 -0.1790
  574ERGO    R1 8292  14.857  12.722   9.099  0.0298 -0.0267 -0.1851
  574ERGO    R2 8293  14.601  12.824   9.121  0.0150 -0.0699 -0.1886
  574ERGO    R3 8294  14.699  13.018   8.958  0.0357  0.0474 -0.0402
  574ERGO    R4 8295  14.410  13.070   8.971  0.0012 -0.0739 -0.1785
  574ERGO    R5 8296  14.530  13.045   8.790  0.1180  0.0586 -0.1255
  574ERGO    C1 8297  14.391  13.395   8.730  0.0127  0.0340 -0.0332
  574ERGO    C2 8298  14.460  13.546   8.508 -0.0140  0.2106 -0.1349
  575ERGO   ROH 8299   7.835  14.421  10.197 -0.0017 -0.0514 -0.0275
  575ERGO    R1 8300   7.632  14.550  10.047 -0.1392 -0.2090  0.0193
  575ERGO    R2 8301   7.684  14.766   9.883 -0.3915  0.0131  0.2230
  575ERGO    R3 8302   7.563  14.611   9.695 -0.1073 -0.0031  0.0475
  575ERGO    R4 8303   7.575  14.879   9.575 -0.2553  0.0721  0.1956
  575ERGO    R5 8304   7.397  14.754   9.598 -0.1635 -0.1032 -0.0055
  575ERGO    C1 8305   7.398  14.799   9.219  0.0909  0.0910  0.0149
  575ERGO    C2 8306   7.327  14.805   8.968  0.1127 -0.0526 -0.0393
  576ERGO   ROH 8307  17.336   2.358   9.924  0.1256  0.0345  0.0292
  576ERGO    R1 8308  17.239   2.264   9.675  0.1134 -0.0095  0.0507
  576ERGO    R2 8309  17.277   2.403   9.439  0.1162 -0.0592  0.0223
  576ERGO    R3 8310  17.382   2.167   9.355  0.0991 -0.0831  0.0668
  576ERGO    R4 8311  17.331   2.318   9.109 -0.1915 -0.2564  0.0183
  576ERGO    R5 8312  17.261   2.116   9.155 -0.0892 -0.2479  0.2180
  576ERGO    C1 8313  17.461   2.046   8.837 -0.3864 -0.3938  0.0579
  576ERGO    C2 8314  17.498   2.231   8.605 -0.1528  0.1294 -0.0449
  577ERGO   ROH 8315   7.728  11.093   9.933 -0.1282  0.2160  0.0305
  577ERGO    R1 8316   7.540  11.133   9.726 -0.1214  0.1632  0.0136
  577ERGO    R2 8317   7.588  11.300   9.511 -0.0835  0.0527 -0.0683
  577ERGO    R3 8318   7.528  11.079   9.366 -0.1364 -0.0040  0.0393
  577ERGO    R4 8319   7.466  11.304   9.188  0.1644 -0.0854 -0.1664
  577ERGO    R5 8320   7.332  11.140   9.242  0.0033  0.0531 -0.1534
  577ERGO    C1 8321   7.338  11.098   8.863  0.2591 -0.2190 -0.1225
  577ERGO    C2 8322   7.459  11.165   8.552 -0.0059 -0.1648  0.0534
  578ERGO   ROH 8323  17.165  17.604  10.113 -0.0434 -0.2169 -0.0204
  578ERGO    R1 8324  17.028  17.504   9.886 -0.0664  0.0078 -0.1067
  578ERGO    R2 8325  16.886  17.667   9.714  0.0763  0.2012 -0.0318
  578ERGO    R3 8326  17.045  17.551   9.526  0.0278  0.2092 -0.0803
  578ERGO    R4 8327  16.798  17.617   9.383 -0.1781 -0.1194  0.0782
  578ERGO    R5 8328  16.894  17.422   9.392  0.0168 -0.0348  0.1449
  578ERGO    C1 8329  16.895  17.479   9.015 -0.3714 -0.2986  0.0967
  578ERGO    C2 8330  16.892  17.612   8.740  0.0231 -0.1047 -0.4207
  579ERGO   ROH 8331   1.812   6.371   9.836 -0.0129 -0.0261  0.1891
  579ERGO    R1 8332   1.779   6.526   9.601 -0.0585 -0.0029  0.2120
  579ERGO    R2 8333   1.977   6.550   9.409 -0.0619  0.0993  0.2301
  579ERGO    R3 8334   1.780   6.464   9.242 -0.0194  0.0566  0.1998
  579ERGO    R4 8335   1.985   6.574   9.065 -0.1404  0.4019  0.2458
  579ERGO    R5 8336   1.774   6.628   9.068 -0.1987  0.2085  0.3364
  579ERGO    C1 8337   1.805   6.508   8.707 -0.1461  0.5380  0.2266
  579ERGO    C2 8338   1.818   6.463   8.405  0.0690  0.1933 -0.2618
  580ERGO   ROH 8339  10.368  17.068   9.546 -0.0275  0.0427 -0.1165
  580ERGO    R1 8340  10.384  16.874   9.341 -0.0734  0.0607 -0.1366
  580ERGO    R2 8341  10.160  16.775   9.212 -0.1032  0.0481 -0.0710
  580ERGO    R3 8342  10.294  16.854   8.989 -0.1845  0.0774 -0.1102
  580ERGO    R4 8343  10.067  16.698   8.888 -0.1041 -0.0963 -0.0374
  580ERGO    R5 8344  10.277  16.667   8.840 -0.0880  0.0250 -0.0594
  580ERGO    C1 8345  10.137  16.727   8.490 -0.1811 -0.1535 -0.0547
  580ERGO    C2 8346  10.063  16.719   8.219  0.0373 -0.1808 -0.4159
  581ERGO   ROH 8347   6.918  10.126   9.219 -0.1141  0.2342 -0.0641
  581ERGO    R1 8348   7.075  10.148   8.985  0.0445 -0.1058  0.0037
  581ERGO    R2 8349   7.110   9.937   8.809 -0.2440 -0.2231  0.0765
  581ERGO    R3 8350   7.020  10.117   8.627  0.1600 -0.1018 -0.0137
  581ERGO    R4 8351   7.174   9.925   8.470  0.0360 -0.3139  0.1298
  581ERGO    R5 8352   7.200  10.140   8.471  0.3295 -0.3486  0.1415
  581ERGO    C1 8353   7.127  10.086   8.101  0.5784 -0.2527  0.0762
  581ERGO    C2 8354   7.024  10.215   7.760  0.1584  0.3271  0.1580
  582ERGO   ROH 8355  18.301   3.235   9.822  0.0830 -0.0177  0.0300
  582ERGO    R1 8356  18.361   3.302   9.553 -0.0299  0.0290  0.0149
  582ERGO    R2 8357  18.439   3.114   9.367  0.2877  0.1131  0.0506
  582ERGO    R3 8358  18.232   3.216   9.224  0.1063 -0.2615  0.0356
  582ERGO    R4 8359  18.427   3.131   9.022  0.4314  0.3958  0.0576
  582ERGO    R5 8360  18.336   3.329   9.041 -0.0653  0.1663  0.1923
  582ERGO    C1 8361  18.225   3.237   8.687  0.3448  0.2088  0.0477
  582ERGO    C2 8362  18.037   3.167   8.402 -0.6458  0.0187  0.3587
  583ERGO   ROH 8363  12.566  13.001   9.772  0.3916 -0.0488  0.0302
  583ERGO    R1 8364  12.464  13.041   9.511  0.2747  0.0289  0.0880
  583ERGO    R2 8365  12.627  13.058   9.288  0.1619 -0.1014 -0.0000
  583ERGO    R3 8366  12.467  12.859   9.196 -0.0486  0.0240  0.0829
  583ERGO    R4 8367  12.566  12.993   8.955  0.0002 -0.0972  0.0269
  583ERGO    R5 8368  12.358  12.954   9.005 -0.0247  0.0968  0.1010
  583ERGO    C1 8369  12.380  12.768   8.673 -0.2916  0.0230  0.1204
  583ERGO    C2 8370  12.597  12.655   8.395  0.1276  0.1675 -0.1797
  584ERGO   ROH 8371  16.304  12.753   9.464 -0.0109 -0.0987  0.0960
  584ERGO    R1 8372  16.262  12.658   9.201 -0.1048 -0.0492  0.0920
  584ERGO    R2 8373  16.128  12.807   9.009 -0.1287  0.0124  0.1475
  584ERGO    R3 8374  16.355  12.763   8.865 -0.1742 -0.0140  0.0857
  584ERGO    R4 8375  16.160  12.858   8.669 -0.2171 -0.0450  0.1309
  584ERGO    R5 8376  16.277  12.675   8.656 -0.2285 -0.0429  0.1242
  584ERGO    C1 8377  16.390  12.847   8.335 -0.3109 -0.1032  0.0632
  584ERGO    C2 8378  16.425  12.945   8.037  0.4671  0.2588 -0.0526
  585ERGO   ROH 8379  16.690   5.608   9.681 -0.3030  0.1102  0.0392
  585ERGO    R1 8380  16.802   5.614   9.421 -0.1816 -0.0251  0.0881
  585ERGO    R2 8381  16.962   5.822   9.332 -0.1092 -0.0996  0.0713
  585ERGO    R3 8382  17.137   5.622   9.278 -0.1130 -0.1479  0.2290
  585ERGO    R4 8383  17.205   5.833   9.087 -0.1277 -0.2704  0.0442
  585ERGO    R5 8384  17.160   5.625   9.040 -0.1347 -0.3257  0.2112
  585ERGO    C1 8385  17.511   5.651   8.894 -0.1421 -0.4151  0.1764
  585ERGO    C2 8386  17.786   5.651   8.726 -0.3045 -0.0447 -0.1894
  586ERGO   ROH 8387   6.501   1.216   9.839  0.0393  0.1243 -0.0679
  586ERGO    R1 8388   6.549   1.287   9.570 -0.1350  0.0247 -0.1281
  586ERGO    R2 8389   6.779   1.213   9.434 -0.1012  0.1879 -0.1733
  586ERGO    R3 8390   6.602   1.112   9.255 -0.0676 -0.1012 -0.0459
  586ERGO    R4 8391   6.857   1.114   9.113 -0.1646  0.2700 -0.2133
  586ERGO    R5 8392   6.671   1.202   9.045 -0.3444 -0.0204 -0.1019
  586ERGO    C1 8393   6.737   0.960   8.758 -0.1700  0.0464 -0.1170
  586ERGO    C2 8394   6.667   1.053   8.419  0.0603  0.2102  0.2869
  587ERGO   ROH 8395   7.865   1.138   9.993 -0.0755  0.0061  0.1307
  587ERGO    R1 8396   7.898   1.187   9.716 -0.0551  0.0543  0.1408
  587ERGO    R2 8397   7.886   0.986   9.527 -0.0416  0.0834  0.1013
  587ERGO    R3 8398   7.697   1.146   9.415 -0.0351  0.1049  0.1227
  587ERGO    R4 8399   7.835   1.023   9.187  0.0412  0.2481  0.1061
  587ERGO    R5 8400   7.803   1.236   9.221 -0.0032  0.2198  0.1989
  587ERGO    C1 8401   7.627   1.195   8.885  0.0955  0.3641  0.1291
  587ERGO    C2 8402   7.628   1.036   8.534 -0.2387 -0.0841  0.0061
  588ERGO   ROH 8403   7.603   8.764   9.468 -0.0041 -0.0094  0.0464
  588ERGO    R1 8404   7.784   8.735   9.253 -0.0075  0.0555  0.0349
  588ERGO    R2 8405   7.735   8.568   9.039 -0.0003  0.1043 -0.0026
  588ERGO    R3 8406   7.780   8.793   8.894 -0.0192  0.1413  0.0483
  588ERGO    R4 8407   7.704   8.592   8.695  0.3115  0.0872 -0.0350
  588ERGO    R5 8408   7.884   8.715   8.693  0.2317  0.2155  0.1424
  588ERGO    C1 8409   7.729   8.818   8.360  0.4753  0.1118 -0.0062
  588ERGO    C2 8410   7.642   8.859   8.015 -0.1352  0.0245  0.3135
  589ERGO   ROH 8411  17.941   4.196   9.552  0.0743 -0.0018 -0.1502
  589ERGO    R1 8412  17.902   4.128   9.280  0.1334  0.1366 -0.1931
  589ERGO    R2 8413  17.660   4.035   9.184  0.2335 -0.0749 -0.2339
  589ERGO    R3 8414  17.688   4.241   9.008 -0.0158  0.0778 -0.1030
  589ERGO    R4 8415  17.525   4.043   8.866  0.0813  0.0384 -0.1690
  589ERGO    R5 8416  17.710   4.134   8.795 -0.0220  0.2440 -0.1913
  589ERGO    C1 8417  17.473   4.240   8.516 -0.2416  0.2477 -0.0084
  589ERGO    C2 8418  17.523   4.436   8.278 -0.0696  0.1215 -0.1535
  590ERGO   ROH 8419   4.990   9.855   9.216 -0.1520  0.0981  0.2217
  590ERGO    R1 8420   4.964  10.052   9.013 -0.1180  0.0517  0.1722
  590ERGO    R2 8421   5.153  10.085   8.814 -0.0463  0.0571  0.2409
  590ERGO    R3 8422   4.938  10.055   8.650  0.0264 -0.0264  0.1599
  590ERGO    R4 8423   5.146  10.170   8.478  0.1273 -0.1777  0.1757
  590ERGO    R5 8424   4.944  10.247   8.507  0.1233 -0.1264  0.0261
  590ERGO    C1 8425   4.940  10.190   8.130  0.2967 -0.3927  0.0618
  590ERGO    C2 8426   4.908  10.029   7.872 -0.1109  0.2859  0.2737
  591ERGO   ROH 8427   8.014  15.569   9.596 -0.0713  0.3110 -0.0914
  591ERGO    R1 8428   8.036  15.613   9.317 -0.1733  0.1026 -0.1339
  591ERGO    R2 8429   8.227  15.488   9.162 -0.1304  0.1074 -0.0803
  591ERGO    R3 8430   8.012  15.412   9.015 -0.1157 -0.1575  0.0303
  591ERGO    R4 8431   8.223  15.459   8.817 -0.3423  0.3954 -0.1063
  591ERGO    R5 8432   8.023  15.546   8.817 -0.5111  0.0414  0.1293
  591ERGO    C1 8433   8.018  15.370   8.479 -0.4518  0.3145 -0.0175
  591ERGO    C2 8434   7.847  15.210   8.267  0.2937  0.1217 -0.2762
  592ERGO   ROH 8435   6.699  15.920   9.541 -0.2214  0.0376  0.1160
  592ERGO    R1 8436   6.566  15.903   9.292 -0.1448 -0.0435  0.0800
  592ERGO    R2 8437   6.510  16.126   9.137 -0.1959 -0.0821  0.0440
  592ERGO    R3 8438   6.641  15.984   8.945 -0.0823 -0.0454  0.0928
  592ERGO    R4 8439   6.424  16.120   8.803  0.0057 -0.0112 -0.0110
  592ERGO    R5 8440   6.467  15.907   8.800  0.0028 -0.0121 -0.0288
  592ERGO    C1 8441   6.496  15.985   8.428  0.2297  0.0647  0.0029
  592ERGO    C2 8442   6.437  16.030   8.118  0.1740  0.1859  0.2302
  593ERGO   ROH 8443   0.928   3.810   9.735 -0.1314  0.1539  0.0124
  593ERGO    R1 8444   1.005   3.788   9.463  0.0074  0.0605  0.0585
  593ERGO    R2 8445   1.160   3.579   9.369 -0.1492 -0.1039  0.1654
  593ERGO    R3 8446   0.954   3.549   9.193 -0.0775  0.0952  0.0423
  593ERGO    R4 8447   1.195   3.498   9.035 -0.0193 -0.0128  0.1557
  593ERGO    R5 8448   1.037   3.640   8.988  0.0991  0.1128  0.1171
  593ERGO    C1 8449   1.023   3.421   8.676  0.1237  0.2272  0.0346
  593ERGO    C2 8450   0.994   3.473   8.234  0.2577  0.1900  0.4450
  594ERGO   ROH 8451   3.233  14.244   9.847  0.0061  0.0661  0.0784
  594ERGO    R1 8452   3.197  14.242   9.566  0.0125  0.0490  0.0775
  594ERGO    R2 8453   3.409  14.234   9.389  0.0159  0.0018  0.0827
  594ERGO    R3 8454   3.276  14.018   9.291 -0.0156  0.0143  0.0981
  594ERGO    R4 8455   3.409  14.134   9.058  0.1139 -0.1039  0.1136
  594ERGO    R5 8456   3.197  14.089   9.076  0.0921 -0.0284  0.0444
  594ERGO    C1 8457   3.284  13.874   8.773  0.1414 -0.1535  0.1461
  594ERGO    C2 8458   3.335  13.676   8.470 -0.1683 -0.1277  0.1787
  595ERGO   ROH 8459   6.632   4.076   9.756  0.2659 -0.1422 -0.0779
  595ERGO    R1 8460   6.668   4.216   9.512  0.1116 -0.0621 -0.0570
  595ERGO    R2 8461   6.847   4.134   9.318  0.1634  0.1330 -0.0989
  595ERGO    R3 8462   6.628   4.143   9.157  0.1310 -0.0319 -0.0647
  595ERGO    R4 8463   6.856   4.186   8.977  0.0618  0.2931 -0.0772
  595ERGO    R5 8464   6.680   4.314   8.997 -0.0742  0.0952  0.0025
  595ERGO    C1 8465   6.655   4.225   8.627 -0.0278  0.2314 -0.0325
  595ERGO    C2 8466   6.619   4.212   8.289 -0.1175 -0.1158  0.3796
  596ERGO   ROH 8467   5.278   2.006  10.025 -0.4038  0.1187  0.1002
  596ERGO    R1 8468   5.390   2.031   9.767 -0.2627  0.0037  0.1492
  596ERGO    R2 8469   5.251   1.965   9.537 -0.2232  0.1256  0.0892
  596ERGO    R3 8470   5.317   2.219   9.464  0.0493  0.0638  0.1082
  596ERGO    R4 8471   5.235   2.088   9.214 -0.2060  0.2063  0.1183
  596ERGO    R5 8472   5.423   2.193   9.251 -0.0652 -0.0224  0.0621
  596ERGO    C1 8473   5.288   2.397   8.958  0.0598  0.1953  0.1532
  596ERGO    C2 8474   5.257   2.424   8.686 -0.0476  0.0491 -0.5304
  597ERGO   ROH 8475   7.651   9.733   9.693 -0.1925  0.2271 -0.0528
  597ERGO    R1 8476   7.876   9.767   9.526 -0.1192  0.0372  0.0034
  597ERGO    R2 8477   7.933   9.595   9.317 -0.1789 -0.0461  0.0476
  597ERGO    R3 8478   7.936   9.824   9.171  0.0178 -0.0716  0.0097
  597ERGO    R4 8479   8.017   9.616   8.982 -0.2709 -0.1793  0.0162
  597ERGO    R5 8480   8.124   9.800   9.025 -0.0608 -0.2903 -0.0516
  597ERGO    C1 8481   8.067   9.844   8.651 -0.1401 -0.2808 -0.0376
  597ERGO    C2 8482   8.188   9.887   8.273  0.0390  0.0353 -0.0638
  598ERGO   ROH 8483   0.515   0.039  10.047 -0.0209  0.1225  0.1755
  598ERGO    R1 8484   0.427  -0.058   9.796  0.1694  0.1447  0.0983
  598ERGO    R2 8485   0.163  -0.042   9.716  0.1336 -0.2955  0.1106
  598ERGO    R3 8486   0.270   0.082   9.499 -0.0940  0.0836  0.2046
  598ERGO    R4 8487   0.040  -0.065   9.393  0.0533 -0.0962  0.1245
  598ERGO    R5 8488   0.246  -0.076   9.321  0.0481  0.2426  0.0376
  598ERGO    C1 8489   0.070   0.038   9.002 -0.2071  0.3755  0.2210
  598ERGO    C2 8490  -0.039  -0.063   8.783  0.1478 -0.0547 -0.0987
  599ERGO   ROH 8491   3.777  16.012   9.543  0.0324 -0.2256 -0.0905
  599ERGO    R1 8492   3.916  15.907   9.320 -0.0324 -0.2178 -0.1354
  599ERGO    R2 8493   3.787  15.819   9.092 -0.0899 -0.0492 -0.1730
  599ERGO    R3 8494   3.955  15.993   8.968  0.0123 -0.0952 -0.1003
  599ERGO    R4 8495   3.924  15.772   8.778 -0.2084  0.0588 -0.2415
  599ERGO    R5 8496   4.112  15.853   8.853 -0.1261 -0.1377 -0.2365
  599ERGO    C1 8497   4.161  15.908   8.479 -0.1815  0.0783 -0.2130
  599ERGO    C2 8498   4.113  15.769   8.292 -0.1081  0.1064  0.3382
  600ERGO   ROH 8499  12.987   3.461   9.458 -0.0262 -0.3546  0.0629
  600ERGO    R1 8500  12.993   3.545   9.188 -0.1843 -0.1026  0.1337
  600ERGO    R2 8501  13.097   3.387   8.986  0.0838  0.2483 -0.0150
  600ERGO    R3 8502  12.854   3.430   8.872 -0.0038 -0.0732  0.0426
  600ERGO    R4 8503  13.038   3.407   8.646 -0.0141  0.2484  0.0019
  600ERGO    R5 8504  12.899   3.570   8.684 -0.2440  0.0411  0.0682
  600ERGO    C1 8505  12.775   3.458   8.341 -0.1533 -0.0535  0.0657
  600ERGO    C2 8506  12.726   3.308   8.079 -0.1275  0.0594  0.5412
  601ERGO   ROH 8507   1.876  15.253   9.811  0.1330 -0.1150  0.1745
  601ERGO    R1 8508   1.983  15.253   9.549 -0.0134 -0.0692  0.1131
  601ERGO    R2 8509   2.148  15.051   9.456 -0.0249 -0.0293  0.0016
  601ERGO    R3 8510   1.964  15.039   9.255 -0.1368 -0.0455  0.1038
  601ERGO    R4 8511   2.216  14.951   9.132 -0.1863  0.0460 -0.0566
  601ERGO    R5 8512   2.084  15.110   9.061 -0.2707  0.0206  0.0460
  601ERGO    C1 8513   2.083  14.881   8.755 -0.3852  0.0746  0.0054
  601ERGO    C2 8514   2.018  14.689   8.415  0.0839 -0.1134  0.3394
  602ERGO   ROH 8515  10.198   8.356   9.306  0.3153 -0.1184  0.0111
  602ERGO    R1 8516  10.197   8.489   9.057  0.2915 -0.0710  0.0371
  602ERGO    R2 8517  10.368   8.420   8.851  0.1447 -0.1554 -0.0548
  602ERGO    R3 8518  10.137   8.398   8.709  0.0611  0.0372  0.0460
  602ERGO    R4 8519  10.343   8.455   8.508  0.0748 -0.3927 -0.0762
  602ERGO    R5 8520  10.156   8.565   8.538  0.2251 -0.1184 -0.0932
  602ERGO    C1 8521  10.111   8.455   8.175 -0.0442 -0.3501  0.0059
  602ERGO    C2 8522  10.184   8.430   7.800  0.1802 -0.3247 -0.1473
  603ERGO   ROH 8523   5.178  10.302   9.367  0.0239 -0.4220  0.0234
  603ERGO    R1 8524   5.122  10.486   9.159 -0.2129 -0.4126  0.0945
  603ERGO    R2 8525   5.319  10.597   9.001 -0.3297  0.0710  0.2816
  603ERGO    R3 8526   5.167  10.499   8.799 -0.0122 -0.1189  0.1251
  603ERGO    R4 8527   5.362  10.671   8.666 -0.2605  0.3754  0.3539
  603ERGO    R5 8528   5.146  10.681   8.645 -0.2831 -0.0504  0.2306
  603ERGO    C1 8529   5.243  10.622   8.281  0.0777  0.3742  0.2491
  603ERGO    C2 8530   5.129  10.764   7.943  0.0104  0.0745 -0.0201
  604ERGO   ROH 8531  11.311  15.505   9.666  0.1045 -0.0151 -0.2383
  604ERGO    R1 8532  11.157  15.337   9.499  0.0680 -0.0972 -0.1233
  604ERGO    R2 8533  10.993  15.435   9.300 -0.1186 -0.1844 -0.0161
  604ERGO    R3 8534  11.136  15.264   9.143 -0.1447 -0.1234 -0.1067
  604ERGO    R4 8535  10.900  15.333   8.983 -0.2726 -0.2138  0.0381
  604ERGO    R5 8536  10.969  15.132   9.032 -0.1608 -0.1877 -0.0078
  604ERGO    C1 8537  10.979  15.114   8.651 -0.3867 -0.1737 -0.0156
  604ERGO    C2 8538  10.817  15.135   8.277 -0.1906  0.2830  0.1769
  605ERGO   ROH 8539  14.519  17.164   9.791  0.2305  0.1267 -0.0553
  605ERGO    R1 8540  14.394  17.056   9.561  0.1143  0.1983 -0.0259
  605ERGO    R2 8541  14.119  17.044   9.533  0.1023  0.1930  0.1171
  605ERGO    R3 8542  14.170  17.176   9.301 -0.0323  0.2730  0.1318
  605ERGO    R4 8543  13.994  16.955   9.224  0.3102  0.0005  0.0856
  605ERGO    R5 8544  14.188  17.003   9.137  0.2690  0.2920  0.1353
  605ERGO    C1 8545  13.968  17.027   8.826  0.3048 -0.0362  0.0809
  605ERGO    C2 8546  13.870  17.139   8.539 -0.0891 -0.0686  0.0083
  606ERGO   ROH 8547  10.387   2.588   9.457 -0.0391 -0.0757 -0.0463
  606ERGO    R1 8548  10.335   2.761   9.239 -0.0541 -0.0313 -0.0078
  606ERGO    R2 8549  10.389   2.691   8.978  0.0109  0.0562 -0.0191
  606ERGO    R3 8550  10.127   2.754   8.940 -0.0023 -0.0122 -0.0441
  606ERGO    R4 8551  10.225   2.682   8.673  0.0973  0.2233 -0.0717
  606ERGO    R5 8552  10.123   2.867   8.729  0.0148  0.1446  0.0383
  606ERGO    C1 8553   9.884   2.737   8.461  0.1353  0.2565 -0.1257
  606ERGO    C2 8554   9.826   2.732   8.157 -0.0067  0.0049  0.0831
  607ERGO   ROH 8555   4.249   7.193   9.525 -0.1656  0.1691  0.0238
  607ERGO    R1 8556   4.191   7.377   9.318 -0.0992  0.1171 -0.0405
  607ERGO    R2 8557   4.386   7.475   9.147 -0.0595  0.0114 -0.0536
  607ERGO    R3 8558   4.218   7.382   8.955 -0.0654 -0.0053 -0.0409
  607ERGO    R4 8559   4.331   7.629   8.843 -0.2734  0.1363  0.0459
  607ERGO    R5 8560   4.119   7.580   8.862 -0.2359 -0.0209  0.0981
  607ERGO    C1 8561   4.141   7.632   8.485 -0.4035  0.1935  0.1158
  607ERGO    C2 8562   4.293   7.596   8.193  0.2520 -0.0269 -0.3042
  608ERGO   ROH 8563  12.219  17.734   9.287 -0.0533 -0.0759 -0.0501
  608ERGO    R1 8564  12.297  17.642   9.031 -0.0440 -0.0226 -0.0675
  608ERGO    R2 8565  12.153  17.452   8.891 -0.0700  0.0423 -0.1379
  608ERGO    R3 8566  12.156  17.641   8.696 -0.0097  0.0994 -0.0808
  608ERGO    R4 8567  12.094  17.392   8.556 -0.1620  0.1847 -0.1473
  608ERGO    R5 8568  12.254  17.532   8.507 -0.1039  0.1140 -0.1332
  608ERGO    C1 8569  12.062  17.536   8.178 -0.1591  0.3215 -0.0993
  608ERGO    C2 8570  12.101  17.543   7.891  0.0070 -0.2860  0.0435
  609ERGO   ROH 8571  13.339  16.753   9.859  0.0645 -0.1677 -0.0302
  609ERGO    R1 8572  13.355  16.664   9.591  0.0350 -0.1281 -0.0463
  609ERGO    R2 8573  13.275  16.819   9.377  0.0748 -0.0680 -0.0232
  609ERGO    R3 8574  13.526  16.767   9.287  0.0599 -0.1239 -0.0296
  609ERGO    R4 8575  13.363  16.792   9.044  0.1019  0.1076 -0.0305
  609ERGO    R5 8576  13.492  16.624   9.098  0.0180  0.0156 -0.1255
  609ERGO    C1 8577  13.650  16.727   8.766  0.1037  0.1574 -0.0409
  609ERGO    C2 8578  13.935  16.603   8.523  0.3045  0.0955 -0.3438
  610ERGO   ROH 8579   3.135   8.500   9.752 -0.0887 -0.0562  0.0967
  610ERGO    R1 8580   2.983   8.526   9.515 -0.0802  0.0105  0.0979
  610ERGO    R2 8581   3.030   8.726   9.330 -0.0256  0.0201  0.1188
  610ERGO    R3 8582   3.049   8.517   9.157 -0.0785  0.0330  0.0982
  610ERGO    R4 8583   3.069   8.756   8.988  0.0158  0.0419  0.1258
  610ERGO    R5 8584   2.930   8.590   8.962 -0.0354  0.0916  0.0953
  610ERGO    C1 8585   3.110   8.578   8.626 -0.0097  0.0666  0.1106
  610ERGO    C2 8586   3.184   8.645   8.279  0.1688 -0.1115 -0.0596
  611ERGO   ROH 8587  10.857  14.446   9.436 -0.0856 -0.2006  0.1475
  611ERGO    R1 8588  10.801  14.253   9.238 -0.2517 -0.0654  0.0592
  611ERGO    R2 8589  10.697  14.319   8.990 -0.1803  0.1374  0.0785
  611ERGO    R3 8590  10.913  14.182   8.899 -0.2970 -0.0181  0.0350
  611ERGO    R4 8591  10.705  14.137   8.697 -0.2758  0.3839 -0.0795
  611ERGO    R5 8592  10.820  13.984   8.801 -0.4779  0.1663 -0.1724
  611ERGO    C1 8593  10.912  13.902   8.440 -0.4410  0.3816 -0.2122
  611ERGO    C2 8594  10.884  13.764   8.059 -0.0614  0.2458 -0.0960
  612ERGO   ROH 8595   3.495  14.522  10.087  0.0724  0.1325 -0.0594
  612ERGO    R1 8596   3.459  14.666   9.846  0.3104  0.4754  0.1027
  612ERGO    R2 8597   3.642  14.852   9.756  0.8951 -0.0781  0.0787
  612ERGO    R3 8598   3.636  14.701   9.530  0.1081  0.1073 -0.0595
  612ERGO    R4 8599   3.778  14.946   9.453  0.8165 -0.2587 -0.0143
  612ERGO    R5 8600   3.604  14.859   9.353  0.3828  0.3790  0.1219
  612ERGO    C1 8601   3.852  14.859   9.064  0.0319 -0.1898 -0.1983
  612ERGO    C2 8602   3.968  14.717   8.856 -0.2190  0.1373  0.6808
  613ERGO   ROH 8603   8.195  13.647  10.139 -0.0624  0.1668 -0.0228
  613ERGO    R1 8604   8.239  13.657   9.860 -0.0157 -0.0301 -0.0241
  613ERGO    R2 8605   8.429  13.502   9.733 -0.0708 -0.2020  0.1012
  613ERGO    R3 8606   8.217  13.425   9.580 -0.0848 -0.1973  0.1178
  613ERGO    R4 8607   8.451  13.389   9.407 -0.1288  0.0954 -0.0091
  613ERGO    R5 8608   8.271  13.503   9.360 -0.2180  0.0290  0.1618
  613ERGO    C1 8609   8.265  13.251   9.074 -0.1758  0.2730 -0.0578
  613ERGO    C2 8610   8.105  13.052   8.772  0.1900  0.0371 -0.1758
  614ERGO   ROH 8611   7.594  17.855   9.767  0.1105 -0.3624  0.1110
  614ERGO    R1 8612   7.457  17.623   9.680  0.0962 -0.3284  0.0447
  614ERGO    R2 8613   7.256  17.630   9.491  0.0374 -0.2487  0.1164
  614ERGO    R3 8614   7.410  17.445   9.366  0.0026 -0.1846 -0.0253
  614ERGO    R4 8615   7.158  17.446   9.215 -0.0976 -0.1927  0.1253
  614ERGO    R5 8616   7.256  17.272   9.303 -0.0060 -0.1999  0.0233
  614ERGO    C1 8617   7.246  17.165   8.937 -0.2089 -0.0997 -0.0028
  614ERGO    C2 8618   7.001  17.219   8.719 -0.2009 -0.1285 -0.2733
  615ERGO   ROH 8619   4.935   6.407   9.198 -0.2049 -0.0477 -0.0193
  615ERGO    R1 8620   4.832   6.543   8.972 -0.0771 -0.0604 -0.0875
  615ERGO    R2 8621   4.919   6.793   8.897 -0.1138 -0.0094  0.0188
  615ERGO    R3 8622   4.963   6.671   8.658  0.1347  0.0324  0.0364
  615ERGO    R4 8623   4.955   6.958   8.595 -0.2653  0.0188  0.0157
  615ERGO    R5 8624   4.836   6.801   8.501 -0.0117 -0.1642 -0.0100
  615ERGO    C1 8625   5.017   6.939   8.195 -0.1203  0.0746  0.0304
  615ERGO    C2 8626   5.311   7.031   7.932  0.0120  0.1187 -0.2175
  616ERGO   ROH 8627  11.960   9.427   9.610 -0.2222  0.0714 -0.0101
  616ERGO    R1 8628  11.880   9.216   9.439 -0.1052  0.1059 -0.1098
  616ERGO    R2 8629  11.726   9.257   9.213  0.0026  0.1453 -0.1793
  616ERGO    R3 8630  11.930   9.125   9.090  0.0862  0.2103 -0.1103
  616ERGO    R4 8631  11.734   9.171   8.878  0.0619 -0.0191 -0.1364
  616ERGO    R5 8632  11.821   8.980   8.934  0.1800  0.0641 -0.0399
  616ERGO    C1 8633  11.929   8.997   8.568  0.1748 -0.0538 -0.0465
  616ERGO    C2 8634  12.017   8.962   8.243  0.2299  0.1138 -0.2935
  617ERGO   ROH 8635   8.718   2.994   9.955 -0.2029  0.0106  0.1768
  617ERGO    R1 8636   8.668   3.083   9.691 -0.2070 -0.0694  0.1506
  617ERGO    R2 8637   8.865   3.190   9.530 -0.2668  0.1423  0.2172
  617ERGO    R3 8638   8.783   2.998   9.356  0.0166  0.0311  0.1997
  617ERGO    R4 8639   8.846   3.229   9.187 -0.3132  0.1422  0.2193
  617ERGO    R5 8640   8.659   3.118   9.190 -0.1556 -0.1336  0.2052
  617ERGO    C1 8641   8.758   3.072   8.824 -0.0742  0.0377  0.2041
  617ERGO    C2 8642   8.826   3.173   8.610 -0.1652 -0.0356  0.2067
  618ERGO   ROH 8643   3.880  12.834   9.948 -0.1111 -0.1968  0.0787
  618ERGO    R1 8644   3.950  12.889   9.679 -0.0531 -0.2557  0.0817
  618ERGO    R2 8645   3.977  12.691   9.489 -0.2661 -0.2750  0.0702
  618ERGO    R3 8646   3.799  12.844   9.352 -0.1054 -0.0750  0.0792
  618ERGO    R4 8647   3.921  12.671   9.149  0.0595  0.1472 -0.0171
  618ERGO    R5 8648   3.907  12.888   9.143  0.1074  0.1606  0.2335
  618ERGO    C1 8649   3.721  12.802   8.821  0.4000  0.5808 -0.0595
  618ERGO    C2 8650   3.567  12.726   8.589 -0.0394  0.1222  0.0894
  619ERGO   ROH 8651  10.468  13.418   9.526  0.2388  0.1236 -0.1744
  619ERGO    R1 8652  10.455  13.308   9.265  0.2357  0.2047 -0.2091
  619ERGO    R2 8653  10.217  13.225   9.150  0.2731 -0.0515 -0.1086
  619ERGO    R3 8654  10.293  13.392   8.951 -0.0457  0.1238 -0.0893
  619ERGO    R4 8655  10.088  13.223   8.830  0.1791 -0.1680 -0.0709
  619ERGO    R5 8656  10.289  13.257   8.754  0.1078  0.1658 -0.1226
  619ERGO    C1 8657  10.084  13.379   8.456 -0.1747 -0.0713 -0.0307
  619ERGO    C2 8658   9.949  13.552   8.155  0.0674 -0.0086  0.2704
  620ERGO   ROH 8659  14.469   5.054   9.744  0.0531  0.2123 -0.0316
  620ERGO    R1 8660  14.433   4.865   9.536  0.0670  0.1578  0.0155
  620ERGO    R2 8661  14.211   4.864   9.371  0.0712  0.1051  0.0112
  620ERGO    R3 8662  14.397   4.874   9.174  0.0744  0.0636  0.0120
  620ERGO    R4 8663  14.168   4.739   9.052  0.0559  0.0834  0.0216
  620ERGO    R5 8664  14.373   4.666   9.059  0.0470  0.0562  0.0296
  620ERGO    C1 8665  14.318   4.674   8.681  0.0501  0.0318  0.0284
  620ERGO    C2 8666  14.090   4.670   8.266 -0.2540 -0.1301 -0.2626
  621ERGO   ROH 8667  12.141   3.444   9.536 -0.2670 -0.2194 -0.0655
  621ERGO    R1 8668  12.106   3.484   9.258 -0.4337 -0.1722 -0.0386
  621ERGO    R2 8669  11.883   3.609   9.152 -0.2873  0.2682  0.1526
  621ERGO    R3 8670  12.069   3.769   9.034 -0.0629 -0.1053 -0.0223
  621ERGO    R4 8671  11.843   3.767   8.847 -0.2807  0.3895  0.2135
  621ERGO    R5 8672  12.051   3.719   8.801 -0.4176 -0.0476 -0.0140
  621ERGO    C1 8673  11.994   4.009   8.559 -0.0661  0.1094  0.0848
  621ERGO    C2 8674  12.080   4.170   8.166  0.3887  0.0159  0.0026
  622ERGO   ROH 8675   8.776   1.614   9.774  0.1031  0.1818  0.0185
  622ERGO    R1 8676   8.666   1.574   9.516  0.0877 -0.0496  0.0586
  622ERGO    R2 8677   8.691   1.760   9.313 -0.2389 -0.0625 -0.0019
  622ERGO    R3 8678   8.793   1.548   9.176  0.0354  0.0432  0.0321
  622ERGO    R4 8679   8.638   1.697   8.977 -0.1956 -0.2127  0.0188
  622ERGO    R5 8680   8.618   1.486   9.025  0.1005 -0.2315  0.0675
  622ERGO    C1 8681   8.702   1.462   8.653  0.0872 -0.2008  0.0628
  622ERGO    C2 8682   8.879   1.200   8.391  0.0566 -0.0904  0.1324
  623ERGO   ROH 8683   7.576  10.200   9.647 -0.1995  0.0387 -0.0963
  623ERGO    R1 8684   7.634  10.128   9.380  0.0218 -0.0246 -0.0336
  623ERGO    R2 8685   7.483  10.217   9.165  0.0481 -0.2692 -0.1588
  623ERGO    R3 8686   7.725  10.301   9.073  0.0190 -0.0686 -0.0589
  623ERGO    R4 8687   7.581  10.211   8.834  0.1172  0.0095 -0.1461
  623ERGO    R5 8688   7.779  10.146   8.898  0.1415  0.0793 -0.1536
  623ERGO    C1 8689   7.865  10.286   8.554  0.1300  0.3602 -0.0448
  623ERGO    C2 8690   8.002  10.379   8.182 -0.1412  0.3410  0.0817
  624ERGO   ROH 8691   9.495  11.112   9.511 -0.0893 -0.1443 -0.0941
  624ERGO    R1 8692   9.260  11.250   9.436 -0.0308 -0.0479 -0.1050
  624ERGO    R2 8693   9.215  11.515   9.501 -0.0074 -0.0778  0.0530
  624ERGO    R3 8694   9.176  11.541   9.233  0.1175  0.1040  0.0518
  624ERGO    R4 8695   9.005  11.746   9.353 -0.1348 -0.1513  0.1178
  624ERGO    R5 8696   8.944  11.593   9.211  0.0847 -0.0912 -0.0389
  624ERGO    C1 8697   8.847  11.906   9.016 -0.0917 -0.0234  0.1545
  624ERGO    C2 8698   8.915  12.126   8.745 -0.2503  0.1740  0.1524
  625ERGO   ROH 8699   9.993   7.495   9.686 -0.0007  0.0306 -0.0934
  625ERGO    R1 8700  10.115   7.416   9.442 -0.0866 -0.0962 -0.0975
  625ERGO    R2 8701   9.975   7.293   9.238 -0.2399  0.1152 -0.1268
  625ERGO    R3 8702  10.076   7.497   9.090  0.0386  0.0084 -0.0876
  625ERGO    R4 8703  10.012   7.288   8.895 -0.1481  0.0943 -0.1163
  625ERGO    R5 8704  10.204   7.388   8.919 -0.0380 -0.1284 -0.0571
  625ERGO    C1 8705  10.129   7.476   8.555  0.1668 -0.0181 -0.0732
  625ERGO    C2 8706  10.332   7.479   8.288  0.2231  0.0392 -0.0978
  626ERGO   ROH 8707   9.234   9.623   9.625 -0.0060  0.2002  0.1706
  626ERGO    R1 8708   9.412   9.738   9.437 -0.0646  0.1626  0.0925
  626ERGO    R2 8709   9.443   9.639   9.182 -0.0492  0.0328  0.1456
  626ERGO    R3 8710   9.384   9.894   9.110 -0.1494 -0.0272  0.0074
  626ERGO    R4 8711   9.458   9.761   8.859 -0.0399 -0.1187  0.0875
  626ERGO    R5 8712   9.544   9.945   8.938 -0.1377 -0.0404  0.0141
  626ERGO    C1 8713   9.412  10.072   8.603 -0.1287 -0.2632 -0.0760
  626ERGO    C2 8714   9.282   9.939   8.324  0.0585  0.0814  0.2875
  627ERGO   ROH 8715   0.138  17.048   9.979 -0.0371  0.2958  0.0388
  627ERGO    R1 8716   0.045  17.218   9.773 -0.0780  0.1696 -0.0463
  627ERGO    R2 8717   0.204  17.297   9.562 -0.1090  0.0767 -0.0963
  627ERGO    R3 8718  -0.000  17.197   9.413 -0.1052 -0.0292 -0.0344
  627ERGO    R4 8719   0.173  17.334   9.220 -0.0618 -0.2002 -0.1338
  627ERGO    R5 8720  -0.041  17.366   9.247 -0.0681 -0.1543 -0.1804
  627ERGO    C1 8721  -0.036  17.262   8.880 -0.0307 -0.4607 -0.0977
  627ERGO    C2 8722  -0.091  17.158   8.492 -0.1008 -0.2917  0.1939
  628ERGO   ROH 8723   2.103   8.007   9.838 -0.0474 -0.1028 -0.0247
  628ERGO    R1 8724   1.989   7.951   9.585 -0.0673 -0.3199  0.0290
  628ERGO    R2 8725   1.998   8.130   9.375 -0.4452 -0.3233 -0.0037
  628ERGO    R3 8726   2.108   7.920   9.243 -0.1546 -0.1687 -0.0144
  628ERGO    R4 8727   2.031   8.108   9.031 -0.1358 -0.1470  0.0108
  628ERGO    R5 8728   1.975   7.898   9.045  0.0333 -0.1975 -0.1352
  628ERGO    C1 8729   2.152   7.897   8.707  0.3172  0.1006  0.0092
  628ERGO    C2 8730   2.156   7.965   8.350 -0.0657 -0.1125 -0.1296
  629ERGO   ROH 8731   6.033   6.587   9.656  0.0860 -0.0481  0.0669
  629ERGO    R1 8732   5.981   6.681   9.394  0.0725 -0.0404  0.0729
  629ERGO    R2 8733   6.149   6.628   9.181  0.0363 -0.0726  0.0556
  629ERGO    R3 8734   5.920   6.533   9.067  0.0058 -0.0303  0.0798
  629ERGO    R4 8735   6.108   6.562   8.844  0.0247 -0.1607  0.0736
  629ERGO    R5 8736   5.908   6.646   8.856  0.0505 -0.0878  0.0440
  629ERGO    C1 8737   5.871   6.434   8.541 -0.0107 -0.1723  0.1068
  629ERGO    C2 8738   5.920   6.271   8.260  0.0420 -0.0700  0.1392
  630ERGO   ROH 8739   8.179   3.035   9.893  0.0600 -0.2285 -0.0320
  630ERGO    R1 8740   8.157   3.141   9.631 -0.1474 -0.1944 -0.0024
  630ERGO    R2 8741   8.305   3.045   9.418  0.0057  0.1150 -0.0432
  630ERGO    R3 8742   8.060   3.017   9.303  0.0360 -0.2791 -0.0248
  630ERGO    R4 8743   8.248   3.025   9.078 -0.0081  0.2536 -0.0498
  630ERGO    R5 8744   8.072   3.151   9.105 -0.2556 -0.1058  0.0705
  630ERGO    C1 8745   7.986   2.986   8.771  0.0124 -0.0357 -0.0363
  630ERGO    C2 8746   7.944   3.082   8.499  0.1120 -0.2038 -0.0803
  631ERGO   ROH 8747  10.402  11.216   9.621  0.0704  0.0863  0.0649
  631ERGO    R1 8748  10.355  11.214   9.342  0.0370  0.1061  0.0702
  631ERGO    R2 8749  10.370  11.442   9.187  0.0482  0.1123  0.0795
  631ERGO    R3 8750  10.544  11.293   9.041  0.0118  0.0965  0.0520
  631ERGO    R4 8751  10.397  11.451   8.843 -0.0054  0.1076  0.0751
  631ERGO    R5 8752  10.422  11.235   8.844 -0.0240  0.1062  0.0719
  631ERGO    C1 8753  10.577  11.316   8.505 -0.0707  0.0901  0.0467
  631ERGO    C2 8754  10.652  11.535   8.280  0.0485  0.0614 -0.0954
  632ERGO   ROH 8755   6.472   8.899   9.530  0.1159  0.0519  0.1487
  632ERGO    R1 8756   6.368   8.800   9.286  0.1328  0.0602  0.1380
  632ERGO    R2 8757   6.135   8.898   9.173  0.0570 -0.0422  0.2044
  632ERGO    R3 8758   6.293   8.935   8.956  0.0003  0.1116  0.1882
  632ERGO    R4 8759   6.022   8.910   8.847  0.0007 -0.0543  0.2231
  632ERGO    R5 8760   6.198   8.794   8.788  0.0730  0.0784  0.1743
  632ERGO    C1 8761   6.106   8.952   8.453 -0.0854  0.0831  0.2188
  632ERGO    C2 8762   5.903   8.939   8.188  0.1486 -0.1048 -0.0852
  633ERGO   ROH 8763  11.019  12.583   9.596 -0.0995 -0.0294 -0.0335
  633ERGO    R1 8764  10.978  12.437   9.358 -0.0940 -0.0432 -0.0268
  633ERGO    R2 8765  10.826  12.534   9.148 -0.1166 -0.0668 -0.0263
  633ERGO    R3 8766  11.051  12.481   9.004 -0.1147 -0.0452 -0.0301
  633ERGO    R4 8767  10.833  12.463   8.810 -0.1175 -0.1661 -0.0054
  633ERGO    R5 8768  10.985  12.311   8.849 -0.0739 -0.1081  0.0258
  633ERGO    C1 8769  11.048  12.372   8.478 -0.1162 -0.2035  0.0033
  633ERGO    C2 8770  10.923  12.455   8.134 -0.2665 -0.1477  0.1436
  634ERGO   ROH 8771  10.314   5.801   9.486 -0.0700 -0.2917 -0.0409
  634ERGO    R1 8772  10.290   5.923   9.232 -0.1123 -0.0942  0.0556
  634ERGO    R2 8773  10.510   5.996   9.081 -0.1366  0.1377  0.1274
  634ERGO    R3 8774  10.390   5.844   8.890 -0.0500  0.2321 -0.0045
  634ERGO    R4 8775  10.588   6.002   8.744 -0.1369  0.4666  0.1299
  634ERGO    R5 8776  10.375   5.987   8.699 -0.1274  0.3870  0.1164
  634ERGO    C1 8777  10.521   5.862   8.370 -0.0556  0.7465  0.0076
  634ERGO    C2 8778  10.576   5.697   8.160 -0.1441  0.1104  0.2195
  635ERGO   ROH 8779   4.061  17.946   9.792  0.0796  0.0398 -0.1319
  635ERGO    R1 8780   4.034  18.013   9.518 -0.0008 -0.0493 -0.1459
  635ERGO    R2 8781   4.238  17.976   9.335  0.0067  0.0583 -0.1559
  635ERGO    R3 8782   4.047  17.837   9.200  0.0976 -0.1196 -0.1047
  635ERGO    R4 8783   4.245  17.910   8.996 -0.0607  0.1495 -0.1757
  635ERGO    R5 8784   4.030  17.949   8.989 -0.1132 -0.0818 -0.0733
  635ERGO    C1 8785   4.070  17.741   8.672 -0.0148  0.0353 -0.1391
  635ERGO    C2 8786   3.930  17.739   8.334 -0.0779  0.1078  0.0775
  636ERGO   ROH 8787   4.869  12.277   9.785 -0.1797  0.2642  0.1041
  636ERGO    R1 8788   4.719  12.303   9.547 -0.1665  0.2563  0.0935
  636ERGO    R2 8789   4.757  12.511   9.368 -0.0489  0.1695  0.0078
  636ERGO    R3 8790   4.788  12.309   9.189 -0.1603  0.0778  0.0922
  636ERGO    R4 8791   4.752  12.549   9.025  0.2649  0.0733 -0.0091
  636ERGO    R5 8792   4.638  12.364   9.011  0.0462  0.2113 -0.0405
  636ERGO    C1 8793   4.779  12.381   8.657  0.3432 -0.0687  0.0604
  636ERGO    C2 8794   4.682  12.433   8.328  0.0434  0.0810  0.1777
  637ERGO   ROH 8795   9.967   0.641   9.611  0.0296  0.0957 -0.1625
  637ERGO    R1 8796  10.052   0.690   9.345 -0.0105  0.0891 -0.1772
  637ERGO    R2 8797  10.084   0.487   9.159  0.0142  0.0767 -0.1628
  637ERGO    R3 8798   9.916   0.641   9.011 -0.0377  0.0256 -0.1566
  637ERGO    R4 8799  10.063   0.482   8.815  0.2786  0.3445 -0.1867
  637ERGO    R5 8800  10.043   0.699   8.817  0.0494  0.3245 -0.0160
  637ERGO    C1 8801   9.893   0.623   8.475  0.3836  0.4524 -0.1948
  637ERGO    C2 8802   9.766   0.825   8.178 -0.0404  0.2543  0.0716
  638ERGO   ROH 8803   8.550  17.541   9.574 -0.0789 -0.0341  0.0213
  638ERGO    R1 8804   8.394  17.625   9.354  0.0109  0.0037 -0.0287
  638ERGO    R2 8805   8.482  17.605   9.093  0.0292 -0.1568 -0.0121
  638ERGO    R3 8806   8.248  17.471   9.059 -0.0678  0.0045  0.0099
  638ERGO    R4 8807   8.326  17.553   8.789 -0.0255 -0.0699  0.0007
  638ERGO    R5 8808   8.135  17.591   8.885  0.0063  0.0715  0.0082
  638ERGO    C1 8809   8.016  17.396   8.579 -0.1485  0.1322  0.0288
  638ERGO    C2 8810   7.736  17.421   8.249  0.0133 -0.2295 -0.0716
  639ERGO   ROH 8811   2.874  12.900  10.237  0.3251  0.0036  0.0995
  639ERGO    R1 8812   2.917  12.905   9.957  0.3053  0.0387  0.0967
  639ERGO    R2 8813   2.987  12.679   9.813  0.1794  0.0300  0.0437
  639ERGO    R3 8814   2.770  12.747   9.664  0.1999  0.1729  0.0777
  639ERGO    R4 8815   2.940  12.592   9.482  0.0564  0.0523  0.0546
  639ERGO    R5 8816   2.859  12.792   9.446  0.1881  0.1036  0.0617
  639ERGO    C1 8817   2.710  12.605   9.149  0.0040  0.1993  0.0930
  639ERGO    C2 8818   2.774  12.577   8.864 -0.0482  0.2230  0.3158
  640ERGO   ROH 8819   3.864  16.821  10.150 -0.0713  0.0453 -0.1718
  640ERGO    R1 8820   3.918  16.929   9.894 -0.0436 -0.0559 -0.2100
  640ERGO    R2 8821   4.168  16.918   9.777  0.0096  0.0363 -0.1115
  640ERGO    R3 8822   4.031  16.803   9.572  0.1542 -0.1581 -0.1014
  640ERGO    R4 8823   4.224  16.982   9.442 -0.1226  0.1331 -0.1157
  640ERGO    R5 8824   4.009  16.979   9.410 -0.1233 -0.1836 -0.0922
  640ERGO    C1 8825   4.129  16.911   9.055 -0.0640  0.0074 -0.1087
  640ERGO    C2 8826   4.272  16.870   8.623 -0.0264 -0.0560 -0.1075
  641ERGO   ROH 8827  11.311   9.071   9.141  0.1611  0.1856 -0.0470
  641ERGO    R1 8828  11.339   8.912   8.909 -0.0186  0.1234 -0.0269
  641ERGO    R2 8829  11.204   8.966   8.674 -0.0557  0.1708  0.0079
  641ERGO    R3 8830  11.453   8.961   8.567 -0.0919 -0.0178 -0.0731
  641ERGO    R4 8831  11.282   8.841   8.361 -0.2846  0.2744 -0.0937
  641ERGO    R5 8832  11.462   8.753   8.447 -0.3409  0.0392 -0.2005
  641ERGO    C1 8833  11.562   8.763   8.079 -0.4520  0.1577 -0.2288
  641ERGO    C2 8834  11.631   8.905   7.813  0.3473  0.0094  0.0627
  642ERGO   ROH 8835  12.176   0.385   9.660  0.0521 -0.0456  0.1552
  642ERGO    R1 8836  12.024   0.339   9.426  0.0254 -0.0209  0.1686
  642ERGO    R2 8837  12.053   0.493   9.198  0.0422 -0.0388  0.1662
  642ERGO    R3 8838  12.093   0.251   9.079 -0.0236 -0.0499  0.1639
  642ERGO    R4 8839  12.087   0.444   8.858 -0.0281 -0.0362  0.1580
  642ERGO    R5 8840  11.966   0.263   8.876 -0.0635 -0.0203  0.1834
  642ERGO    C1 8841  12.145   0.190   8.548 -0.1309 -0.0451  0.1512
  642ERGO    C2 8842  12.480   0.383   8.306 -0.1891 -0.0798  0.2148
  643ERGO   ROH 8843   1.991  17.963  10.043 -0.0287 -0.0815 -0.0596
  643ERGO    R1 8844   2.139  18.060   9.822 -0.1038  0.0093 -0.0696
  643ERGO    R2 8845   2.376  17.946   9.740 -0.1000  0.0857 -0.1547
  643ERGO    R3 8846   2.249  17.930   9.500 -0.1497  0.1198 -0.1318
  643ERGO    R4 8847   2.523  18.013   9.435 -0.0933 -0.0884 -0.1915
  643ERGO    R5 8848   2.339  18.113   9.374 -0.0356  0.0310 -0.1866
  643ERGO    C1 8849   2.489  18.038   9.031 -0.1360 -0.1577 -0.1916
  643ERGO    C2 8850   2.752  17.967   8.846  0.0311 -0.0171 -0.1425
  644ERGO   ROH 8851   5.075  13.754   9.937 -0.0817  0.0102  0.0083
  644ERGO    R1 8852   5.188  13.925   9.741  0.0107 -0.0253  0.0288
  644ERGO    R2 8853   5.401  13.849   9.582  0.0288 -0.0901  0.0758
  644ERGO    R3 8854   5.233  13.919   9.380  0.0888 -0.0499  0.0403
  644ERGO    R4 8855   5.492  13.875   9.250  0.0660 -0.2298  0.0746
  644ERGO    R5 8856   5.367  14.053   9.235  0.1720 -0.1675  0.0139
  644ERGO    C1 8857   5.387  13.956   8.867  0.1440 -0.2735  0.0406
  644ERGO    C2 8858   5.511  13.842   8.575  0.0281 -0.0736  0.1545
  645ERGO   ROH 8859  15.268  13.214   9.729  0.0385  0.0304 -0.0039
  645ERGO    R1 8860  15.366  13.234   9.464  0.0928 -0.1844 -0.0027
  645ERGO    R2 8861  15.306  13.048   9.269 -0.1400 -0.1746  0.0516
  645ERGO    R3 8862  15.224  13.267   9.131  0.1614 -0.0988 -0.0246
  645ERGO    R4 8863  15.145  13.041   8.963 -0.4233 -0.0750  0.1957
  645ERGO    R5 8864  15.264  13.212   8.901 -0.1380 -0.3372 -0.0264
  645ERGO    C1 8865  14.974  13.242   8.656 -0.3053  0.0543  0.2080
  645ERGO    C2 8866  14.952  13.365   8.420  0.0827 -0.0520  0.1663
  646ERGO   ROH 8867  18.123  15.047   9.884  0.0148 -0.2406  0.1371
  646ERGO    R1 8868  18.185  15.171   9.637 -0.0328 -0.1709  0.1605
  646ERGO    R2 8869  18.433  15.148   9.518 -0.0481 -0.1110  0.1234
  646ERGO    R3 8870  18.287  15.063   9.305 -0.0637 -0.0733  0.1181
  646ERGO    R4 8871  18.543  15.151   9.190 -0.1948  0.2778  0.0718
  646ERGO    R5 8872  18.343  15.217   9.129 -0.2917  0.1370  0.2199
  646ERGO    C1 8873  18.470  15.073   8.799 -0.2949  0.5394  0.0367
  646ERGO    C2 8874  18.755  14.863   8.694  0.1565 -0.1051 -0.2721
  647ERGO   ROH 8875   7.845  12.107   9.969 -0.0977 -0.4382  0.0579
  647ERGO    R1 8876   7.773  12.097   9.696 -0.0267 -0.3409  0.0348
  647ERGO    R2 8877   7.645  12.306   9.568 -0.1693 -0.3699  0.1256
  647ERGO    R3 8878   7.853  12.285   9.394 -0.1092 -0.1002  0.1603
  647ERGO    R4 8879   7.630  12.385   9.232 -0.1414 -0.1486  0.1750
  647ERGO    R5 8880   7.753  12.209   9.190 -0.0039 -0.0331  0.0829
  647ERGO    C1 8881   7.817  12.411   8.873 -0.0687  0.2335  0.2363
  647ERGO    C2 8882   7.911  12.587   8.594 -0.1079 -0.1896 -0.2963
  648ERGO   ROH 8883   0.044  10.650   9.821  0.0994  0.0564 -0.1867
  648ERGO    R1 8884   0.046  10.697   9.542  0.0629  0.0569 -0.1863
  648ERGO    R2 8885  -0.067  10.521   9.361 -0.0622  0.1140 -0.1621
  648ERGO    R3 8886  -0.202  10.743   9.280  0.0296  0.1818 -0.1340
  648ERGO    R4 8887  -0.228  10.554   9.057 -0.3434  0.0888 -0.0203
  648ERGO    R5 8888  -0.154  10.759   9.046 -0.1904  0.0281 -0.1935
  648ERGO    C1 8889  -0.448  10.782   8.803 -0.4210  0.1376  0.0885
  648ERGO    C2 8890  -0.549  10.745   8.477  0.1809 -0.1697  0.0089
  649ERGO   ROH 8891  13.546   8.559   9.586  0.1141  0.0123 -0.0794
  649ERGO    R1 8892  13.411   8.552   9.338  0.0482  0.1381 -0.0488
  649ERGO    R2 8893  13.432   8.755   9.151  0.2177  0.1096 -0.0693
  649ERGO    R3 8894  13.504   8.551   8.986 -0.0292  0.0193 -0.0680
  649ERGO    R4 8895  13.403   8.760   8.807  0.2182  0.1296 -0.0685
  649ERGO    R5 8896  13.337   8.552   8.814 -0.0285  0.2107 -0.0637
  649ERGO    C1 8897  13.453   8.571   8.451 -0.0133  0.0565 -0.0666
  649ERGO    C2 8898  13.581   8.509   8.079 -0.2082  0.0284  0.2515
  650ERGO   ROH 8899  14.009  15.295   9.581  0.1994 -0.0789 -0.1881
  650ERGO    R1 8900  13.954  15.407   9.327  0.0994 -0.0329 -0.1479
  650ERGO    R2 8901  14.153  15.502   9.159  0.0244  0.1572 -0.1420
  650ERGO    R3 8902  14.038  15.332   8.981  0.1198  0.1321 -0.1775
  650ERGO    R4 8903  14.233  15.484   8.824  0.0045  0.2871 -0.1533
  650ERGO    R5 8904  14.021  15.459   8.779  0.0229  0.1657 -0.1425
  650ERGO    C1 8905  14.172  15.313   8.461  0.0823  0.3392 -0.1931
  650ERGO    C2 8906  14.178  15.165   8.225 -0.1722  0.0057  0.4940
  651ERGO   ROH 8907   1.834  12.611   9.946 -0.0713 -0.0791 -0.1853
  651ERGO    R1 8908   1.725  12.816   9.785 -0.1467 -0.1047 -0.1670
  651ERGO    R2 8909   1.879  12.970   9.615 -0.1614  0.1305  0.0263
  651ERGO    R3 8910   1.700  12.887   9.428  0.0596  0.0436 -0.1535
  651ERGO    R4 8911   1.758  13.165   9.356 -0.2104  0.1591  0.0702
  651ERGO    R5 8912   1.561  13.078   9.390 -0.1362 -0.0907 -0.1217
  651ERGO    C1 8913   1.519  13.200   9.031 -0.0314  0.0943 -0.0729
  651ERGO    C2 8914   1.478  13.307   8.698 -0.0696  0.1168 -0.1241
  652ERGO   ROH 8915   7.213  13.457  10.034 -0.1647  0.0840 -0.0773
  652ERGO    R1 8916   7.317  13.579   9.801 -0.0372  0.1337  0.0042
  652ERGO    R2 8917   7.337  13.445   9.559  0.1864  0.1517  0.0078
  652ERGO    R3 8918   7.195  13.657   9.467  0.1747  0.1067 -0.0797
  652ERGO    R4 8919   7.294  13.524   9.226  0.0943 -0.0298 -0.0250
  652ERGO    R5 8920   7.319  13.734   9.277  0.1205 -0.0063 -0.1564
  652ERGO    C1 8921   7.136  13.769   8.945  0.0298 -0.1776 -0.1264
  652ERGO    C2 8922   7.025  13.744   8.623  0.3018 -0.0638  0.1134
  653ERGO   ROH 8923   1.073   8.933   9.835 -0.4486  0.1338  0.0108
  653ERGO    R1 8924   1.178   8.909   9.573 -0.2163  0.3840  0.0749
  653ERGO    R2 8925   1.138   8.683   9.418  0.4042  0.2827  0.0318
  653ERGO    R3 8926   1.043   8.864   9.238  0.0935  0.0806 -0.0130
  653ERGO    R4 8927   1.113   8.630   9.077  0.3714  0.1224  0.0588
  653ERGO    R5 8928   1.180   8.835   9.045  0.0729  0.2036 -0.0417
  653ERGO    C1 8929   1.009   8.769   8.711  0.0607 -0.1606  0.0324
  653ERGO    C2 8930   0.955   8.801   8.423 -0.0176  0.0872  0.3343
  654ERGO   ROH 8931   1.048  16.445  10.046  0.2049  0.1375 -0.2070
  654ERGO    R1 8932   0.892  16.368   9.822  0.4727 -0.1749 -0.2950
  654ERGO    R2 8933   0.681  16.519   9.728 -0.2375 -0.8893  0.0106
  654ERGO    R3 8934   0.816  16.503   9.493 -0.1729  0.0792 -0.0546
  654ERGO    R4 8935   0.539  16.438   9.424  0.0439 -0.8008 -0.1455
  654ERGO    R5 8936   0.716  16.318   9.379  0.4941 -0.0801 -0.4194
  654ERGO    C1 8937   0.584  16.376   9.025  0.2684  0.1598 -0.2975
  654ERGO    C2 8938   0.438  16.207   8.695 -0.1651  0.0573  0.2611
  655ERGO   ROH 8939   6.146  15.883   9.850 -0.2698  0.2302 -0.0140
  655ERGO    R1 8940   6.206  15.765   9.599 -0.2362  0.0507  0.0765
  655ERGO    R2 8941   6.010  15.675   9.427 -0.2240  0.1324  0.0174
  655ERGO    R3 8942   6.136  15.838   9.249  0.0135 -0.0640  0.0014
  655ERGO    R4 8943   5.968  15.662   9.084 -0.2404  0.1597  0.0186
  655ERGO    R5 8944   6.183  15.696   9.062 -0.1892 -0.1513  0.0155
  655ERGO    C1 8945   6.063  15.808   8.718 -0.0270 -0.0088  0.0043
  655ERGO    C2 8946   5.994  15.948   8.397  0.3212 -0.0114  0.2914
  656ERGO   ROH 8947  13.480  10.512   9.455 -0.2303  0.0586 -0.1103
  656ERGO    R1 8948  13.632  10.472   9.219 -0.1879  0.0260 -0.0762
  656ERGO    R2 8949  13.654  10.225   9.096 -0.2391  0.0322 -0.0848
  656ERGO    R3 8950  13.567  10.364   8.878 -0.1388  0.0714 -0.1019
  656ERGO    R4 8951  13.733  10.150   8.768 -0.3249 -0.1019 -0.0764
  656ERGO    R5 8952  13.754  10.363   8.728 -0.1432 -0.1186 -0.1156
  656ERGO    C1 8953  13.699  10.235   8.373 -0.2806 -0.1431 -0.0875
  656ERGO    C2 8954  13.553  10.317   7.997 -0.0820 -0.2709  0.1713
  657ERGO   ROH 8955   9.353  15.335   9.384 -0.1032  0.2462  0.1267
  657ERGO    R1 8956   9.187  15.397   9.163 -0.1121  0.3341  0.1585
  657ERGO    R2 8957   9.126  15.657   9.093  0.2681  0.3819 -0.0140
  657ERGO    R3 8958   9.222  15.580   8.850  0.0311  0.0347 -0.0057
  657ERGO    R4 8959   9.046  15.807   8.791  0.1009  0.0613 -0.1346
  657ERGO    R5 8960   9.037  15.609   8.701 -0.0800 -0.0504  0.1095
  657ERGO    C1 8961   9.091  15.822   8.389 -0.2192 -0.4513 -0.1971
  657ERGO    C2 8962   8.872  15.870   8.098 -0.3687  0.0458 -0.1160
  658ERGO   ROH 8963  12.491   1.324   9.619 -0.3091  0.2001 -0.0656
  658ERGO    R1 8964  12.594   1.297   9.357 -0.0620  0.1643  0.0331
  658ERGO    R2 8965  12.438   1.216   9.144  0.2321 -0.2650 -0.0254
  658ERGO    R3 8966  12.530   1.446   9.031 -0.0652 -0.1952 -0.1369
  658ERGO    R4 8967  12.437   1.283   8.805  0.4272 -0.5793 -0.0933
  658ERGO    R5 8968  12.634   1.374   8.827  0.2583 -0.2065  0.0211
  658ERGO    C1 8969  12.522   1.538   8.502  0.2617 -0.6967 -0.2376
  658ERGO    C2 8970  12.473   1.641   8.235 -0.1473  0.0896 -0.0344
  659ERGO   ROH 8971   1.632   2.004  10.176  0.0376  0.2263 -0.1575
  659ERGO    R1 8972   1.637   2.049   9.897 -0.0327  0.1325 -0.1740
  659ERGO    R2 8973   1.738   1.864   9.718  0.0824  0.1446 -0.1217
  659ERGO    R3 8974   1.494   1.892   9.601  0.0450 -0.0784 -0.1016
  659ERGO    R4 8975   1.644   1.718   9.419  0.1532 -0.0300 -0.0600
  659ERGO    R5 8976   1.541   1.903   9.367  0.0073 -0.1238 -0.1120
  659ERGO    C1 8977   1.361   1.659   9.135  0.1594 -0.3411 -0.0055
  659ERGO    C2 8978   1.462   1.401   8.914  0.1162 -0.2358  0.0329
  660ERGO   ROH 8979   5.416   4.590   9.750  0.0065  0.1592 -0.0338
  660ERGO    R1 8980   5.481   4.562   9.476  0.0116  0.2320 -0.0405
  660ERGO    R2 8981   5.680   4.391   9.387  0.0265  0.2697 -0.0811
  660ERGO    R3 8982   5.480   4.293   9.231  0.0360  0.2922 -0.1069
  660ERGO    R4 8983   5.702   4.345   9.046  0.1807 -0.0318 -0.0333
  660ERGO    R5 8984   5.497   4.418   9.028  0.2446  0.1119 -0.2051
  660ERGO    C1 8985   5.528   4.226   8.700  0.2795 -0.1863 -0.0298
  660ERGO    C2 8986   5.579   4.266   8.468 -0.0785 -0.1959  0.1409
  661ERGO   ROH 8987  15.657   9.965   9.420 -0.1370  0.1808 -0.1723
  661ERGO    R1 8988  15.652   9.963   9.137 -0.0535  0.1604 -0.1739
  661ERGO    R2 8989  15.692  10.190   8.985  0.1919  0.1127 -0.1831
  661ERGO    R3 8990  15.884  10.038   8.867  0.0959 -0.0666 -0.1115
  661ERGO    R4 8991  15.804  10.229   8.660  0.3100 -0.0221 -0.1595
  661ERGO    R5 8992  15.810  10.012   8.641  0.1317 -0.0324 -0.1283
  661ERGO    C1 8993  16.049  10.109   8.360  0.2888 -0.2691 -0.0786
  661ERGO    C2 8994  16.038  10.230   8.045 -0.0533  0.3147  0.2169
  662ERGO   ROH 8995   6.335  10.010   9.526  0.0857  0.0444 -0.1166
  662ERGO    R1 8996   6.483   9.976   9.287  0.1851  0.1726 -0.0731
  662ERGO    R2 8997   6.362   9.931   9.042  0.2967  0.0541 -0.1006
  662ERGO    R3 8998   6.509  10.147   8.966  0.1230  0.1865 -0.0728
  662ERGO    R4 8999   6.430  10.019   8.715  0.3322  0.0660 -0.0911
  662ERGO    R5 9000   6.632  10.070   8.776  0.2684  0.2686 -0.0192
  662ERGO    C1 9001   6.607  10.272   8.453  0.1897  0.1973 -0.0596
  662ERGO    C2 9002   6.709  10.379   8.131  0.1750 -0.1277  0.0666
  663ERGO   ROH 9003  10.546   0.727   9.772 -0.0409  0.3399 -0.2033
  663ERGO    R1 9004  10.484   0.829   9.515 -0.0030  0.2254 -0.2584
  663ERGO    R2 9005  10.679   0.893   9.330  0.0229  0.1273 -0.2636
  663ERGO    R3 9006  10.536   0.725   9.170  0.0325  0.0632 -0.2058
  663ERGO    R4 9007  10.597   0.957   9.000  0.0880 -0.0224 -0.3098
  663ERGO    R5 9008  10.400   0.871   9.038  0.0705  0.0162 -0.3007
  663ERGO    C1 9009  10.415   0.837   8.658  0.1348 -0.1696 -0.2822
  663ERGO    C2 9010  10.397   0.922   8.369  0.2059  0.0843  0.2224
  664ERGO   ROH 9011   9.595   4.328   9.628 -0.1173  0.1769 -0.0442
  664ERGO    R1 9012   9.554   4.168   9.398  0.0741  0.2068 -0.1010
  664ERGO    R2 9013   9.330   4.010   9.365  0.3978 -0.2925 -0.0154
  664ERGO    R3 9014   9.307   4.147   9.131 -0.0900 -0.2025  0.0748
  664ERGO    R4 9015   9.301   3.865   9.052  0.6783 -0.1940 -0.0902
  664ERGO    R5 9016   9.434   4.019   8.974  0.2199  0.2436 -0.0590
  664ERGO    C1 9017   9.262   3.909   8.651  0.3836 -0.0522 -0.0493
  664ERGO    C2 9018   9.128   3.893   8.316 -0.0490  0.0709  0.1071
  665ERGO   ROH 9019  10.884   3.436   9.642  0.0935 -0.1061 -0.0002
  665ERGO    R1 9020  10.813   3.560   9.398  0.0176  0.1083  0.1280
  665ERGO    R2 9021  10.779   3.833   9.375  0.2790  0.1623  0.3147
  665ERGO    R3 9022  10.960   3.806   9.174  0.0881  0.0851  0.1501
  665ERGO    R4 9023  10.817   4.054   9.111  0.0588  0.0772  0.2094
  665ERGO    R5 9024  10.845   3.883   8.978 -0.0844  0.0374  0.2341
  665ERGO    C1 9025  11.009   4.157   8.769 -0.2487 -0.0449 -0.0064
  665ERGO    C2 9026  11.109   4.451   8.466  0.0997  0.2760 -0.0099
  666ERGO   ROH 9027  16.897   2.458  10.200  0.1379 -0.0277 -0.0445
  666ERGO    R1 9028  16.826   2.613   9.974 -0.1051 -0.1175 -0.0315
  666ERGO    R2 9029  17.013   2.740   9.815 -0.2988  0.1474 -0.0515
  666ERGO    R3 9030  16.890   2.602   9.616 -0.1354 -0.0178 -0.0407
  666ERGO    R4 9031  17.081   2.776   9.478 -0.3090  0.1750 -0.0507
  666ERGO    R5 9032  16.868   2.760   9.438 -0.2941 -0.0636 -0.0653
  666ERGO    C1 9033  17.006   2.667   9.095 -0.1612  0.0359 -0.0401
  666ERGO    C2 9034  17.112   2.583   8.648  0.2554  0.2293  0.0166
  667ERGO   ROH 9035   8.796   6.751   9.809 -0.1500  0.0570 -0.0773
  667ERGO    R1 9036   8.927   6.750   9.558 -0.0255  0.0692 -0.0127
  667ERGO    R2 9037   9.143   6.912   9.502 -0.0037  0.0782  0.0998
  667ERGO    R3 9038   9.261   6.677   9.435  0.0387  0.0845  0.1502
  667ERGO    R4 9039   9.269   6.836   9.190 -0.0901 -0.0082  0.0851
  667ERGO    R5 9040   9.188   6.635   9.211 -0.0272 -0.0230  0.1908
  667ERGO    C1 9041   9.453   6.571   8.944 -0.1006 -0.0526  0.1238
  667ERGO    C2 9042   9.702   6.348   8.797 -0.0969 -0.0045  0.0482
  668ERGO   ROH 9043  12.418  16.079   9.453 -0.0735  0.2834  0.1660
  668ERGO    R1 9044  12.470  16.295   9.279  0.0393  0.1158 -0.0109
  668ERGO    R2 9045  12.628  16.270   9.053 -0.1277 -0.1952 -0.0910
  668ERGO    R3 9046  12.409  16.374   8.929 -0.0982 -0.0519 -0.0273
  668ERGO    R4 9047  12.618  16.378   8.724 -0.0803  0.0257 -0.0221
  668ERGO    R5 9048  12.496  16.546   8.788 -0.0394  0.0222  0.0901
  668ERGO    C1 9049  12.407  16.538   8.418 -0.0251  0.2891  0.0779
  668ERGO    C2 9050  12.421  16.597   8.075  0.2786  0.1970  0.0762
  669ERGO   ROH 9051  13.170  17.773   9.474 -0.1109 -0.4280  0.0741
  669ERGO    R1 9052  13.234  17.831   9.204 -0.1080 -0.1661  0.1283
  669ERGO    R2 9053  13.452  17.720   9.075 -0.2173 -0.2007 -0.0384
  669ERGO    R3 9054  13.265  17.645   8.893 -0.3157  0.1642 -0.0957
  669ERGO    R4 9055  13.508  17.687   8.736 -0.2676 -0.0286 -0.0638
  669ERGO    R5 9056  13.313  17.777   8.700 -0.1545  0.2422 -0.0005
  669ERGO    C1 9057  13.365  17.597   8.368 -0.3893  0.4143 -0.1323
  669ERGO    C2 9058  13.594  17.418   8.166 -0.3826  0.0200 -0.1468
  670ERGO   ROH 9059   3.022   2.274   9.862 -0.1605  0.0367 -0.0575
  670ERGO    R1 9060   2.915   2.112   9.657 -0.0015  0.0042 -0.1164
  670ERGO    R2 9061   2.661   2.148   9.557 -0.0383 -0.2069 -0.1030
  670ERGO    R3 9062   2.791   2.160   9.318 -0.0479  0.0060 -0.0997
  670ERGO    R4 9063   2.522   2.062   9.252  0.0767 -0.3491 -0.1165
  670ERGO    R5 9064   2.711   1.968   9.198  0.2092 -0.0876 -0.1294
  670ERGO    C1 9065   2.563   2.023   8.851  0.1346 -0.2321 -0.1212
  670ERGO    C2 9066   2.214   2.041   8.723  0.0450 -0.1556 -0.0339
  671ERGO   ROH 9067  12.394   8.706   9.630  0.2640  0.4724 -0.0560
  671ERGO    R1 9068  12.264   8.705   9.379  0.2395 -0.0124 -0.0511
  671ERGO    R2 9069  12.271   8.921   9.207 -0.3513 -0.0697 -0.1722
  671ERGO    R3 9070  12.363   8.736   9.030  0.1392  0.0658 -0.0723
  671ERGO    R4 9071  12.307   8.973   8.867 -0.2635 -0.0913 -0.1660
  671ERGO    R5 9072  12.232   8.771   8.833  0.1743 -0.2638 -0.1578
  671ERGO    C1 9073  12.414   8.829   8.503  0.2479  0.0234 -0.0687
  671ERGO    C2 9074  12.749   8.710   8.304  0.0790  0.1349  0.0071
  672ERGO   ROH 9075   1.036  11.391   9.921 -0.0127  0.0584 -0.1217
  672ERGO    R1 9076   1.039  11.300   9.653  0.0274  0.2458 -0.1864
  672ERGO    R2 9077   0.862  11.110   9.558  0.2701  0.0433 -0.2498
  672ERGO    R3 9078   0.809  11.300   9.371 -0.0792  0.1008 -0.1006
  672ERGO    R4 9079   0.730  11.048   9.245  0.1245  0.0872 -0.1977
  672ERGO    R5 9080   0.866  11.197   9.163 -0.1024  0.2956 -0.2045
  672ERGO    C1 9081   0.603  11.191   8.887 -0.2880  0.1669 -0.0273
  672ERGO    C2 9082   0.453  11.191   8.628 -0.2676 -0.0170  0.0566
  673ERGO   ROH 9083   9.212  14.127   9.879  0.1442  0.3131 -0.0461
  673ERGO    R1 9084   9.142  13.993   9.640  0.1843  0.2132 -0.0044
  673ERGO    R2 9085   8.947  14.088   9.467 -0.0342 -0.0329  0.0864
  673ERGO    R3 9086   9.147  14.068   9.284 -0.0956  0.2125 -0.0083
  673ERGO    R4 9087   8.900  14.077   9.125 -0.1717 -0.1067  0.1081
  673ERGO    R5 9088   9.057  13.926   9.113  0.0112  0.0947  0.0409
  673ERGO    C1 9089   9.060  14.052   8.753 -0.3092  0.0808  0.0320
  673ERGO    C2 9090   9.075  14.109   8.403 -0.0856  0.0766 -0.0252
  674ERGO   ROH 9091  16.979   9.141   9.521  0.0171  0.0173 -0.0477
  674ERGO    R1 9092  16.990   9.246   9.258  0.0590 -0.0966 -0.0914
  674ERGO    R2 9093  17.015   9.516   9.206 -0.0478 -0.1102 -0.2034
  674ERGO    R3 9094  17.228   9.434   9.058  0.0405 -0.0775 -0.0969
  674ERGO    R4 9095  17.107   9.650   8.901 -0.0375 -0.2248 -0.2517
  674ERGO    R5 9096  17.152   9.449   8.832  0.0931 -0.2431 -0.1288
  674ERGO    C1 9097  17.360   9.651   8.585  0.0514 -0.2608 -0.1798
  674ERGO    C2 9098  17.374   9.672   8.131 -0.2573  0.0450 -0.1508
  675PSPI    C1 9099   5.037   4.047   5.939 -0.0662  0.1035  0.6313
  675PSPI    C2 9100   5.075   3.651   5.901  0.1250  0.1580  0.1858
  675PSPI    C3 9101   4.779   3.842   5.712  0.3281  0.2847 -0.0097
  675PSPI   PO4 9102   5.074   4.060   6.178 -0.2887 -0.1986  0.0827
  675PSPI   GL1 9103   4.919   3.953   6.533  0.1555  0.1246  0.1563
  675PSPI   GL2 9104   5.181   3.668   6.571 -0.0080 -0.1625  0.0380
  675PSPI   C1A 9105   5.087   4.104   6.913 -0.5349 -0.2593 -0.2467
  675PSPI   C2A 9106   5.168   4.056   7.403 -0.2238  0.2264 -0.0336
  675PSPI   C3A 9107   5.483   3.954   7.728 -0.0823  0.0194  0.1336
  675PSPI   C4A 9108   5.868   3.917   8.056 -0.0601  0.3088  0.0563
  675PSPI   C1B 9109   5.176   3.632   6.961  0.0859  0.2622  0.1832
  675PSPI   C2B 9110   5.343   3.594   7.302  0.1480 -0.1818 -0.0588
  675PSPI   C3B 9111   5.489   3.460   7.702 -0.1062  0.0608 -0.1043
  675PSPI   C4B 9112   5.386   3.085   7.961 -0.3335 -0.1705  0.0916
  676PSPI    C1 9113  14.428  13.478   5.456 -0.0525 -0.1463  0.0261
  676PSPI    C2 9114  14.427  13.078   5.447  0.2152 -0.1555  0.2491
  676PSPI    C3 9115  14.741  13.281   5.305  0.0323 -0.0180  0.0327
  676PSPI   PO4 9116  14.400  13.631   5.668  0.2038  0.1393  0.0731
  676PSPI   GL1 9117  14.435  13.777   6.030  0.0101 -0.0598  0.3323
  676PSPI   GL2 9118  14.196  13.529   6.125  0.1775  0.0160  0.1005
  676PSPI   C1A 9119  14.446  13.697   6.565 -0.4345 -0.1486 -0.0824
  676PSPI   C2A 9120  14.216  13.647   6.941 -0.0863 -0.3731  0.1474
  676PSPI   C3A 9121  14.030  13.755   7.379  0.2487  0.0798  0.0650
  676PSPI   C4A 9122  14.297  13.771   7.747  0.0175  0.0983 -0.0578
  676PSPI   C1B 9123  13.935  13.431   6.438  0.1818 -0.0367  0.0456
  676PSPI   C2B 9124  13.676  13.544   6.844  0.1057 -0.1432  0.1064
  676PSPI   C3B 9125  13.588  13.541   7.262  0.0007 -0.0994  0.0290
  676PSPI   C4B 9126  13.550  13.378   7.637  0.1337  0.0514 -0.3133
  677PSPI    C1 9127  15.740   2.950   6.112  0.0193  0.0406 -0.2096
  677PSPI    C2 9128  15.923   2.685   6.348 -0.0071  0.1445 -0.0712
  677PSPI    C3 9129  15.983   2.675   5.953  0.0271 -0.0384 -0.0626
  677PSPI   PO4 9130  15.708   3.201   6.140 -0.5513 -0.1915  0.1723
  677PSPI   GL1 9131  15.800   3.577   6.496 -0.0052 -0.0066  0.0992
  677PSPI   GL2 9132  16.115   3.517   6.528  0.0571 -0.0485 -0.0377
  677PSPI   C1A 9133  15.641   3.699   6.896  0.0484  0.0530 -0.1948
  677PSPI   C2A 9134  15.475   3.680   7.405  0.0881 -0.0679 -0.0365
  677PSPI   C3A 9135  15.548   3.801   7.812 -0.3663 -0.1240  0.1295
  677PSPI   C4A 9136  15.677   3.959   8.255 -0.1475 -0.1303  0.3864
  677PSPI   C1B 9137  16.049   3.913   6.850  0.0441  0.1027  0.2462
  677PSPI   C2B 9138  16.093   4.225   7.081  0.0362  0.1170  0.0418
  677PSPI   C3B 9139  16.256   4.378   7.363  0.3062  0.1474  0.0623
  677PSPI   C4B 9140  16.482   4.540   7.643 -0.1799  0.3164 -0.1707
  678PSPI    C1 9141   6.696   6.492   5.852 -0.1614 -0.0653  0.1726
  678PSPI    C2 9142   6.670   6.851   5.677 -0.1725 -0.0103  0.2863
  678PSPI    C3 9143   6.534   6.526   5.487 -0.0507  0.0277  0.1317
  678PSPI   PO4 9144   6.942   6.510   5.948 -0.1542  0.0301 -0.0623
  678PSPI   GL1 9145   7.101   6.484   6.332  0.3988  0.2261 -0.5664
  678PSPI   GL2 9146   6.802   6.603   6.471  0.0126  0.1981  0.1760
  678PSPI   C1A 9147   7.379   6.505   6.629 -0.0615 -0.1476 -0.1408
  678PSPI   C2A 9148   7.567   6.626   6.976 -0.0018 -0.0937 -0.2424
  678PSPI   C3A 9149   7.529   6.379   7.272 -0.1684  0.0252  0.2830
  678PSPI   C4A 9150   7.754   6.189   7.673  0.3072 -0.0872  0.4154
  678PSPI   C1B 9151   6.945   6.660   6.850 -0.1332 -0.0552 -0.2613
  678PSPI   C2B 9152   7.050   6.616   7.298 -0.0358 -0.0900 -0.0313
  678PSPI   C3B 9153   7.193   6.706   7.594 -0.1496  0.1464 -0.1767
  678PSPI   C4B 9154   7.419   6.544   7.727 -0.0003 -0.3089  0.0071
  679PSPI    C1 9155  16.436  14.515   5.788  0.0864 -0.0217  0.0514
  679PSPI    C2 9156  16.794  14.671   5.702  0.1292 -0.1229  0.0440
  679PSPI    C3 9157  16.769  14.308   5.866  0.0207 -0.2195 -0.1820
  679PSPI   PO4 9158  16.251  14.723   5.810 -0.0977  0.1556 -0.1320
  679PSPI   GL1 9159  16.095  14.957   6.116  0.0800  0.3513  0.0586
  679PSPI   GL2 9160  15.935  14.764   6.342 -0.1163  0.0145 -0.1334
  679PSPI   C1A 9161  15.985  15.311   6.419 -0.3036  0.0359  0.0302
  679PSPI   C2A 9162  16.196  15.364   6.892  0.0993  0.0714  0.0316
  679PSPI   C3A 9163  16.293  15.318   7.280 -0.1111 -0.1540 -0.1725
  679PSPI   C4A 9164  16.090  15.159   7.693 -0.0994  0.1304  0.0039
  679PSPI   C1B 9165  15.968  14.774   6.700 -0.0752  0.1256 -0.4488
  679PSPI   C2B 9166  16.061  14.900   7.136  0.1428  0.1188  0.2146
  679PSPI   C3B 9167  15.902  14.630   7.559  0.2198 -0.0262 -0.5566
  679PSPI   C4B 9168  16.055  14.647   7.957  0.2086  0.0566 -0.0813
  680PSPI    C1 9169  11.604   2.117   5.331 -0.0030 -0.0641  0.4670
  680PSPI    C2 9170  11.725   1.756   5.208  0.0938  0.1106  0.0305
  680PSPI    C3 9171  11.989   2.055   5.242 -0.0681  0.2711 -0.1004
  680PSPI   PO4 9172  11.481   2.084   5.497 -0.2996  0.0426  0.1698
  680PSPI   GL1 9173  11.538   1.896   5.932  0.1759 -0.1552  0.1553
  680PSPI   GL2 9174  11.429   2.206   6.055 -0.0350  0.2279  0.0408
  680PSPI   C1A 9175  11.620   1.871   6.358  0.0942 -0.0546  0.0232
  680PSPI   C2A 9176  11.538   1.749   6.874  0.2162  0.1353 -0.1277
  680PSPI   C3A 9177  11.466   1.854   7.245  0.1308 -0.0772 -0.0061
  680PSPI   C4A 9178  11.551   1.943   7.640 -0.4861  0.0627  0.0760
  680PSPI   C1B 9179  11.480   2.349   6.475  0.2967  0.2138 -0.2842
  680PSPI   C2B 9180  11.539   2.255   6.908 -0.2371 -0.0880  0.1485
  680PSPI   C3B 9181  11.712   2.425   7.297  0.1968 -0.0923  0.1285
  680PSPI   C4B 9182  11.861   2.410   7.766 -0.1218 -0.0671 -0.1958
  681PSPI    C1 9183  14.980  16.996   5.813  0.2470 -0.1587 -0.1762
  681PSPI    C2 9184  15.347  17.013   5.970  0.1064  0.1323  0.1352
  681PSPI    C3 9185  15.124  17.344   5.948 -0.0113  0.0288 -0.3724
  681PSPI   PO4 9186  14.970  16.743   5.894 -0.1764 -0.2086  0.1459
  681PSPI   GL1 9187  14.804  16.551   6.202  0.2094  0.3133 -0.0265
  681PSPI   GL2 9188  14.558  16.337   6.231  0.2151  0.1998 -0.0830
  681PSPI   C1A 9189  15.102  16.155   6.316 -0.0846  0.0636 -0.0823
  681PSPI   C2A 9190  15.246  16.037   6.737 -0.0526 -0.0455  0.1506
  681PSPI   C3A 9191  15.250  15.863   7.072 -0.0369 -0.1280 -0.1676
  681PSPI   C4A 9192  15.268  15.983   7.467 -0.1228 -0.0043 -0.1618
  681PSPI   C1B 9193  14.406  16.332   6.651  0.2914  0.2249  0.0074
  681PSPI   C2B 9194  14.398  16.389   7.160  0.4558  0.2397  0.2195
  681PSPI   C3B 9195  14.440  16.553   7.548  0.0388  0.0871  0.1030
  681PSPI   C4B 9196  14.457  16.958   7.816 -0.0816 -0.2398 -0.1518
  682PSPI    C1 9197   6.672  14.825   5.367  0.3802  0.2681 -0.1018
  682PSPI    C2 9198   6.604  15.215   5.426 -0.4202  0.1172  0.0986
  682PSPI    C3 9199   6.557  15.057   5.062 -0.1014  0.1986  0.0187
  682PSPI   PO4 9200   6.825  14.786   5.539 -0.0706  0.2247 -0.0727
  682PSPI   GL1 9201   6.900  15.065   5.932 -0.0407  0.2168  0.2318
  682PSPI   GL2 9202   6.746  15.346   5.891 -0.1408  0.2527  0.0733
  682PSPI   C1A 9203   6.594  14.962   6.190  0.1522  0.2690 -0.2249
  682PSPI   C2A 9204   6.221  15.200   6.308  0.2280  0.2702 -0.0221
  682PSPI   C3A 9205   6.043  15.494   6.322 -0.1606 -0.0766 -0.0948
  682PSPI   C4A 9206   6.003  15.839   6.575 -0.1226 -0.1050 -0.1463
  682PSPI   C1B 9207   6.614  15.533   6.156 -0.0747  0.3634  0.1339
  682PSPI   C2B 9208   6.461  15.667   6.528  0.0132  0.0395  0.2417
  682PSPI   C3B 9209   6.498  15.768   6.935  0.4901  0.1201  0.0597
  682PSPI   C4B 9210   6.587  15.649   7.334  0.0287  0.0400 -0.0682
  683PSPI    C1 9211  14.512   5.834   4.881 -0.0282 -0.0393 -0.1894
  683PSPI    C2 9212  14.785   5.551   4.956 -0.1792 -0.1506 -0.0505
  683PSPI    C3 9213  14.799   5.757   4.613  0.0451 -0.1932 -0.0687
  683PSPI   PO4 9214  14.512   5.980   5.127  0.0074 -0.0914 -0.0913
  683PSPI   GL1 9215  14.333   6.011   5.530  0.0868  0.1316 -0.0891
  683PSPI   GL2 9216  14.533   5.911   5.749 -0.1549 -0.0678  0.0473
  683PSPI   C1A 9217  14.105   5.989   5.972 -0.1543 -0.1048 -0.1877
  683PSPI   C2A 9218  14.370   5.937   6.308  0.0195 -0.2350 -0.1578
  683PSPI   C3A 9219  14.514   5.924   6.691  0.0943  0.1978  0.2109
  683PSPI   C4A 9220  14.855   6.014   6.966 -0.1291 -0.0236 -0.2048
  683PSPI   C1B 9221  14.597   6.208   5.964  0.1568 -0.1163  0.2845
  683PSPI   C2B 9222  14.396   6.426   6.252 -0.2229 -0.1075  0.1644
  683PSPI   C3B 9223  14.549   6.405   6.646 -0.1898 -0.3245 -0.0296
  683PSPI   C4B 9224  14.534   6.380   7.039  0.1611 -0.1790 -0.0917
  684PSPI    C1 9225  13.176   3.986   5.491 -0.2415 -0.3663  0.0806
  684PSPI    C2 9226  13.336   3.983   5.125  0.0159 -0.3214  0.1906
  684PSPI    C3 9227  12.969   3.837   5.183 -0.0895 -0.1861 -0.1122
  684PSPI   PO4 9228  13.248   4.276   5.628 -0.0581  0.0468  0.1025
  684PSPI   GL1 9229  13.317   4.510   5.994  0.1872  0.0184  0.2908
  684PSPI   GL2 9230  13.658   4.462   5.880  0.0751  0.0244 -0.0583
  684PSPI   C1A 9231  13.282   4.721   6.406  0.1571 -0.0600 -0.0809
  684PSPI   C2A 9232  13.394   4.475   6.757 -0.3316  0.0312 -0.1300
  684PSPI   C3A 9233  13.365   4.499   7.184 -0.0905  0.1152  0.0801
  684PSPI   C4A 9234  13.391   4.763   7.547  0.0469 -0.0770 -0.0041
  684PSPI   C1B 9235  13.938   4.747   6.078  0.0988 -0.0167 -0.2418
  684PSPI   C2B 9236  14.192   4.924   6.443 -0.0619  0.2873  0.2643
  684PSPI   C3B 9237  14.207   4.856   6.946  0.0510 -0.1129  0.0413
  684PSPI   C4B 9238  14.323   4.972   7.532  0.2010 -0.2837  0.2432
  685PSPI    C1 9239  17.163  13.975   5.980  0.1680  0.0980  0.2250
  685PSPI    C2 9240  17.488  13.774   6.098  0.0997 -0.0030  0.2415
  685PSPI    C3 9241  17.236  13.610   5.835  0.1609  0.1519  0.0845
  685PSPI   PO4 9242  17.059  14.088   6.191  0.0078  0.0737 -0.2883
  685PSPI   GL1 9243  16.835  14.140   6.600  0.0816 -0.1195  0.0980
  685PSPI   GL2 9244  16.625  13.893   6.605  0.1004  0.0278 -0.5577
  685PSPI   C1A 9245  16.615  14.334   6.876 -0.1419  0.0204  0.1018
  685PSPI   C2A 9246  16.663  14.396   7.310 -0.0282 -0.0306 -0.0119
  685PSPI   C3A 9247  16.806  14.209   7.766  0.4134  0.0120  0.1192
  685PSPI   C4A 9248  16.963  14.239   8.110  0.0869  0.0640 -0.1803
  685PSPI   C1B 9249  16.345  13.922   7.010  0.3311 -0.1223 -0.0637
  685PSPI   C2B 9250  16.049  13.899   7.313 -0.0321  0.0739  0.1644
  685PSPI   C3B 9251  15.900  13.734   7.715  0.1004 -0.1144  0.4258
  685PSPI   C4B 9252  15.855  13.694   8.215 -0.0866  0.2045  0.4124
  686PSPI    C1 9253  11.731   6.965   5.474  0.2497 -0.2065 -0.1054
  686PSPI    C2 9254  11.332   6.976   5.446  0.2403 -0.0970  0.0582
  686PSPI    C3 9255  11.542   6.730   5.211  0.0981  0.0587 -0.2378
  686PSPI   PO4 9256  11.773   7.173   5.648 -0.2145  0.3455  0.2008
  686PSPI   GL1 9257  11.972   7.508   5.865 -0.1240  0.2156  0.1005
  686PSPI   GL2 9258  12.281   7.652   5.998  0.1564 -0.2177 -0.0319
  686PSPI   C1A 9259  12.046   7.263   6.245 -0.2354  0.0568 -0.4083
  686PSPI   C2A 9260  11.806   7.092   6.544  0.0808 -0.3216 -0.1125
  686PSPI   C3A 9261  11.657   7.118   6.934 -0.5233  0.2262 -0.2528
  686PSPI   C4A 9262  11.658   7.174   7.365 -0.2744  0.3231 -0.1549
  686PSPI   C1B 9263  12.031   7.754   6.417 -0.0373 -0.1042 -0.2921
  686PSPI   C2B 9264  11.663   7.546   6.676 -0.1836 -0.3038  0.2081
  686PSPI   C3B 9265  11.578   7.597   7.133  0.0191  0.1651  0.0376
  686PSPI   C4B 9266  11.469   7.629   7.523  0.2889  0.0793 -0.2135
  687PSPI    C1 9267   7.437   5.755   5.694 -0.1652  0.1249 -0.0175
  687PSPI    C2 9268   7.470   5.729   5.297  0.0878  0.4099 -0.0179
  687PSPI    C3 9269   7.160   5.922   5.459 -0.1473  0.0821 -0.0693
  687PSPI   PO4 9270   7.605   5.877   5.764  0.0628 -0.2998  0.1727
  687PSPI   GL1 9271   7.533   6.044   6.196 -0.0626 -0.3340  0.1560
  687PSPI   GL2 9272   7.714   5.853   6.335 -0.1408 -0.1373  0.0752
  687PSPI   C1A 9273   7.435   6.028   6.655  0.2504 -0.0471 -0.0273
  687PSPI   C2A 9274   7.562   5.948   6.986  0.1526 -0.1181 -0.2630
  687PSPI   C3A 9275   7.548   5.864   7.362 -0.2154 -0.0223  0.2831
  687PSPI   C4A 9276   7.721   5.532   7.551  0.1036 -0.1619  0.1631
  687PSPI   C1B 9277   7.891   5.693   6.716  0.2171 -0.4107 -0.1682
  687PSPI   C2B 9278   8.068   5.508   7.110  0.1465 -0.1495  0.2854
  687PSPI   C3B 9279   8.217   5.406   7.484  0.3436  0.0439  0.0160
  687PSPI   C4B 9280   8.341   5.309   7.890  0.2137  0.1836 -0.1202
  688PSPI    C1 9281  12.786   7.632   5.773 -0.0060 -0.0823  0.1457
  688PSPI    C2 9282  12.721   7.285   5.585 -0.0360  0.0540 -0.0996
  688PSPI    C3 9283  12.504   7.608   5.490 -0.1089  0.1058  0.2301
  688PSPI   PO4 9284  13.008   7.499   5.946  0.1421  0.0986 -0.3995
  688PSPI   GL1 9285  13.316   7.720   6.157  0.0253  0.1311  0.2706
  688PSPI   GL2 9286  13.139   7.948   6.193 -0.2665 -0.1934 -0.0579
  688PSPI   C1A 9287  13.353   7.737   6.590 -0.0185  0.1020  0.0884
  688PSPI   C2A 9288  13.319   7.792   7.023  0.1810 -0.1706  0.0412
  688PSPI   C3A 9289  13.467   7.779   7.382 -0.0315 -0.0109  0.1394
  688PSPI   C4A 9290  13.594   7.526   7.769  0.3214  0.2007 -0.0747
  688PSPI   C1B 9291  12.880   7.864   6.520 -0.0049 -0.0738 -0.1804
  688PSPI   C2B 9292  12.846   7.656   6.860  0.1635  0.1105 -0.1810
  688PSPI   C3B 9293  12.668   7.575   7.265 -0.0486 -0.0529  0.0648
  688PSPI   C4B 9294  12.573   7.785   7.548 -0.0108  0.3603 -0.1642
  689PSPI    C1 9295  16.080  11.623   5.577 -0.2081  0.3222  0.2039
  689PSPI    C2 9296  16.210  11.999   5.617 -0.0647  0.2846  0.0994
  689PSPI    C3 9297  16.462  11.693   5.674 -0.1204  0.2097 -0.0524
  689PSPI   PO4 9298  15.782  11.546   5.770  0.3737 -0.2776  0.0618
  689PSPI   GL1 9299  15.385  11.528   6.044  0.2302 -0.3084  0.1063
  689PSPI   GL2 9300  15.120  11.457   6.038 -0.1055 -0.0525  0.0490
  689PSPI   C1A 9301  15.368  11.492   6.472 -0.1157 -0.0171 -0.2179
  689PSPI   C2A 9302  15.139  11.724   6.764  0.2239 -0.0919 -0.0018
  689PSPI   C3A 9303  14.962  11.812   7.104  0.3143 -0.1440  0.1829
  689PSPI   C4A 9304  14.855  11.735   7.615  0.0360 -0.0081 -0.1930
  689PSPI   C1B 9305  14.796  11.678   6.355  0.1583  0.0900 -0.3812
  689PSPI   C2B 9306  14.629  11.657   6.745 -0.1162 -0.1168  0.2136
  689PSPI   C3B 9307  14.544  11.447   7.282  0.1818 -0.0607  0.0849
  689PSPI   C4B 9308  14.456  11.361   7.662 -0.1340 -0.3238 -0.3571
  690PSPI    C1 9309   6.295   8.361   5.321 -0.0079  0.0488 -0.0946
  690PSPI    C2 9310   6.172   8.738   5.378  0.0194  0.0319  0.0829
  690PSPI    C3 9311   6.523   8.666   5.198  0.0856  0.0948  0.1860
  690PSPI   PO4 9312   6.324   8.236   5.541  0.1793 -0.2503 -0.3353
  690PSPI   GL1 9313   6.418   8.323   6.019 -0.1385  0.0029  0.1784
  690PSPI   GL2 9314   6.152   8.157   6.023  0.2534 -0.1898 -0.0148
  690PSPI   C1A 9315   6.409   8.671   6.456  0.3315  0.3831  0.0983
  690PSPI   C2A 9316   6.251   9.044   6.694 -0.1382 -0.1391 -0.2820
  690PSPI   C3A 9317   6.438   9.103   7.140 -0.2217 -0.1399  0.0811
  690PSPI   C4A 9318   6.316   9.054   7.510  0.0421 -0.0487  0.1431
  690PSPI   C1B 9319   6.035   8.340   6.373  0.2281  0.2262  0.0718
  690PSPI   C2B 9320   5.992   8.467   6.781 -0.5269 -0.0076  0.2402
  690PSPI   C3B 9321   6.159   8.729   7.095  0.1263 -0.1065  0.1855
  690PSPI   C4B 9322   5.891   9.064   7.235 -0.1392  0.1647 -0.2593
  691PSPI    C1 9323   8.751  10.484   5.581  0.0169  0.0379  0.1648
  691PSPI    C2 9324   8.737  10.808   5.347  0.0384 -0.0743  0.0068
  691PSPI    C3 9325   8.408  10.588   5.403  0.0566 -0.1024  0.0038
  691PSPI   PO4 9326   8.915  10.556   5.729 -0.0239  0.1159 -0.0854
  691PSPI   GL1 9327   8.910  10.738   6.118 -0.3913 -0.2564  0.0547
  691PSPI   GL2 9328   8.649  10.570   6.209 -0.0935  0.1645 -0.0199
  691PSPI   C1A 9329   9.040  10.852   6.419  0.0539 -0.1685 -0.1860
  691PSPI   C2A 9330   9.004  10.992   6.919  0.0321  0.0438 -0.0948
  691PSPI   C3A 9331   9.023  11.006   7.274  0.0246 -0.0355  0.0651
  691PSPI   C4A 9332   9.233  10.993   7.685 -0.1065  0.0388  0.0420
  691PSPI   C1B 9333   8.527  10.748   6.686 -0.1984 -0.2287  0.2313
  691PSPI   C2B 9334   8.253  10.851   7.039 -0.2637  0.0893  0.3122
  691PSPI   C3B 9335   8.030  10.659   7.450 -0.0095  0.0108  0.1784
  691PSPI   C4B 9336   7.929  10.741   7.762  0.0701  0.1580 -0.3233
  692PSPI    C1 9337  17.925   7.758   5.833 -0.0364 -0.1329  0.1966
  692PSPI    C2 9338  17.847   8.144   5.906  0.0756 -0.0821  0.0547
  692PSPI    C3 9339  18.065   8.041   5.587 -0.2628 -0.2873 -0.1165
  692PSPI   PO4 9340  17.913   7.550   6.155 -0.0169  0.0239 -0.2485
  692PSPI   GL1 9341  17.543   7.439   6.411 -0.2158 -0.0276 -0.0378
  692PSPI   GL2 9342  17.766   7.518   6.645  0.2297  0.2342  0.0742
  692PSPI   C1A 9343  17.279   7.193   6.676 -0.0859  0.0717 -0.3005
  692PSPI   C2A 9344  16.982   7.081   6.990 -0.0177 -0.2182 -0.1403
  692PSPI   C3A 9345  16.850   7.254   7.405 -0.0158  0.0840  0.0506
  692PSPI   C4A 9346  16.676   7.376   7.751 -0.1543 -0.1815  0.0006
  692PSPI   C1B 9347  17.764   7.620   7.145  0.0640  0.0634 -0.0358
  692PSPI   C2B 9348  17.662   7.689   7.480  0.0132 -0.0285 -0.0029
  692PSPI   C3B 9349  17.535   7.404   7.889 -0.0611  0.2165 -0.1773
  692PSPI   C4B 9350  17.107   7.157   7.946 -0.4544 -0.0796  0.4416
  693PSPI    C1 9351   0.232  14.636   6.052 -0.1710  0.1219  0.2547
  693PSPI    C2 9352   0.574  14.459   6.159 -0.1141  0.1394  0.1046
  693PSPI    C3 9353   0.566  14.853   6.091 -0.1063  0.0999 -0.1338
  693PSPI   PO4 9354   0.057  14.532   6.193  0.1437  0.0378  0.3663
  693PSPI   GL1 9355  -0.054  14.369   6.563  0.0598 -0.1905  0.1774
  693PSPI   GL2 9356  -0.364  14.329   6.526 -0.0295 -0.0172 -0.3500
  693PSPI   C1A 9357  -0.034  14.157   6.967 -0.5499  0.1058  0.0566
  693PSPI   C2A 9358  -0.289  14.076   7.290  0.2898 -0.0473 -0.0956
  693PSPI   C3A 9359  -0.571  14.096   7.663 -0.0613 -0.2507 -0.1735
  693PSPI   C4A 9360  -0.688  14.182   8.052  0.0521  0.0356  0.0310
  693PSPI   C1B 9361  -0.540  14.247   6.909  0.0109  0.0559  0.1567
  693PSPI   C2B 9362  -0.757  14.356   7.302  0.2664 -0.2806  0.0266
  693PSPI   C3B 9363  -1.092  14.207   7.506  0.0197 -0.0107  0.0413
  693PSPI   C4B 9364  -1.101  13.980   7.797  0.2027 -0.3231  0.1251
  694PSPI    C1 9365  12.581   9.158   5.174  0.1795  0.1082  0.1782
  694PSPI    C2 9366  12.290   8.918   5.038  0.3121  0.0014  0.0800
  694PSPI    C3 9367  12.424   9.219   4.811  0.0400  0.2674  0.2636
  694PSPI   PO4 9368  12.431   9.171   5.531  0.2260  0.0370  0.2267
  694PSPI   GL1 9369  12.466   9.085   5.910 -0.0172 -0.0858  0.2225
  694PSPI   GL2 9370  12.381   9.434   5.997 -0.0073 -0.0168 -0.1576
  694PSPI   C1A 9371  12.643   9.109   6.285 -0.0953  0.0143  0.3467
  694PSPI   C2A 9372  12.735   9.214   6.660 -0.0180  0.1410  0.4500
  694PSPI   C3A 9373  12.645   9.025   7.051 -0.0067 -0.1922 -0.2912
  694PSPI   C4A 9374  12.573   8.855   7.457 -0.0599 -0.1831 -0.2447
  694PSPI   C1B 9375  12.672   9.578   6.174 -0.0637  0.3108  0.2415
  694PSPI   C2B 9376  12.594   9.800   6.565 -0.0198  0.1531 -0.1126
  694PSPI   C3B 9377  12.447   9.879   7.045  0.1084 -0.1142 -0.1010
  694PSPI   C4B 9378  12.415   9.849   7.490 -0.0573  0.0426  0.1006
  695POPI    C1 9379  17.184   2.167   5.733  0.0698 -0.0149 -0.2974
  695POPI    C2 9380  16.822   1.998   5.756  0.1202 -0.1168 -0.2445
  695POPI    C3 9381  17.013   2.015   5.405  0.0195  0.0320 -0.2932
  695POPI   PO4 9382  17.322   2.087   5.982  0.0413  0.2700 -0.2001
  695POPI   GL1 9383  17.252   2.150   6.476  0.1609  0.0001  0.0484
  695POPI   GL2 9384  17.296   2.436   6.448  0.2423 -0.4607 -0.1870
  695POPI   C1A 9385  17.622   1.987   6.746  0.1215 -0.4377 -0.1270
  695POPI   D2A 9386  17.610   1.709   7.159 -0.2998 -0.0688 -0.2817
  695POPI   C3A 9387  17.480   1.925   7.458 -0.2227 -0.1125 -0.2959
  695POPI   C4A 9388  17.692   2.072   7.747  0.2081  0.1023 -0.0969
  695POPI   C1B 9389  17.282   2.386   6.895  0.1731  0.0998  0.1247
  695POPI   C2B 9390  17.178   2.379   7.307 -0.1797 -0.0186  0.0812
  695POPI   C3B 9391  16.941   2.301   7.664 -0.0058 -0.2223  0.1908
  695POPI   C4B 9392  16.719   2.113   7.965 -0.0680 -0.1963 -0.0818
  696POPI    C1 9393   2.293  16.166   6.712 -0.0967 -0.0460  0.2944
  696POPI    C2 9394   2.340  15.966   6.368 -0.2391  0.1881  0.1359
  696POPI    C3 9395   2.613  15.932   6.659  0.1120  0.3265 -0.1693
  696POPI   PO4 9396   2.003  16.113   6.773 -0.3074  0.0960 -0.0312
  696POPI   GL1 9397   1.682  16.042   7.090  0.1373  0.3408 -0.1279
  696POPI   GL2 9398   1.916  16.182   7.262 -0.1400 -0.0404 -0.1146
  696POPI   C1A 9399   1.529  16.216   7.565 -0.1293 -0.2782 -0.2456
  696POPI   D2A 9400   1.863  16.124   7.853 -0.0290  0.1173  0.0407
  696POPI   C3A 9401   2.126  16.350   8.052 -0.3137  0.1203  0.2668
  696POPI   C4A 9402   2.535  16.304   8.238 -0.3856  0.0668  0.3745
  696POPI   C1B 9403   2.273  16.283   7.521  0.1109  0.0272  0.0409
  696POPI   C2B 9404   2.479  15.973   7.733 -0.3571 -0.2374  0.3659
  696POPI   C3B 9405   2.836  15.888   8.074 -0.2909 -0.0402 -0.1869
  696POPI   C4B 9406   3.277  15.686   8.048  0.1189 -0.0477 -0.2675
  697POPI    C1 9407  18.253  17.521   5.807  0.4877  0.1194 -0.0458
  697POPI    C2 9408  18.316  17.149   5.674  0.2955  0.0198  0.1356
  697POPI    C3 9409  18.296  17.454   5.415  0.0839 -0.1484 -0.0496
  697POPI   PO4 9410  18.397  17.544   6.010 -0.1199  0.1501 -0.0632
  697POPI   GL1 9411  18.314  17.619   6.426 -0.1420  0.1623  0.1012
  697POPI   GL2 9412  18.065  17.835   6.275 -0.0989 -0.0434 -0.1221
  697POPI   C1A 9413  18.517  17.694   6.799 -0.0796 -0.3245  0.0817
  697POPI   D2A 9414  18.828  17.552   7.016 -0.1491  0.0590  0.0073
  697POPI   C3A 9415  18.842  17.650   7.490 -0.1178 -0.0956  0.0938
  697POPI   C4A 9416  18.950  17.381   7.842 -0.0358  0.3721  0.2573
  697POPI   C1B 9417  17.991  17.844   6.815 -0.0431 -0.0252  0.2765
  697POPI   C2B 9418  18.177  17.876   7.198  0.1021  0.1145 -0.0430
  697POPI   C3B 9419  18.315  17.907   7.566  0.0519  0.0643  0.0056
  697POPI   C4B 9420  18.600  17.798   7.905  0.0245  0.1667  0.0468
  698POPI    C1 9421  13.559   9.100   5.126 -0.0312 -0.1796  0.2347
  698POPI    C2 9422  13.286   9.035   4.841 -0.0667 -0.0509  0.2385
  698POPI    C3 9423  13.343   9.404   4.982  0.3689 -0.0095 -0.0240
  698POPI   PO4 9424  13.521   8.873   5.288 -0.1674  0.2157  0.2153
  698POPI   GL1 9425  13.438   8.894   5.730 -0.1285 -0.3160  0.1278
  698POPI   GL2 9426  13.325   8.689   5.728  0.2544  0.0880 -0.0904
  698POPI   C1A 9427  13.555   9.175   6.064 -0.3597  0.0817 -0.1130
  698POPI   D2A 9428  13.687   9.595   5.984  0.0719  0.3323 -0.1157
  698POPI   C3A 9429  13.426   9.967   6.097  0.0527 -0.0925 -0.0135
  698POPI   C4A 9430  13.295  10.455   6.168  0.3919  0.2590 -0.0079
  698POPI   C1B 9431  13.555   8.657   6.167 -0.2275 -0.3154  0.2986
  698POPI   C2B 9432  13.652   8.655   6.608  0.0268 -0.2201  0.2068
  698POPI   C3B 9433  13.696   8.557   6.959 -0.0902 -0.3118  0.3921
  698POPI   C4B 9434  13.527   8.637   7.303  0.3084 -0.1852 -0.1577
  699POPI    C1 9435  13.405  16.552   5.660  0.0684 -0.1546  0.0809
  699POPI    C2 9436  13.122  16.573   5.378  0.0544 -0.0775  0.1004
  699POPI    C3 9437  13.272  16.908   5.536  0.1582 -0.1180  0.0887
  699POPI   PO4 9438  13.284  16.434   5.870  0.0628 -0.1590  0.0097
  699POPI   GL1 9439  13.168  16.492   6.368 -0.1361 -0.1789  0.2961
  699POPI   GL2 9440  12.969  16.548   6.197  0.1762  0.3011 -0.2835
  699POPI   C1A 9441  13.152  16.437   6.730 -0.1093 -0.0582  0.1727
  699POPI   D2A 9442  13.221  16.497   7.262 -0.0343 -0.1800  0.0912
  699POPI   C3A 9443  13.208  16.787   7.454 -0.0548  0.0607  0.0750
  699POPI   C4A 9444  12.958  17.131   7.410  0.0334  0.0448 -0.3457
  699POPI   C1B 9445  12.646  16.441   6.417  0.2346  0.0060  0.1541
  699POPI   C2B 9446  12.612  16.374   6.820 -0.0749  0.0782  0.0168
  699POPI   C3B 9447  12.345  16.501   7.193  0.1307  0.3858  0.0545
  699POPI   C4B 9448  12.440  16.512   7.602 -0.0814 -0.1258 -0.0884
  700POPI    C1 9449   6.616  11.332   5.248 -0.0443 -0.3872  0.0516
  700POPI    C2 9450   6.962  11.505   5.351 -0.1738 -0.1290  0.0587
  700POPI    C3 9451   6.962  11.140   5.189  0.1216 -0.0307 -0.1721
  700POPI   PO4 9452   6.493  11.523   5.412  0.1216 -0.1021  0.0850
  700POPI   GL1 9453   6.424  11.399   5.886 -0.0896 -0.0758  0.0343
  700POPI   GL2 9454   6.112  11.396   5.911 -0.1416  0.1426 -0.2240
  700POPI   C1A 9455   6.624  11.563   6.225 -0.1829 -0.0278  0.2586
  700POPI   D2A 9456   6.644  11.411   6.534  0.1457  0.1632 -0.1484
  700POPI   C3A 9457   6.983  11.495   6.802 -0.1028  0.0126 -0.1326
  700POPI   C4A 9458   7.158  11.791   7.159  0.1424 -0.4304  0.0868
  700POPI   C1B 9459   6.119  11.451   6.408  0.1346 -0.1850  0.1743
  700POPI   C2B 9460   6.221  11.337   6.929  0.3922  0.1008  0.3504
  700POPI   C3B 9461   6.342  11.163   7.319  0.2339 -0.1467  0.0990
  700POPI   C4B 9462   6.523  11.036   7.712  0.4188  0.2186 -0.3124
  701POPI    C1 9463   5.299  13.782   5.909  0.2542  0.0638 -0.0655
  701POPI    C2 9464   5.255  13.686   5.523  0.0285  0.2076 -0.0775
  701POPI    C3 9465   5.580  13.885   5.644  0.1063  0.1507 -0.1907
  701POPI   PO4 9466   5.100  13.882   5.966  0.0332 -0.2350 -0.0058
  701POPI   GL1 9467   5.000  13.942   6.376 -0.0249 -0.1510 -0.0671
  701POPI   GL2 9468   5.120  14.304   6.301 -0.2951  0.1673  0.1511
  701POPI   C1A 9469   5.017  13.917   6.865 -0.2806 -0.1666 -0.1159
  701POPI   D2A 9470   5.129  13.926   7.254  0.1036  0.1317  0.0717
  701POPI   C3A 9471   5.041  13.640   7.536 -0.0444 -0.0320 -0.1095
  701POPI   C4A 9472   5.034  13.362   7.859  0.0492 -0.0467  0.1261
  701POPI   C1B 9473   5.266  14.353   6.683 -0.0971 -0.2442  0.1205
  701POPI   C2B 9474   5.328  14.363   7.034  0.0968  0.1973 -0.2438
  701POPI   C3B 9475   5.381  14.266   7.477 -0.2437 -0.0296  0.2705
  701POPI   C4B 9476   5.099  14.143   7.737 -0.0738  0.0818 -0.1119
  702POPI    C1 9477   5.343   0.126   6.037 -0.2991  0.1082 -0.0096
  702POPI    C2 9478   5.237   0.492   5.914  0.1164  0.2365  0.0003
  702POPI    C3 9479   5.619   0.412   6.001  0.0188 -0.1824  0.0693
  702POPI   PO4 9480   5.102  -0.000   6.032  0.0303  0.1470  0.0568
  702POPI   GL1 9481   4.727  -0.157   6.385  0.0637  0.1615 -0.0913
  702POPI   GL2 9482   4.957  -0.055   6.520 -0.0665  0.1825 -0.3449
  702POPI   C1A 9483   4.774  -0.517   6.734 -0.2697 -0.1371  0.0221
  702POPI   D2A 9484   4.685  -0.849   6.962  0.1533  0.2156 -0.0816
  702POPI   C3A 9485   4.414  -0.915   7.296 -0.3464 -0.3310  0.0205
  702POPI   C4A 9486   4.400  -0.960   7.806  0.1349 -0.0664 -0.1438
  702POPI   C1B 9487   4.989  -0.080   6.976  0.1210 -0.1099  0.1222
  702POPI   C2B 9488   4.862   0.024   7.308 -0.3415  0.2783  0.0333
  702POPI   C3B 9489   4.952   0.075   7.746 -0.3715  0.2721 -0.1761
  702POPI   C4B 9490   4.705   0.222   8.089  0.1905 -0.2812  0.2422
  703POPI    C1 9491   4.611   9.155   5.268 -0.0242  0.1082 -0.0472
  703POPI    C2 9492   4.488   9.530   5.198 -0.0135  0.1803  0.3032
  703POPI    C3 9493   4.221   9.233   5.222  0.0128  0.0792 -0.4399
  703POPI   PO4 9494   4.843   9.238   5.465 -0.4638 -0.2559  0.0077
  703POPI   GL1 9495   4.847   9.454   5.954  0.0848 -0.1543  0.1863
  703POPI   GL2 9496   5.207   9.617   6.053  0.2764  0.2704 -0.4089
  703POPI   C1A 9497   4.845   9.372   6.466  0.2436  0.0057 -0.1994
  703POPI   D2A 9498   4.653   9.489   6.858 -0.2825  0.2536  0.0605
  703POPI   C3A 9499   4.957   9.675   7.159  0.1328  0.1695 -0.1286
  703POPI   C4A 9500   5.142   9.885   7.441  0.0207 -0.0129  0.0778
  703POPI   C1B 9501   5.296   9.504   6.438  0.0453 -0.0248  0.1394
  703POPI   C2B 9502   5.364   9.598   6.816 -0.3030  0.2879  0.0308
  703POPI   C3B 9503   5.603   9.614   7.218  0.2369 -0.3325  0.2533
  703POPI   C4B 9504   6.016   9.539   7.477 -0.3229 -0.1769  0.0708
  704POPI    C1 9505   9.383  10.318   5.463 -0.1731  0.0722  0.2418
  704POPI    C2 9506   9.058  10.251   5.241 -0.0398 -0.1263  0.1031
  704POPI    C3 9507   9.207  10.621   5.271 -0.1466 -0.0731 -0.0156
  704POPI   PO4 9508   9.374  10.195   5.709 -0.3759  0.0858 -0.0430
  704POPI   GL1 9509   9.642  10.110   6.095 -0.1773  0.1228 -0.1185
  704POPI   GL2 9510   9.421   9.909   6.132  0.1673  0.1841  0.0507
  704POPI   C1A 9511   9.579  10.172   6.572  0.2905 -0.0745  0.1836
  704POPI   D2A 9512   9.527  10.289   7.029 -0.3498 -0.3814 -0.0928
  704POPI   C3A 9513   9.748  10.414   7.416  0.0109  0.0126  0.1683
  704POPI   C4A 9514   9.614  10.655   7.781  0.0148  0.0336  0.2512
  704POPI   C1B 9515   9.308   9.758   6.477  0.2876 -0.0477  0.0668
  704POPI   C2B 9516   9.335   9.812   6.867  0.0324 -0.1006 -0.0147
  704POPI   C3B 9517   9.568   9.861   7.300 -0.0077 -0.0928  0.0234
  704POPI   C4B 9518   9.433  10.011   7.549 -0.1365  0.1060 -0.0541
  705POPI    C1 9519   8.276  11.645   5.793  0.1257  0.0470 -0.0498
  705POPI    C2 9520   8.340  11.592   5.402 -0.0536  0.0239 -0.0771
  705POPI    C3 9521   8.064  11.854   5.525 -0.0652 -0.0390  0.0321
  705POPI   PO4 9522   8.323  11.350   5.940 -0.2028  0.1874  0.1794
  705POPI   GL1 9523   8.112  11.069   6.174  0.2835 -0.0997 -0.1028
  705POPI   GL2 9524   8.157  10.814   6.209  0.0494  0.0746 -0.1157
  705POPI   C1A 9525   7.820  11.400   6.402 -0.0538 -0.0902  0.2572
  705POPI   D2A 9526   7.479  11.522   6.736 -0.0374 -0.0937  0.3329
  705POPI   C3A 9527   7.615  11.549   7.127  0.1285 -0.0378 -0.0252
  705POPI   C4A 9528   7.535  11.823   7.413  0.1581  0.0937 -0.2715
  705POPI   C1B 9529   8.056  10.650   6.443 -0.2924 -0.1074 -0.1195
  705POPI   C2B 9530   7.788  10.533   6.810 -0.0003 -0.1817  0.0804
  705POPI   C3B 9531   7.591  10.606   7.164  0.0112  0.1591  0.3000
  705POPI   C4B 9532   7.361  10.744   7.398  0.1021  0.1933 -0.2052
  706POPI    C1 9533   2.876  15.904   6.254  0.4556  0.0015 -0.2354
  706POPI    C2 9534   3.027  16.093   5.935  0.0101  0.3388 -0.2574
  706POPI    C3 9535   2.655  16.174   6.058  0.0738  0.0056  0.1833
  706POPI   PO4 9536   3.119  15.950   6.400  0.0094  0.0520  0.1463
  706POPI   GL1 9537   3.405  15.918   6.764 -0.2750  0.2535 -0.0434
  706POPI   GL2 9538   3.059  15.920   6.883  0.2119 -0.0948 -0.0201
  706POPI   C1A 9539   3.712  15.668   7.062 -0.3392  0.1300 -0.1122
  706POPI   D2A 9540   4.030  15.406   7.288 -0.2093  0.0684 -0.0180
  706POPI   C3A 9541   4.132  15.239   7.729 -0.0622 -0.0763 -0.2520
  706POPI   C4A 9542   4.388  15.366   8.121 -0.1350  0.0698  0.2263
  706POPI   C1B 9543   3.256  15.859   7.178  0.1692  0.4337 -0.2820
  706POPI   C2B 9544   3.342  15.537   7.464 -0.1716 -0.0080  0.3470
  706POPI   C3B 9545   3.618  15.433   7.774 -0.0487  0.0226 -0.2036
  706POPI   C4B 9546   3.880  15.346   8.145 -0.2489 -0.1682  0.0749
  707POPI    C1 9547  15.241   3.362   5.613  0.1516 -0.3582 -0.1268
  707POPI    C2 9548  15.621   3.484   5.622  0.0559 -0.0578 -0.0561
  707POPI    C3 9549  15.470   3.328   5.287  0.1038  0.2784 -0.2385
  707POPI   PO4 9550  15.246   3.230   5.820  0.1494 -0.0196 -0.2076
  707POPI   GL1 9551  15.240   3.245   6.291  0.1716 -0.0556  0.1963
  707POPI   GL2 9552  15.368   3.380   6.590 -0.0083 -0.3051 -0.0988
  707POPI   C1A 9553  14.857   3.033   6.492 -0.1411 -0.0328  0.2617
  707POPI   D2A 9554  14.444   2.984   6.737 -0.2016  0.0517  0.4151
  707POPI   C3A 9555  14.483   2.669   7.071 -0.2463  0.1684  0.1096
  707POPI   C4A 9556  14.548   2.776   7.398  0.0829 -0.3209 -0.0230
  707POPI   C1B 9557  15.294   3.383   7.009  0.1969 -0.0343 -0.0108
  707POPI   C2B 9558  15.200   3.290   7.320  0.0085  0.0027  0.0923
  707POPI   C3B 9559  15.293   3.226   7.796  0.2886  0.1530 -0.1353
  707POPI   C4B 9560  15.263   3.054   8.301  0.1269 -0.1496  0.0198
  708POPI    C1 9561  10.148  10.043   5.392 -0.1876 -0.0666 -0.2296
  708POPI    C2 9562  10.050   9.661   5.327  0.0260 -0.1401 -0.1319
  708POPI    C3 9563  10.420   9.788   5.248  0.1095 -0.0807  0.3265
  708POPI   PO4 9564  10.043  10.054   5.656 -0.0146 -0.1986 -0.1582
  708POPI   GL1 9565  10.197  10.118   6.040 -0.1973 -0.0147 -0.1444
  708POPI   GL2 9566  10.494  10.152   6.350  0.1055  0.0230 -0.0071
  708POPI   C1A 9567  10.024  10.266   6.424  0.1431 -0.1083  0.1193
  708POPI   D2A 9568   9.966  10.434   6.790  0.0579 -0.0434 -0.2578
  708POPI   C3A 9569  10.145  10.354   7.129  0.1177  0.0914 -0.2624
  708POPI   C4A 9570  10.259  10.285   7.498  0.1149 -0.2442 -0.0838
  708POPI   C1B 9571  10.774  10.303   6.666  0.0690  0.1712  0.0531
  708POPI   C2B 9572  10.920  10.483   7.003  0.1683  0.1001  0.2544
  708POPI   C3B 9573  10.810  10.482   7.451 -0.0283  0.3316 -0.1585
  708POPI   C4B 9574  10.958  10.632   7.855  0.3340 -0.2562  0.2591
  709POPI    C1 9575   4.846  15.221   5.789  0.0445 -0.0274 -0.0465
  709POPI    C2 9576   4.457  15.129   5.814  0.0244  0.0522 -0.0633
  709POPI    C3 9577   4.574  15.448   5.603  0.1037 -0.0040 -0.1047
  709POPI   PO4 9578   4.947  15.097   6.110 -0.0861  0.1408  0.0234
  709POPI   GL1 9579   5.259  15.105   6.478 -0.2600 -0.0326  0.0420
  709POPI   GL2 9580   5.155  14.838   6.526 -0.1804  0.1132  0.0177
  709POPI   C1A 9581   5.065  15.363   6.760 -0.1375 -0.2656 -0.1805
  709POPI   D2A 9582   5.024  15.287   7.264  0.1050  0.0472 -0.1647
  709POPI   C3A 9583   5.244  15.179   7.605  0.0368 -0.2338  0.1346
  709POPI   C4A 9584   5.364  15.397   7.952 -0.0357 -0.1984  0.0285
  709POPI   C1B 9585   5.114  14.889   6.938 -0.0896  0.2770 -0.2252
  709POPI   C2B 9586   4.984  14.819   7.332  0.4647 -0.0455 -0.3893
  709POPI   C3B 9587   5.145  14.633   7.772 -0.1025  0.0584  0.0542
  709POPI   C4B 9588   5.385  14.886   8.044 -0.0493 -0.2407 -0.3743
  710POPI    C1 9589  15.298  14.956   5.764 -0.0940  0.1303  0.0075
  710POPI    C2 9590  15.143  14.931   5.395  0.3142 -0.1537 -0.1522
  710POPI    C3 9591  15.517  15.063   5.447  0.2272 -0.0245  0.1725
  710POPI   PO4 9592  15.162  15.117   5.888  0.3453 -0.2730 -0.0441
  710POPI   GL1 9593  15.018  15.115   6.290  0.3142  0.1936  0.3711
  710POPI   GL2 9594  14.673  15.278   6.457 -0.1097  0.0392  0.0532
  710POPI   C1A 9595  15.074  15.017   6.746  0.1885 -0.1404 -0.1511
  710POPI   D2A 9596  15.034  14.928   7.130 -0.0856  0.0486  0.0178
  710POPI   C3A 9597  15.318  15.192   7.286  0.1062 -0.0706 -0.3754
  710POPI   C4A 9598  15.668  15.039   7.423  0.2166 -0.3108 -0.1383
  710POPI   C1B 9599  14.723  15.374   6.919  0.1197 -0.1342  0.0395
  710POPI   C2B 9600  14.900  15.525   7.201 -0.0386  0.0466 -0.3934
  710POPI   C3B 9601  14.956  15.658   7.679 -0.1058 -0.0290 -0.0220
  710POPI   C4B 9602  14.834  15.910   8.078 -0.0432  0.0341  0.1162
  711POPI    C1 9603  15.751   4.546   6.081 -0.2468 -0.0432 -0.0690
  711POPI    C2 9604  15.740   4.848   5.820 -0.3176  0.0281  0.0156
  711POPI    C3 9605  15.927   4.508   5.724 -0.1579  0.1313 -0.0453
  711POPI   PO4 9606  15.869   4.583   6.253 -0.0601  0.3175 -0.0890
  711POPI   GL1 9607  15.823   5.045   6.381  0.1679 -0.0634  0.2175
  711POPI   GL2 9608  15.961   4.996   6.595  0.3246  0.0310 -0.2249
  711POPI   C1A 9609  15.461   5.226   6.726 -0.1238  0.0883 -0.1102
  711POPI   D2A 9610  15.173   5.238   6.914 -0.3018 -0.1528 -0.1520
  711POPI   C3A 9611  15.102   4.973   7.233  0.0697  0.1670 -0.0779
  711POPI   C4A 9612  14.835   4.658   7.459  0.2310 -0.1568 -0.2477
  711POPI   C1B 9613  15.863   5.098   6.990  0.1574  0.4132  0.1176
  711POPI   C2B 9614  15.616   5.069   7.277  0.0497 -0.2960 -0.2662
  711POPI   C3B 9615  15.558   5.021   7.733 -0.1721 -0.0416  0.0688
  711POPI   C4B 9616  15.489   5.250   8.139  0.1493 -0.0476 -0.0218
  712POPI    C1 9617  17.171  15.046   5.720  0.1273  0.4008 -0.0119
  712POPI    C2 9618  17.120  15.407   5.556  0.0099  0.2887 -0.2253
  712POPI    C3 9619  16.950  15.085   5.389 -0.0422  0.1598  0.0699
  712POPI   PO4 9620  17.016  15.061   5.939  0.0605  0.1966  0.2503
  712POPI   GL1 9621  16.630  14.799   6.137  0.4516  0.0485  0.1483
  712POPI   GL2 9622  16.451  14.460   6.346 -0.2362  0.2834 -0.1019
  712POPI   C1A 9623  16.897  14.688   6.534 -0.2293  0.0836  0.3225
  712POPI   D2A 9624  17.045  14.918   6.823 -0.0627 -0.0932 -0.0586
  712POPI   C3A 9625  16.836  15.240   7.174 -0.1493 -0.2200 -0.0560
  712POPI   C4A 9626  16.684  15.601   7.390 -0.0239 -0.0919  0.0151
  712POPI   C1B 9627  16.152  14.321   6.678 -0.1235  0.1146 -0.3540
  712POPI   C2B 9628  16.119  14.396   7.151 -0.1554 -0.1165 -0.3606
  712POPI   C3B 9629  16.239  14.220   7.616 -0.1181  0.1087  0.0834
  712POPI   C4B 9630  16.167  14.110   7.985  0.1077 -0.2020 -0.0200
  713POPI    C1 9631  13.560   0.491   5.840 -0.2865  0.0430 -0.1749
  713POPI    C2 9632  13.597   0.174   5.599  0.2143  0.0638 -0.1348
  713POPI    C3 9633  13.752   0.527   5.491 -0.1824  0.2545 -0.0974
  713POPI   PO4 9634  13.492   0.415   6.008  0.0048  0.3872  0.1806
  713POPI   GL1 9635  13.540   0.415   6.424  0.0147  0.0138 -0.0130
  713POPI   GL2 9636  13.840   0.340   6.388  0.3655 -0.0279  0.0959
  713POPI   C1A 9637  13.670   0.443   6.877  0.3570 -0.0164  0.4014
  713POPI   D2A 9638  13.856   0.593   7.123 -0.0474 -0.2552  0.0065
  713POPI   C3A 9639  13.720   0.829   7.375  0.3159 -0.0254  0.1297
  713POPI   C4A 9640  13.610   1.227   7.627  0.0513  0.3369  0.1097
  713POPI   C1B 9641  13.922   0.035   6.649 -0.2154  0.4210 -0.2089
  713POPI   C2B 9642  14.075  -0.017   7.072  0.0238  0.0694  0.2527
  713POPI   C3B 9643  13.988   0.151   7.474 -0.1141  0.0279  0.2415
  713POPI   C4B 9644  13.837   0.437   7.743 -0.1794 -0.1193 -0.2922
  714POPI    C1 9645  13.369  10.211   5.370 -0.0208  0.1844 -0.0023
  714POPI    C2 9646  13.336   9.839   5.226  0.4229 -0.0366  0.4368
  714POPI    C3 9647  13.386  10.147   4.976 -0.0187 -0.2553  0.0636
  714POPI   PO4 9648  13.563  10.168   5.540 -0.1070 -0.2184 -0.2670
  714POPI   GL1 9649  13.634  10.533   5.796 -0.0701  0.1914 -0.0762
  714POPI   GL2 9650  13.377  10.700   5.734 -0.0206  0.0508  0.3507
  714POPI   C1A 9651  13.787  10.240   6.147 -0.0029 -0.0986 -0.1032
  714POPI   D2A 9652  14.013  10.301   6.526  0.0973 -0.3005 -0.2267
  714POPI   C3A 9653  14.303  10.141   6.743  0.1605  0.0496  0.0624
  714POPI   C4A 9654  14.446   9.783   6.805  0.1232  0.4585  0.2236
  714POPI   C1B 9655  13.348  10.948   6.184 -0.1191 -0.0394 -0.0546
  714POPI   C2B 9656  13.418  10.991   6.658  0.1562  0.2461  0.1104
  714POPI   C3B 9657  13.559  10.844   7.027 -0.1421 -0.1776 -0.0946
  714POPI   C4B 9658  13.717  10.791   7.481 -0.0102  0.2651  0.1180
  715POPI    C1 9659  14.487   9.688   5.499  0.0768  0.1087  0.0144
  715POPI    C2 9660  14.281   9.919   5.246  0.2022  0.0940 -0.1019
  715POPI    C3 9661  14.660  10.009   5.336  0.2689 -0.0943 -0.1884
  715POPI   PO4 9662  14.313   9.473   5.529  0.1010 -0.3130 -0.2913
  715POPI   GL1 9663  14.163   9.401   5.900 -0.2006 -0.4672  0.0664
  715POPI   GL2 9664  14.151   9.777   5.925  0.0958  0.2371  0.0075
  715POPI   C1A 9665  14.051   9.355   6.265  0.2960  0.1326  0.0690
  715POPI   D2A 9666  13.816   9.412   6.603 -0.1699 -0.5190 -0.1064
  715POPI   C3A 9667  13.746   9.154   6.988  0.1562  0.0199 -0.2036
  715POPI   C4A 9668  14.026   9.018   7.282 -0.1395  0.1060 -0.1186
  715POPI   C1B 9669  13.885   9.809   6.384  0.0072  0.1136 -0.3327
  715POPI   C2B 9670  13.563  10.044   6.652  0.1039  0.3463  0.0347
  715POPI   C3B 9671  13.373  10.069   7.058 -0.2646  0.0916 -0.1889
  715POPI   C4B 9672  13.428  10.414   7.399  0.1723  0.2253  0.0761
  716POPI    C1 9673   0.818  11.192   5.650 -0.1423 -0.0008  0.3109
  716POPI    C2 9674   0.519  11.456   5.673 -0.2528 -0.1124  0.1725
  716POPI    C3 9675   0.459  11.100   5.500  0.0519 -0.0035 -0.1706
  716POPI   PO4 9676   0.975  11.177   5.947 -0.1302 -0.1197 -0.4562
  716POPI   GL1 9677   1.097  11.468   6.284  0.0520  0.2465  0.1672
  716POPI   GL2 9678   1.005  11.662   6.321  0.1602  0.0312 -0.1072
  716POPI   C1A 9679   0.669  11.314   6.572 -0.0887  0.2145  0.0937
  716POPI   D2A 9680   0.631  11.388   6.953  0.2864 -0.2613 -0.4558
  716POPI   C3A 9681   0.720  11.214   7.405  0.2556 -0.2221 -0.0331
  716POPI   C4A 9682   0.557  10.854   7.682  0.1462  0.2176  0.0985
  716POPI   C1B 9683   0.917  11.723   6.750 -0.2341  0.2706  0.3265
  716POPI   C2B 9684   0.889  11.773   7.250 -0.1151 -0.0234 -0.0414
  716POPI   C3B 9685   0.760  11.657   7.712 -0.0418  0.2766 -0.0972
  716POPI   C4B 9686   0.738  11.293   7.917 -0.2294 -0.0890 -0.0720
  717POPI    C1 9687   1.976   8.926   5.922 -0.3289 -0.0593  0.1498
  717POPI    C2 9688   1.851   9.301   5.985 -0.0288  0.1403 -0.3711
  717POPI    C3 9689   1.835   9.144   5.618 -0.1597 -0.3681 -0.1574
  717POPI   PO4 9690   1.763   8.795   6.173 -0.1359 -0.0190 -0.0077
  717POPI   GL1 9691   1.552   8.532   6.497  0.2768 -0.1041 -0.2915
  717POPI   GL2 9692   1.356   8.367   6.592 -0.1143  0.1255 -0.0882
  717POPI   C1A 9693   1.865   8.625   6.804 -0.0797 -0.1190 -0.0145
  717POPI   D2A 9694   1.901   8.822   7.101  0.0579 -0.2405  0.2037
  717POPI   C3A 9695   2.046   9.251   6.943 -0.1519  0.0204  0.1764
  717POPI   C4A 9696   2.480   9.357   6.787  0.1606  0.1255  0.0152
  717POPI   C1B 9697   1.465   8.292   6.959 -0.0133  0.2144  0.1531
  717POPI   C2B 9698   1.644   8.350   7.326  0.0154 -0.0308 -0.0080
  717POPI   C3B 9699   1.573   8.347   7.620 -0.0765 -0.0053 -0.0665
  717POPI   C4B 9700   1.667   8.552   7.948  0.1758 -0.1236  0.1130
  718POPI    C1 9701   2.738  15.330   6.112  0.0876 -0.0639 -0.0445
  718POPI    C2 9702   2.374  15.288   5.952 -0.0473  0.0847  0.2159
  718POPI    C3 9703   2.506  15.651   6.055  0.2591  0.0577 -0.0656
  718POPI   PO4 9704   2.734  15.084   6.237  0.3784  0.4601  0.0641
  718POPI   GL1 9705   2.620  15.025   6.753 -0.2195 -0.0645  0.0393
  718POPI   GL2 9706   2.925  15.052   6.717 -0.1445  0.0779 -0.1385
  718POPI   C1A 9707   2.668  15.023   7.206 -0.2324  0.0792 -0.1808
  718POPI   D2A 9708   2.664  14.921   7.631  0.2678 -0.3260 -0.1142
  718POPI   C3A 9709   2.932  14.711   7.910  0.0360  0.0114  0.0600
  718POPI   C4A 9710   3.442  14.607   8.026 -0.0424 -0.1910 -0.1390
  718POPI   C1B 9711   3.245  14.778   6.874  0.1276 -0.1735 -0.0216
  718POPI   C2B 9712   3.696  14.675   6.810 -0.1006  0.1728  0.3754
  718POPI   C3B 9713   3.738  14.178   6.711 -0.0279 -0.2537 -0.4606
  718POPI   C4B 9714   4.006  13.981   6.624 -0.0177  0.3519  0.0610
  719POPI    C1 9715   2.610   8.311   5.544  0.1349  0.0708  0.0079
  719POPI    C2 9716   2.227   8.196   5.548  0.1351  0.0638 -0.1180
  719POPI    C3 9717   2.516   7.925   5.494  0.1462  0.0969 -0.2267
  719POPI   PO4 9718   2.589   8.460   5.833  0.1083  0.1233  0.4382
  719POPI   GL1 9719   2.556   8.404   6.206  0.0570  0.1147 -0.2302
  719POPI   GL2 9720   2.788   8.529   6.328 -0.0183 -0.2364  0.1366
  719POPI   C1A 9721   2.561   8.129   6.568 -0.1808 -0.1449 -0.0444
  719POPI   D2A 9722   2.459   7.966   6.979 -0.0808 -0.3584  0.1128
  719POPI   C3A 9723   2.888   7.925   7.228  0.1196 -0.0502 -0.0280
  719POPI   C4A 9724   3.014   7.896   7.627 -0.1869 -0.0310  0.0576
  719POPI   C1B 9725   2.831   8.556   6.736 -0.1437  0.0568 -0.3296
  719POPI   C2B 9726   2.953   8.443   7.050  0.1697 -0.4908 -0.1865
  719POPI   C3B 9727   2.800   8.422   7.404  0.2783 -0.3495  0.0114
  719POPI   C4B 9728   2.571   8.208   7.681 -0.0529  0.1871 -0.0184
  720POPI    C1 9729   8.581   7.244   5.206 -0.2455  0.0337 -0.1975
  720POPI    C2 9730   8.925   7.293   5.008 -0.0983 -0.0081  0.0423
  720POPI    C3 9731   8.605   7.141   4.821  0.0555 -0.1066 -0.1438
  720POPI   PO4 9732   8.625   7.118   5.420  0.1726  0.0057 -0.0930
  720POPI   GL1 9733   8.821   7.167   5.810 -0.0306  0.1937 -0.2371
  720POPI   GL2 9734   8.854   6.840   5.859 -0.0091  0.0244  0.2148
  720POPI   C1A 9735   8.662   7.038   6.211 -0.2504  0.1885 -0.0818
  720POPI   D2A 9736   8.595   7.138   6.575 -0.3511  0.2378  0.0694
  720POPI   C3A 9737   8.255   7.064   6.804  0.4138  0.2242 -0.3547
  720POPI   C4A 9738   8.010   6.787   6.909  0.1024  0.1590  0.1645
  720POPI   C1B 9739   9.210   6.957   6.138  0.0614 -0.1024  0.1493
  720POPI   C2B 9740   9.146   7.044   6.540  0.0637  0.2128 -0.1561
  720POPI   C3B 9741   8.976   7.100   6.878 -0.1549 -0.3097 -0.0174
  720POPI   C4B 9742   8.718   7.445   6.939 -0.0577 -0.1227  0.2356
  721POPI    C1 9743   7.224   7.880   5.878  0.1188 -0.0109 -0.0593
  721POPI    C2 9744   7.245   7.952   5.485 -0.1544 -0.0381 -0.0806
  721POPI    C3 9745   7.391   8.218   5.745  0.0827 -0.0479 -0.2013
  721POPI   PO4 9746   6.993   7.757   5.922  0.1249  0.0180  0.1008
  721POPI   GL1 9747   6.626   7.867   6.308 -0.3239 -0.0832  0.0650
  721POPI   GL2 9748   6.896   7.915   6.387  0.0761 -0.0716 -0.0990
  721POPI   C1A 9749   6.491   8.184   6.581 -0.1839  0.0333 -0.0146
  721POPI   D2A 9750   6.601   8.561   6.866 -0.3338 -0.3633 -0.1999
  721POPI   C3A 9751   6.900   8.737   7.090  0.1332 -0.2033 -0.1659
  721POPI   C4A 9752   7.266   8.715   7.430  0.2064  0.2933 -0.2800
  721POPI   C1B 9753   6.982   8.049   6.706  0.1300 -0.0097  0.0133
  721POPI   C2B 9754   7.118   8.352   7.001 -0.3826  0.0515 -0.1355
  721POPI   C3B 9755   7.588   8.465   7.142  0.0572  0.1653 -0.0846
  721POPI   C4B 9756   7.920   8.793   7.105  0.1755  0.1687  0.1169
  722POPI    C1 9757   2.216  11.770   5.814  0.3917 -0.2812  0.0584
  722POPI    C2 9758   2.425  11.811   5.475  0.0998  0.0115 -0.0907
  722POPI    C3 9759   2.399  12.116   5.732  0.0318 -0.0941  0.0289
  722POPI   PO4 9760   2.238  11.556   5.937  0.0076  0.1109 -0.0565
  722POPI   GL1 9761   2.273  11.303   6.244 -0.2331  0.0211 -0.1651
  722POPI   GL2 9762   2.114  11.124   6.277  0.1869 -0.1907 -0.0156
  722POPI   C1A 9763   2.248  11.475   6.666 -0.0847  0.0348  0.0363
  722POPI   D2A 9764   2.247  11.351   7.078  0.1995  0.3146  0.2569
  722POPI   C3A 9765   2.525  11.289   7.333  0.2195  0.2239  0.0627
  722POPI   C4A 9766   2.856  11.095   7.663  0.1499 -0.0185 -0.1382
  722POPI   C1B 9767   1.984  11.024   6.593  0.0328  0.2582  0.0364
  722POPI   C2B 9768   2.133  10.900   6.944 -0.0983  0.0249  0.3001
  722POPI   C3B 9769   2.059  10.673   7.312 -0.1124  0.1135  0.1620
  722POPI   C4B 9770   1.886  10.765   7.703 -0.0956 -0.1087 -0.0964
  723POPI    C1 9771   3.027  17.101   5.938 -0.3017  0.2014  0.2840
  723POPI    C2 9772   3.159  17.477   5.905 -0.1619  0.1464  0.2107
  723POPI    C3 9773   2.880  17.340   5.653 -0.0384  0.1279  0.0824
  723POPI   PO4 9774   3.147  17.063   6.200  0.0373 -0.0493  0.0086
  723POPI   GL1 9775   3.168  16.887   6.625  0.0419  0.1178  0.1806
  723POPI   GL2 9776   3.461  16.861   6.533  0.0657 -0.0897 -0.2080
  723POPI   C1A 9777   3.165  16.879   7.119 -0.1331  0.2538 -0.0088
  723POPI   D2A 9778   3.150  17.008   7.525 -0.0272 -0.0755  0.0488
  723POPI   C3A 9779   3.495  17.027   7.853 -0.4907  0.3509  0.0203
  723POPI   C4A 9780   3.824  16.848   8.161  0.1421 -0.0152 -0.0576
  723POPI   C1B 9781   3.438  16.429   6.805  0.1475 -0.0936 -0.2677
  723POPI   C2B 9782   3.245  16.366   7.227  0.2104 -0.1001 -0.1021
  723POPI   C3B 9783   3.362  16.537   7.627 -0.0828  0.1948 -0.0880
  723POPI   C4B 9784   3.703  16.433   7.865  0.1756  0.1260  0.1348
  724POPI    C1 9785   1.541  18.085   5.588  0.0426 -0.0573 -0.0153
  724POPI    C2 9786   1.675  17.734   5.454  0.0082 -0.0667 -0.0254
  724POPI    C3 9787   1.320  17.871   5.332  0.0136 -0.0369 -0.0075
  724POPI   PO4 9788   1.539  18.096   5.882  0.2100 -0.2475  0.1751
  724POPI   GL1 9789   1.598  17.931   6.372 -0.1487  0.0450 -0.0470
  724POPI   GL2 9790   1.893  18.006   6.367 -0.1016 -0.1278  0.1910
  724POPI   C1A 9791   1.828  17.549   6.604  0.2786 -0.0507 -0.2696
  724POPI   D2A 9792   1.933  17.101   6.835 -0.2091 -0.1872  0.1099
  724POPI   C3A 9793   2.098  17.112   7.265  0.0907 -0.1284  0.3600
  724POPI   C4A 9794   2.450  17.399   7.328 -0.0184  0.0006  0.1361
  724POPI   C1B 9795   2.051  18.055   6.777 -0.2272  0.0932 -0.4246
  724POPI   C2B 9796   2.436  18.103   7.015  0.0686  0.1713  0.0682
  724POPI   C3B 9797   2.819  18.164   6.833  0.3536 -0.0801  0.2610
  724POPI   C4B 9798   3.201  17.940   7.005  0.2066  0.1896  0.1600
  725POPI    C1 9799  17.451  11.911   5.803  0.0444 -0.0544 -0.3064
  725POPI    C2 9800  17.396  12.273   5.963  0.3000 -0.0766 -0.1635
  725POPI    C3 9801  17.226  12.181   5.613  0.1192  0.1327 -0.1325
  725POPI   PO4 9802  17.759  11.868   5.837 -0.0350 -0.2191 -0.1944
  725POPI   GL1 9803  18.078  11.740   6.253  0.1055 -0.1843 -0.1342
  725POPI   GL2 9804  17.807  11.498   6.233 -0.2596  0.2266  0.2614
  725POPI   C1A 9805  18.230  12.078   6.385  0.1256 -0.1116  0.0323
  725POPI   D2A 9806  18.157  12.525   6.339 -0.0484  0.1291 -0.0945
  725POPI   C3A 9807  18.407  12.860   6.612  0.0300  0.1791  0.1370
  725POPI   C4A 9808  18.517  12.769   6.961  0.1074 -0.0431 -0.2999
  725POPI   C1B 9809  17.913  11.531   6.672  0.1466  0.1996 -0.0648
  725POPI   C2B 9810  18.197  11.755   6.890 -0.0809 -0.3182  0.4405
  725POPI   C3B 9811  18.206  12.085   7.237 -0.2804  0.0802 -0.0153
  725POPI   C4B 9812  18.265  12.149   7.713  0.1851 -0.3276  0.2223
  726POPI    C1 9813   0.301   1.279   6.102 -0.1101  0.0609  0.0192
  726POPI    C2 9814   0.623   1.510   6.047 -0.0184 -0.0412  0.1230
  726POPI    C3 9815   0.588   1.165   5.847 -0.1955  0.1007 -0.0956
  726POPI   PO4 9816   0.336   1.246   6.486  0.4209  0.0034 -0.0006
  726POPI   GL1 9817   0.527   1.071   6.843 -0.0982  0.0210  0.0423
  726POPI   GL2 9818   0.610   1.422   6.944  0.1390  0.0102 -0.1331
  726POPI   C1A 9819   0.279   0.896   7.246 -0.4490  0.0029  0.0362
  726POPI   D2A 9820   0.524   0.854   7.714  0.2094 -0.0875  0.1558
  726POPI   C3A 9821   0.418   0.511   7.947 -0.1571  0.2343 -0.1202
  726POPI   C4A 9822   0.602   0.084   8.082  0.1307  0.1401 -0.0734
  726POPI   C1B 9823   0.309   1.402   7.212 -0.0327 -0.4716  0.0320
  726POPI   C2B 9824   0.014   1.228   7.472  0.3791  0.2679  0.0656
  726POPI   C3B 9825  -0.180   1.287   7.879  0.0049  0.1118 -0.1642
  726POPI   C4B 9826  -0.478   1.268   8.177  0.0037 -0.3745  0.2914
  727POPI    C1 9827   6.446  13.922   6.025  0.0157 -0.0094 -0.0301
  727POPI    C2 9828   6.743  13.910   5.758  0.0221 -0.0045 -0.0232
  727POPI    C3 9829   6.516  13.587   5.819  0.1323 -0.0609  0.0919
  727POPI   PO4 9830   6.550  14.141   6.157  0.0601 -0.1084 -0.0146
  727POPI   GL1 9831   6.579  14.370   6.510 -0.1773 -0.0718  0.1415
  727POPI   GL2 9832   6.856  14.632   6.468 -0.3523  0.2658 -0.4501
  727POPI   C1A 9833   6.493  14.449   6.941 -0.2068 -0.1975  0.3104
  727POPI   D2A 9834   6.332  14.358   7.283  0.1288  0.2397  0.0384
  727POPI   C3A 9835   6.140  14.670   7.485 -0.0564  0.1890  0.0230
  727POPI   C4A 9836   6.137  14.899   7.843  0.1472 -0.3120 -0.2587
  727POPI   C1B 9837   6.857  14.742   6.903 -0.2234  0.1735 -0.1012
  727POPI   C2B 9838   6.765  14.644   7.340 -0.0737  0.0432 -0.0363
  727POPI   C3B 9839   6.571  14.510   7.680 -0.1087  0.0630  0.0186
  727POPI   C4B 9840   6.272  14.395   8.024  0.0877 -0.0203 -0.1530
  728POPI    C1 9841   2.034  16.991   6.169 -0.0714 -0.1767 -0.2458
  728POPI    C2 9842   1.711  17.190   6.296  0.1543 -0.1321  0.2878
  728POPI    C3 9843   1.791  17.167   5.904 -0.1090  0.4601  0.1882
  728POPI   PO4 9844   2.256  17.137   6.355 -0.2240 -0.0567  0.1127
  728POPI   GL1 9845   2.485  17.330   6.621 -0.0982 -0.0524  0.1229
  728POPI   GL2 9846   2.333  17.674   6.507 -0.0408  0.2458  0.2131
  728POPI   C1A 9847   2.860  17.193   6.940 -0.1017 -0.0306  0.2359
  728POPI   D2A 9848   3.173  17.452   7.222  0.0472  0.1988 -0.1863
  728POPI   C3A 9849   2.952  17.467   7.566 -0.0745  0.0194  0.1194
  728POPI   C4A 9850   2.807  17.540   7.958  0.1062  0.0599 -0.0620
  728POPI   C1B 9851   2.234  17.590   6.923 -0.0230  0.2413 -0.0055
  728POPI   C2B 9852   2.030  17.669   7.285 -0.0389  0.2551 -0.2880
  728POPI   C3B 9853   2.008  17.900   7.521  0.2282  0.3466 -0.0437
  728POPI   C4B 9854   1.766  17.809   7.849 -0.1791 -0.1448  0.0860
  729POPI    C1 9855  10.653  13.343   5.480 -0.0651  0.0180  0.0972
  729POPI    C2 9856  10.305  13.325   5.675 -0.1295  0.1035 -0.0086
  729POPI    C3 9857  10.327  13.205   5.294  0.0070 -0.1108  0.0649
  729POPI   PO4 9858  10.842  13.501   5.761  0.0348 -0.2386 -0.0861
  729POPI   GL1 9859  10.690  13.442   6.253 -0.0050 -0.1018 -0.4563
  729POPI   GL2 9860  10.870  13.671   6.191 -0.0623  0.2662  0.1296
  729POPI   C1A 9861  10.405  13.747   6.451  0.1228  0.2438  0.0720
  729POPI   D2A 9862  10.369  13.742   6.906 -0.1410  0.1447  0.1599
  729POPI   C3A 9863  10.024  13.696   7.194 -0.0159  0.0753  0.2699
  729POPI   C4A 9864   9.759  13.475   7.485  0.0476  0.0444  0.0546
  729POPI   C1B 9865  10.846  13.841   6.578 -0.1052  0.0489 -0.2227
  729POPI   C2B 9866  10.889  13.838   7.045 -0.2306 -0.3228 -0.1476
  729POPI   C3B 9867  11.184  13.838   7.339 -0.3212 -0.4304 -0.0715
  729POPI   C4B 9868  11.233  13.900   7.763 -0.1342  0.3274  0.0619
  730POPI    C1 9869  14.276  17.944   5.979 -0.1080 -0.1230 -0.1904
  730POPI    C2 9870  14.399  18.144   5.654 -0.2118  0.1714 -0.0519
  730POPI    C3 9871  14.026  17.999   5.671 -0.2495  0.2720 -0.0116
  730POPI   PO4 9872  14.249  18.058   6.174 -0.0400 -0.0106 -0.0256
  730POPI   GL1 9873  14.396  18.121   6.495 -0.2142  0.1857 -0.2057
  730POPI   GL2 9874  14.643  17.942   6.472 -0.2879  0.1308 -0.1625
  730POPI   C1A 9875  14.246  17.763   6.787  0.0055 -0.1236 -0.0380
  730POPI   D2A 9876  14.163  17.658   7.197  0.2671 -0.2036 -0.2128
  730POPI   C3A 9877  13.973  17.967   7.446 -0.1169  0.2984 -0.1500
  730POPI   C4A 9878  13.851  18.197   7.893  0.1103 -0.0153 -0.0053
  730POPI   C1B 9879  14.834  17.745   6.879 -0.0614  0.0387 -0.1425
  730POPI   C2B 9880  14.789  17.571   7.385 -0.1033 -0.0189  0.3188
  730POPI   C3B 9881  14.789  17.300   7.655  0.0309  0.0329 -0.0589
  730POPI   C4B 9882  14.506  17.439   7.995  0.3193 -0.0811 -0.0449
  731POPI    C1 9883   5.286  13.012   5.426  0.0657 -0.1281  0.0761
  731POPI    C2 9884   5.577  13.285   5.397  0.0392 -0.1088 -0.0097
  731POPI    C3 9885   5.507  13.034   5.094 -0.0420 -0.1048  0.0055
  731POPI   PO4 9886   5.129  13.186   5.616 -0.1126 -0.1653  0.2161
  731POPI   GL1 9887   5.060  13.063   6.038 -0.0215  0.1265  0.1303
  731POPI   GL2 9888   4.911  13.377   6.050 -0.3274  0.0137  0.3026
  731POPI   C1A 9889   4.986  13.086   6.450 -0.2423  0.0134 -0.0397
  731POPI   D2A 9890   4.869  12.842   6.735  0.0602  0.1842  0.3241
  731POPI   C3A 9891   4.874  12.905   7.140 -0.0185 -0.0723  0.1824
  731POPI   C4A 9892   5.099  12.956   7.566  0.2000 -0.0279  0.1213
  731POPI   C1B 9893   4.720  13.511   6.414  0.3305 -0.0650  0.1329
  731POPI   C2B 9894   4.651  13.420   6.866  0.1273  0.0382  0.0882
  731POPI   C3B 9895   4.678  13.365   7.343  0.1502  0.2503 -0.0263
  731POPI   C4B 9896   4.580  13.309   7.738  0.4348 -0.2905 -0.0236
  732POPI    C1 9897   7.041  12.351   5.711 -0.1324  0.0359 -0.0473
  732POPI    C2 9898   7.341  12.395   5.450 -0.0232 -0.1635  0.0421
  732POPI    C3 9899   7.105  12.072   5.431 -0.1878 -0.0434  0.0184
  732POPI   PO4 9900   7.166  12.416   5.997 -0.1676  0.2836  0.0238
  732POPI   GL1 9901   7.244  12.667   6.317 -0.0302  0.0340 -0.0784
  732POPI   GL2 9902   7.582  12.776   6.347  0.1531  0.1146 -0.0800
  732POPI   C1A 9903   7.176  12.856   6.669  0.1377  0.0075  0.0477
  732POPI   D2A 9904   7.094  13.025   7.096 -0.0410  0.0648  0.1281
  732POPI   C3A 9905   7.264  12.766   7.450  0.0628  0.2493  0.0490
  732POPI   C4A 9906   7.458  12.766   7.824  0.0938  0.2387  0.1638
  732POPI   C1B 9907   7.606  12.756   6.863  0.2681 -0.0782  0.2202
  732POPI   C2B 9908   7.757  12.895   7.296  0.2075  0.0948 -0.0722
  732POPI   C3B 9909   8.006  12.750   7.637  0.1364 -0.2480  0.1169
  732POPI   C4B 9910   8.399  12.704   7.935 -0.1098 -0.0832  0.3004
  733POPI    C1 9911  17.286   9.135   5.559 -0.0589  0.1877 -0.1386
  733POPI    C2 9912  17.454   9.068   5.202  0.1114  0.0495 -0.0341
  733POPI    C3 9913  17.062   9.008   5.252  0.0337  0.3346 -0.2689
  733POPI   PO4 9914  17.470   9.057   5.739  0.0847  0.0335 -0.0702
  733POPI   GL1 9915  17.399   9.213   6.098  0.0067 -0.0019  0.3334
  733POPI   GL2 9916  17.142   9.451   6.218 -0.0285 -0.1536 -0.0030
  733POPI   C1A 9917  17.595   9.178   6.501  0.0543 -0.1575 -0.0642
  733POPI   D2A 9918  17.518   9.075   6.883  0.1524  0.0099  0.0278
  733POPI   C3A 9919  17.284   9.045   7.411  0.0869 -0.1963  0.1576
  733POPI   C4A 9920  17.113   8.952   7.784  0.0808 -0.0971  0.0482
  733POPI   C1B 9921  17.132   9.313   6.624 -0.3991 -0.2101 -0.1115
  733POPI   C2B 9922  17.038   9.316   7.018  0.3232 -0.0208 -0.0548
  733POPI   C3B 9923  16.891   9.529   7.367  0.0017  0.1114 -0.0697
  733POPI   C4B 9924  16.565   9.667   7.514  0.0686  0.0820 -0.0319
  734POPI    C1 9925   8.897   0.761   5.638 -0.0990  0.0703 -0.2361
  734POPI    C2 9926   9.106   0.675   5.308  0.0027 -0.1626 -0.1134
  734POPI    C3 9927   8.935   0.381   5.519  0.5295 -0.0982  0.4301
  734POPI   PO4 9928   9.036   0.908   5.746  0.4029 -0.3588  0.0228
  734POPI   GL1 9929   9.188   0.830   6.145 -0.0985 -0.2072 -0.2198
  734POPI   GL2 9930   9.349   1.043   6.119  0.0630 -0.1332  0.4074
  734POPI   C1A 9931   9.299   0.873   6.589  0.2289 -0.0325  0.2375
  734POPI   D2A 9932   9.140   1.077   6.968 -0.1970 -0.0904  0.2588
  734POPI   C3A 9933   9.184   1.166   7.385 -0.2439 -0.2151 -0.2303
  734POPI   C4A 9934   9.339   0.932   7.767 -0.1605  0.1112  0.0884
  734POPI   C1B 9935   9.642   1.186   6.419 -0.2073  0.0032  0.0665
  734POPI   C2B 9936   9.835   1.454   6.603  0.2517  0.0207 -0.1658
  734POPI   C3B 9937  10.210   1.640   6.739 -0.3398 -0.1541  0.4385
  734POPI   C4B 9938  10.366   1.823   7.058  0.0443  0.0064 -0.0602
  735POPI    C1 9939   7.647  13.201   5.890  0.2037 -0.1581  0.0035
  735POPI    C2 9940   7.316  13.425   5.865  0.1501 -0.2129  0.2056
  735POPI    C3 9941   7.602  13.458   5.587  0.1236  0.0749  0.2099
  735POPI   PO4 9942   7.782  13.215   6.117 -0.1546 -0.2408  0.3983
  735POPI   GL1 9943   7.923  13.060   6.555 -0.0278 -0.0739 -0.2154
  735POPI   GL2 9944   7.967  13.287   6.590  0.4224 -0.3480  0.3050
  735POPI   C1A 9945   8.119  12.772   6.935 -0.1430  0.3141  0.3254
  735POPI   D2A 9946   8.001  12.414   7.114 -0.1358  0.2211 -0.0971
  735POPI   C3A 9947   7.741  12.343   7.557  0.0710  0.3264  0.0270
  735POPI   C4A 9948   7.267  12.241   7.614 -0.2635 -0.1497  0.4089
  735POPI   C1B 9949   8.019  13.279   7.050  0.1380 -0.2296  0.3903
  735POPI   C2B 9950   8.114  13.380   7.533  0.1869 -0.0649 -0.1484
  735POPI   C3B 9951   7.944  13.266   7.901 -0.2765  0.3197 -0.1846
  735POPI   C4B 9952   7.880  13.379   8.324 -0.1004  0.2872  0.1723
  736POPI    C1 9953  18.298   5.215   5.506  0.0034  0.1333 -0.1070
  736POPI    C2 9954  18.258   4.878   5.293 -0.0985  0.0509  0.0402
  736POPI    C3 9955  18.555   5.133   5.211  0.0477 -0.1297  0.0010
  736POPI   PO4 9956  18.272   5.085   5.784  0.3915 -0.2030 -0.2617
  736POPI   GL1 9957  18.234   4.990   6.183 -0.1383 -0.0361  0.0310
  736POPI   GL2 9958  17.875   4.884   6.058 -0.1295  0.2408 -0.0847
  736POPI   C1A 9959  18.132   5.045   6.613 -0.1069 -0.0021  0.0072
  736POPI   D2A 9960  18.234   5.169   6.994 -0.2656  0.1172 -0.2723
  736POPI   C3A 9961  18.179   5.128   7.491  0.1281  0.2863  0.2633
  736POPI   C4A 9962  18.046   4.910   7.818 -0.0919 -0.0510 -0.2524
  736POPI   C1B 9963  17.611   4.925   6.433 -0.1005  0.0640  0.0191
  736POPI   C2B 9964  17.728   5.029   6.874 -0.3278  0.0140 -0.0872
  736POPI   C3B 9965  17.797   4.906   7.276 -0.2420 -0.2245  0.1777
  736POPI   C4B 9966  17.667   5.106   7.523  0.0396 -0.4061 -0.0181
  737POPI    C1 9967   1.731   8.070   6.014 -0.0985 -0.0725 -0.0769
  737POPI    C2 9968   1.390   8.252   5.910 -0.3421 -0.4046  0.1228
  737POPI    C3 9969   1.460   7.876   5.794 -0.0391 -0.3378  0.0799
  737POPI   PO4 9970   1.786   8.185   6.215  0.2316  0.1362 -0.3764
  737POPI   GL1 9971   2.066   8.136   6.607 -0.0971  0.0817  0.0585
  737POPI   GL2 9972   1.997   7.780   6.436 -0.0445  0.1956 -0.0159
  737POPI   C1A 9973   2.062   8.249   7.002  0.0665  0.2256 -0.1140
  737POPI   D2A 9974   2.180   8.372   7.372 -0.0627 -0.0092 -0.2324
  737POPI   C3A 9975   1.950   8.733   7.609 -0.0853  0.1562 -0.0849
  737POPI   C4A 9976   1.656   9.025   7.814  0.0599  0.0230  0.0208
  737POPI   C1B 9977   2.291   7.383   6.705  0.0318  0.3958  0.0502
  737POPI   C2B 9978   2.335   7.291   7.163 -0.2416  0.2366 -0.4061
  737POPI   C3B 9979   2.518   7.030   7.575 -0.0939  0.0012 -0.3059
  737POPI   C4B 9980   2.364   7.042   7.941  0.1586 -0.0604 -0.1253
  738POPI    C1 9981   7.222  16.289   5.639 -0.3577  0.0465 -0.0036
  738POPI    C2 9982   7.084  16.535   5.355  0.1979  0.2196 -0.1379
  738POPI    C3 9983   7.078  16.139   5.298 -0.0823  0.2317 -0.2060
  738POPI   PO4 9984   7.018  16.422   5.874  0.0640  0.3908  0.2011
  738POPI   GL1 9985   6.735  16.438   6.252 -0.0115 -0.1652  0.3337
  738POPI   GL2 9986   6.776  16.718   6.406 -0.1001 -0.2692  0.7045
  738POPI   C1A 9987   6.525  16.139   6.546 -0.1436  0.0934  0.0285
  738POPI   D2A 9988   6.415  16.277   6.920 -0.0613 -0.0966 -0.4342
  738POPI   C3A 9989   6.305  16.153   7.272 -0.2198 -0.1729 -0.2514
  738POPI   C4A 9990   6.442  16.229   7.657 -0.0387 -0.0196 -0.2440
  738POPI   C1B 9991   6.717  16.685   6.827  0.1628  0.1819  0.0723
  738POPI   C2B 9992   6.610  16.634   7.255  0.1733 -0.1492  0.2423
  738POPI   C3B 9993   6.774  16.609   7.662 -0.2901  0.0481 -0.0624
  738POPI   C4B 9994   6.648  16.669   8.072 -0.0190 -0.0029  0.0974
  739POPI    C1 9995   7.427  11.155   5.418  0.1045  0.2280 -0.0282
  739POPI    C2 9996   7.766  10.950   5.362  0.0919  0.1149  0.2861
  739POPI    C3 9997   7.467  10.919   5.098  0.3331  0.2361 -0.0076
  739POPI   PO4 9998   7.358  11.163   5.662  0.3961  0.1291 -0.0267
  739POPI   GL1 9999   7.294  11.361   6.043  0.1680 -0.1578  0.0161
  739POPI   GL210000   7.002  11.258   6.130  0.1307 -0.0491 -0.0348
  739POPI   C1A10001   7.108  11.689   6.359 -0.0015 -0.0100  0.2199
  739POPI   D2A10002   7.181  12.131   6.454 -0.0723 -0.2060 -0.2298
  739POPI   C3A10003   7.289  12.129   6.787  0.1490  0.0987 -0.1255
  739POPI   C4A10004   7.495  12.319   7.132  0.2249  0.2786 -0.0122
  739POPI   C1B10005   7.197  11.139   6.465 -0.0941 -0.1408 -0.0596
  739POPI   C2B10006   7.291  11.101   6.896  0.2016  0.2558 -0.2848
  739POPI   C3B10007   7.231  11.355   7.339  0.0592 -0.1194 -0.1773
  739POPI   C4B10008   7.141  11.172   7.763  0.1425 -0.0299  0.0845
  740POPI    C110009   8.643   5.418   5.775 -0.1637 -0.0044  0.1984
  740POPI    C210010   8.257   5.488   5.695 -0.1634  0.2114  0.3738
  740POPI    C310011   8.536   5.561   5.417 -0.2732 -0.2440  0.1336
  740POPI   PO410012   8.564   5.246   5.990  0.3448 -0.3477 -0.1627
  740POPI   GL110013   8.759   5.129   6.303  0.2149  0.0586 -0.1093
  740POPI   GL210014   9.057   5.399   6.260  0.0794  0.0522  0.3643
  740POPI   C1A10015   8.607   4.950   6.733  0.0096 -0.3673 -0.1159
  740POPI   D2A10016   8.399   5.135   7.159 -0.2777 -0.0286 -0.0712
  740POPI   C3A10017   8.524   4.905   7.605 -0.1533 -0.3951 -0.1080
  740POPI   C4A10018   8.594   4.716   8.038 -0.1351  0.0509 -0.1444
  740POPI   C1B10019   9.075   5.365   6.612 -0.0794 -0.0521 -0.0252
  740POPI   C2B10020   9.002   5.358   7.089  0.0256 -0.3751  0.1651
  740POPI   C3B10021   8.805   5.342   7.499  0.0781 -0.2659  0.1004
  740POPI   C4B10022   8.797   5.256   7.909 -0.1655 -0.2006 -0.0367
  741POPI    C110023   4.307   8.605   5.634 -0.1152 -0.1178 -0.0848
  741POPI    C210024   3.979   8.515   5.424 -0.0871 -0.1568 -0.1123
  741POPI    C310025   4.289   8.691   5.243 -0.1318 -0.0285 -0.0646
  741POPI   PO410026   4.221   8.605   5.859 -0.0489  0.3042 -0.0277
  741POPI   GL110027   4.604   8.722   6.142 -0.2325 -0.0111 -0.4045
  741POPI   GL210028   4.378   8.769   6.284  0.0940  0.3781 -0.0759
  741POPI   C1A10029   4.942   8.987   6.168  0.0190 -0.0329 -0.0047
  741POPI   D2A10030   5.333   9.049   6.336 -0.5169 -0.0815  0.1320
  741POPI   C3A10031   5.255   9.036   6.666  0.0554 -0.0617  0.1808
  741POPI   C4A10032   5.381   9.111   7.208 -0.3269 -0.2520  0.1996
  741POPI   C1B10033   4.305   8.633   6.738  0.1879  0.1262 -0.0810
  741POPI   C2B10034   4.331   8.628   7.125  0.1759  0.0105 -0.0506
  741POPI   C3B10035   4.624   8.784   7.487 -0.0684 -0.0865  0.1317
  741POPI   C4B10036   5.103   8.705   7.639  0.0093  0.0047 -0.2034
  742POPS   CNO10037  15.537   6.822   5.110  0.1594 -0.0038 -0.1450
  742POPS   PO410038  15.770   6.995   5.333 -0.6046 -0.1652 -0.0731
  742POPS   GL110039  15.732   7.144   5.831 -0.2284  0.2267  0.1977
  742POPS   GL210040  15.455   6.986   5.719  0.2827  0.2859 -0.3720
  742POPS   C1A10041  15.684   7.067   6.280  0.0732  0.4017  0.1038
  742POPS   D2A10042  15.808   6.929   6.707 -0.1330  0.2383  0.0722
  742POPS   C3A10043  15.556   7.065   7.065 -0.0287  0.0016  0.1675
  742POPS   C4A10044  15.460   7.023   7.523 -0.1581  0.0596 -0.0729
  742POPS   C1B10045  15.233   6.971   6.147 -0.0101 -0.1920 -0.0748
  742POPS   C2B10046  15.247   6.948   6.576  0.1951 -0.0954  0.2654
  742POPS   C3B10047  15.131   7.252   6.887  0.1337  0.0042  0.3471
  742POPS   C4B10048  15.058   7.326   7.390  0.2973 -0.0597 -0.0693
  743POPS   CNO10049   3.591   3.203   6.322 -0.0602  0.1896 -0.1680
  743POPS   PO410050   3.653   2.797   6.151 -0.2205  0.2726 -0.0443
  743POPS   GL110051   3.707   2.642   6.602 -0.0557  0.0431 -0.2252
  743POPS   GL210052   3.594   2.374   6.456 -0.1937  0.1352 -0.0672
  743POPS   C1A10053   3.621   2.515   7.000 -0.1336  0.0836 -0.1749
  743POPS   D2A10054   3.739   2.048   7.130  0.2117  0.0197 -0.1680
  743POPS   C3A10055   3.721   1.929   7.477 -0.1256  0.2037 -0.2044
  743POPS   C4A10056   3.852   1.839   7.897 -0.1716 -0.0744 -0.0557
  743POPS   C1B10057   3.918   2.072   6.663 -0.6017  0.1199 -0.1320
  743POPS   C2B10058   4.364   2.044   6.835  0.2595  0.0177  0.0416
  743POPS   C3B10059   4.415   1.900   7.178  0.1479 -0.3083  0.0099
  743POPS   C4B10060   4.188   1.654   7.485 -0.1298 -0.2719 -0.0416
  744POPS   CNO10061  11.285  13.808   5.808  0.0006  0.0208 -0.1864
  744POPS   PO410062  11.524  13.928   5.502 -0.0586 -0.0704 -0.2527
  744POPS   GL110063  11.725  14.169   5.845 -0.2905  0.0284  0.0745
  744POPS   GL210064  11.999  14.217   5.832 -0.0930  0.0618  0.2832
  744POPS   C1A10065  11.788  14.029   6.317  0.0340  0.0174  0.2424
  744POPS   D2A10066  11.777  14.062   6.653  0.0844 -0.0504  0.1839
  744POPS   C3A10067  12.035  13.879   6.850  0.0975  0.0879 -0.0223
  744POPS   C4A10068  12.023  13.568   7.192 -0.3250 -0.1697  0.1030
  744POPS   C1B10069  12.283  14.218   6.244  0.1134  0.2954 -0.0999
  744POPS   C2B10070  12.424  14.108   6.655 -0.0486  0.0154  0.1757
  744POPS   C3B10071  12.384  14.158   7.115 -0.0827 -0.1851  0.1110
  744POPS   C4B10072  12.401  14.231   7.534  0.0809  0.2009 -0.1796
  745POPS   CNO10073   1.189   9.547   6.325 -0.4058  0.0100  0.1781
  745POPS   PO410074   1.082   9.903   6.138  0.1237 -0.0518  0.0626
  745POPS   GL110075   1.058  10.144   6.469  0.1299 -0.3247 -0.1487
  745POPS   GL210076   0.762  10.154   6.511  0.0676  0.3216 -0.0581
  745POPS   C1A10077   1.124  10.083   6.896  0.0390 -0.2450  0.0587
  745POPS   D2A10078   0.952   9.829   7.215 -0.1126  0.2975  0.2199
  745POPS   C3A10079   1.041   9.564   7.409  0.0008  0.3295  0.0703
  745POPS   C4A10080   1.385   9.533   7.685 -0.0681 -0.1981 -0.0795
  745POPS   C1B10081   0.648  10.214   6.898  0.2240  0.0248  0.1118
  745POPS   C2B10082   0.884  10.287   7.391 -0.1213 -0.0597  0.0670
  745POPS   C3B10083   1.085  10.018   7.739  0.2134  0.1596  0.1259
  745POPS   C4B10084   1.241  10.238   8.093 -0.0869  0.0943 -0.1612
  746POPS   CNO10085   1.935   3.472   5.678 -0.0856 -0.2424  0.0285
  746POPS   PO410086   1.674   3.791   5.850  0.0074 -0.1597  0.0064
  746POPS   GL110087   1.643   3.796   6.311 -0.2063 -0.1489  0.1071
  746POPS   GL210088   1.951   3.960   6.522  0.2227 -0.1215  0.5151
  746POPS   C1A10089   1.387   4.018   6.594 -0.0671 -0.1277 -0.1122
  746POPS   D2A10090   1.303   4.194   6.987 -0.1503 -0.0458 -0.3436
  746POPS   C3A10091   1.219   4.124   7.437  0.1766  0.0568 -0.0462
  746POPS   C4A10092   0.901   4.199   7.672 -0.0139 -0.0852  0.2398
  746POPS   C1B10093   1.742   3.928   6.948 -0.1797 -0.1635  0.3098
  746POPS   C2B10094   1.727   4.176   7.309 -0.0964  0.1107  0.5148
  746POPS   C3B10095   1.922   4.418   7.664 -0.2153  0.0858 -0.2666
  746POPS   C4B10096   1.971   4.486   8.022 -0.1458 -0.1154  0.2226
  747POPS   CNO10097  11.496   3.492   5.436  0.3052  0.2749  0.0503
  747POPS   PO410098  11.451   3.465   5.826 -0.1041 -0.0767  0.2691
  747POPS   GL110099  11.628   3.266   6.167 -0.2711 -0.0218  0.0380
  747POPS   GL210100  11.319   3.245   6.287 -0.1039 -0.0911 -0.0839
  747POPS   C1A10101  11.864   3.292   6.543  0.2333  0.0272 -0.2521
  747POPS   D2A10102  12.081   3.330   6.710  0.4377 -0.1744  0.1502
  747POPS   C3A10103  12.180   3.247   7.065  0.0207 -0.4984  0.1520
  747POPS   C4A10104  12.431   3.367   7.352 -0.0495 -0.4110  0.0593
  747POPS   C1B10105  11.330   3.312   6.757  0.0098 -0.1865 -0.1178
  747POPS   C2B10106  11.090   3.335   7.081  0.4079 -0.1343 -0.2414
  747POPS   C3B10107  11.257   3.179   7.478  0.1702  0.1052  0.2906
  747POPS   C4B10108  11.393   2.798   7.573  0.0361  0.0948 -0.4043
  748POPS   CNO10109  11.798  17.334   5.105  0.1678 -0.0483 -0.3019
  748POPS   PO410110  11.457  17.349   5.377  0.1131 -0.2215 -0.0644
  748POPS   GL110111  11.568  17.392   5.798 -0.0072 -0.0932 -0.0742
  748POPS   GL210112  11.323  17.515   6.066 -0.2065  0.0826 -0.0192
  748POPS   C1A10113  11.804  17.570   6.210  0.0024  0.0615  0.1366
  748POPS   D2A10114  12.072  17.843   6.551 -0.0786 -0.0700 -0.1103
  748POPS   C3A10115  11.995  17.757   6.962 -0.0488  0.0692 -0.1295
  748POPS   C4A10116  11.918  17.686   7.352 -0.0361 -0.0601 -0.1804
  748POPS   C1B10117  11.129  17.445   6.445  0.0224  0.1148 -0.0178
  748POPS   C2B10118  11.225  17.427   6.879  0.0791 -0.2903  0.1102
  748POPS   C3B10119  11.060  17.242   7.257 -0.0548  0.0336  0.3965
  748POPS   C4B10120  10.667  17.161   7.603 -0.0310  0.0156  0.3190
  749POPS   CNO10121  13.408  12.087   5.259 -0.0267  0.2214  0.1382
  749POPS   PO410122  13.180  12.419   5.512 -0.1217  0.1295  0.0789
  749POPS   GL110123  12.858  12.401   5.858 -0.1587  0.1518  0.0036
  749POPS   GL210124  12.809  12.145   5.982 -0.0020 -0.0565  0.2012
  749POPS   C1A10125  12.466  12.463   6.098  0.1314  0.4188 -0.1241
  749POPS   D2A10126  12.215  12.815   6.179  0.1153  0.0283 -0.0973
  749POPS   C3A10127  11.894  12.846   6.507 -0.1497  0.0347  0.0626
  749POPS   C4A10128  11.651  12.618   6.821  0.2158  0.0122  0.0529
  749POPS   C1B10129  13.171  12.080   6.231 -0.2085 -0.1845  0.0222
  749POPS   C2B10130  13.119  11.952   6.719  0.0748 -0.1790 -0.2048
  749POPS   C3B10131  13.315  12.042   7.139 -0.0882 -0.0882  0.0529
  749POPS   C4B10132  13.230  12.038   7.561 -0.1149  0.0462  0.0222
  750POPS   CNO10133  11.350   5.837   5.383  0.1741  0.1889  0.3050
  750POPS   PO410134  11.321   6.068   5.766  0.0742  0.0189 -0.3114
  750POPS   GL110135  11.066   6.050   6.101 -0.2123  0.1125  0.0610
  750POPS   GL210136  11.098   6.362   6.225 -0.1144 -0.1437  0.1739
  750POPS   C1A10137  10.674   6.116   6.387  0.0185  0.3034  0.1359
  750POPS   D2A10138  10.410   6.229   6.722  0.0495 -0.0446 -0.4127
  750POPS   C3A10139  10.531   6.323   7.197 -0.1155  0.1672 -0.2154
  750POPS   C4A10140  10.467   6.647   7.598 -0.3230  0.2252 -0.0283
  750POPS   C1B10141  11.047   6.398   6.620 -0.1899 -0.0605  0.1133
  750POPS   C2B10142  11.070   6.285   7.027 -0.0180  0.0503  0.3331
  750POPS   C3B10143  11.015   6.112   7.432  0.3191  0.0344  0.0831
  750POPS   C4B10144  10.730   6.057   7.876 -0.0855  0.5150 -0.1770
  751POPS   CNO10145   7.576  16.687   5.600  0.1261  0.3105  0.3922
  751POPS   PO410146   7.587  17.042   5.879 -0.0356 -0.3291  0.0388
  751POPS   GL110147   7.671  17.199   6.261  0.0591 -0.1819  0.0554
  751POPS   GL210148   7.931  17.097   6.398  0.1866  0.1696  0.0472
  751POPS   C1A10149   7.678  17.276   6.754  0.2746  0.1722 -0.0143
  751POPS   D2A10150   7.665  17.217   7.228 -0.1388  0.2660  0.2989
  751POPS   C3A10151   7.750  16.817   7.493  0.2679 -0.0773  0.3037
  751POPS   C4A10152   8.000  16.637   7.758 -0.1627  0.1691  0.2044
  751POPS   C1B10153   7.784  16.722   6.650  0.2821 -0.3891  0.2172
  751POPS   C2B10154   7.636  16.555   7.001  0.1343 -0.2234  0.0280
  751POPS   C3B10155   7.748  16.344   7.420  0.0688  0.1387 -0.0719
  751POPS   C4B10156   7.650  16.372   7.930 -0.2181  0.3718 -0.0055
  752POPS   CNO10157  13.623  10.647   5.280 -0.1584  0.1715 -0.1348
  752POPS   PO410158  13.856  11.034   5.449  0.1566  0.1787  0.1352
  752POPS   GL110159  13.776  11.020   5.888  0.2544  0.1069 -0.1039
  752POPS   GL210160  14.002  11.212   6.111  0.2442 -0.0226 -0.1991
  752POPS   C1A10161  13.777  10.724   6.329 -0.0914 -0.0807 -0.2019
  752POPS   D2A10162  13.581  10.486   6.647  0.0184  0.2101 -0.2619
  752POPS   C3A10163  13.778  10.352   7.072  0.0846 -0.0540  0.1036
  752POPS   C4A10164  14.230  10.101   7.280 -0.2721 -0.2901 -0.1902
  752POPS   C1B10165  13.870  11.230   6.500  0.2062  0.2593 -0.1210
  752POPS   C2B10166  13.883  11.195   7.017  0.0782 -0.0095  0.3422
  752POPS   C3B10167  14.070  11.268   7.317  0.1775  0.1094 -0.2084
  752POPS   C4B10168  14.045  11.112   7.747  0.1284 -0.3027  0.0563
  753POPS   CNO10169  14.782   2.263   5.671 -0.2310 -0.0803  0.2090
  753POPS   PO410170  14.688   2.633   5.759 -0.0925 -0.0522  0.2071
  753POPS   GL110171  14.714   2.590   6.172 -0.0136  0.1034  0.3169
  753POPS   GL210172  14.896   2.489   6.481 -0.2204 -0.1960  0.1606
  753POPS   C1A10173  14.404   2.549   6.566 -0.1189 -0.0583 -0.0873
  753POPS   D2A10174  14.123   2.327   6.917  0.2301  0.0071 -0.0040
  753POPS   C3A10175  14.203   2.162   7.296  0.2937  0.0801  0.3997
  753POPS   C4A10176  14.273   2.372   7.808  0.1551 -0.1564  0.2629
  753POPS   C1B10177  15.143   2.459   6.879 -0.4196 -0.0293  0.0204
  753POPS   C2B10178  15.397   2.290   7.227 -0.0969  0.0121 -0.1060
  753POPS   C3B10179  15.398   2.345   7.752 -0.2697  0.1791 -0.0853
  753POPS   C4B10180  15.272   2.610   8.040  0.0125  0.0984  0.1991
  754POPS   CNO10181   3.030  16.377   6.611  0.0884 -0.3758 -0.0343
  754POPS   PO410182   2.703  16.465   6.556  0.1206  0.0780 -0.1868
  754POPS   GL110183   2.766  16.644   7.000 -0.0477  0.1062  0.1457
  754POPS   GL210184   2.782  16.362   7.073 -0.0310 -0.3064  0.1172
  754POPS   C1A10185   2.665  16.935   7.299 -0.1878  0.1022  0.1099
  754POPS   D2A10186   2.579  17.150   7.731  0.0683 -0.3070  0.1700
  754POPS   C3A10187   2.297  17.526   7.818  0.1479  0.1475 -0.0124
  754POPS   C4A10188   2.294  17.857   8.101  0.0349 -0.1701 -0.0892
  754POPS   C1B10189   2.865  16.537   7.479  0.0764  0.2436  0.2316
  754POPS   C2B10190   2.818  16.631   7.908 -0.0752  0.2650  0.3693
  754POPS   C3B10191   2.897  17.003   8.071 -0.0010  0.0447 -0.0287
  754POPS   C4B10192   2.966  17.253   8.282 -0.3448 -0.1832 -0.0229
  755POPS   CNO10193   8.231  10.399   5.958  0.3953 -0.0126 -0.1073
  755POPS   PO410194   8.437  10.106   5.671 -0.1086  0.1952  0.0956
  755POPS   GL110195   8.608  10.064   6.030 -0.0622  0.2759  0.1045
  755POPS   GL210196   8.735   9.803   6.200  0.3450  0.0869 -0.1308
  755POPS   C1A10197   8.373  10.219   6.422 -0.0287  0.1929 -0.1177
  755POPS   D2A10198   8.208  10.324   6.845 -0.2670 -0.1085  0.2052
  755POPS   C3A10199   8.302  10.070   7.184 -0.0182 -0.0275  0.1874
  755POPS   C4A10200   8.457  10.369   7.583 -0.0221  0.1582 -0.1049
  755POPS   C1B10201   8.833   9.820   6.653 -0.1225 -0.3610 -0.1178
  755POPS   C2B10202   8.765   9.824   7.045 -0.0094 -0.0694  0.0481
  755POPS   C3B10203   8.595   9.764   7.508  0.3681 -0.1076  0.0622
  755POPS   C4B10204   8.234   9.682   7.779  0.1531 -0.1842  0.1039
  756POPS   CNO10205   9.807  16.145   5.478  0.2909 -0.2711  0.2075
  756POPS   PO410206   9.801  15.635   5.538 -0.0208  0.4026  0.0389
  756POPS   GL110207   9.786  15.756   5.902 -0.0973 -0.0103 -0.0250
  756POPS   GL210208   9.691  16.123   5.945  0.0624  0.0752 -0.2009
  756POPS   C1A10209   9.970  15.925   6.299  0.1314  0.0447  0.0307
  756POPS   D2A10210   9.989  16.080   6.719  0.1348  0.1019 -0.0924
  756POPS   C3A10211   9.802  16.013   7.079 -0.1800  0.0313  0.1221
  756POPS   C4A10212   9.995  16.038   7.492 -0.1821 -0.0645  0.2379
  756POPS   C1B10213   9.313  16.210   6.241  0.0041  0.0568  0.0471
  756POPS   C2B10214   9.076  16.255   6.604 -0.0227  0.2023 -0.0039
  756POPS   C3B10215   9.102  16.376   7.004 -0.0843 -0.2523 -0.2090
  756POPS   C4B10216   9.403  16.153   7.397  0.0970 -0.0116  0.1691
  757POPS   CNO10217   0.574  15.386   5.889  0.3197  0.0999 -0.0633
  757POPS   PO410218   0.480  15.315   6.306 -0.0132 -0.3564  0.1766
  757POPS   GL110219   0.592  15.034   6.582  0.2413  0.0223 -0.2776
  757POPS   GL210220   0.311  14.794   6.551 -0.1097  0.3718  0.0059
  757POPS   C1A10221   0.566  14.961   6.975 -0.2068  0.0206 -0.0687
  757POPS   D2A10222   0.313  14.898   7.393 -0.2142 -0.0999  0.2061
  757POPS   C3A10223   0.204  14.674   7.854 -0.1622 -0.0873  0.0130
  757POPS   C4A10224   0.085  14.579   8.294 -0.6210 -0.2327 -0.0671
  757POPS   C1B10225   0.273  14.557   6.898  0.0727 -0.3282 -0.2307
  757POPS   C2B10226   0.317  14.410   7.300 -0.1128 -0.2050 -0.0674
  757POPS   C3B10227   0.047  14.232   7.658  0.1471  0.0185 -0.2409
  757POPS   C4B10228  -0.139  14.306   7.978  0.2054  0.0849  0.0331
  758POPS   CNO10229   7.780  17.875   5.645  0.2325  0.1771  0.0769
  758POPS   PO410230   7.849  17.950   6.071  0.0404  0.1183 -0.1765
  758POPS   GL110231   7.602  17.853   6.478 -0.0318  0.0248 -0.1366
  758POPS   GL210232   7.873  18.047   6.602 -0.0396 -0.2901 -0.2109
  758POPS   C1A10233   7.577  17.745   6.887  0.3238 -0.2626 -0.2403
  758POPS   D2A10234   7.541  17.713   7.269  0.2662  0.2375 -0.3938
  758POPS   C3A10235   7.388  17.881   7.521  0.0605 -0.0803 -0.4610
  758POPS   C4A10236   7.088  18.121   7.874 -0.0202  0.2005  0.1153
  758POPS   C1B10237   7.913  18.046   7.049  0.1806 -0.0279  0.0491
  758POPS   C2B10238   7.906  17.984   7.564  0.1721  0.1841 -0.2144
  758POPS   C3B10239   7.932  17.864   8.016  0.0721  0.0478  0.0036
  758POPS   C4B10240   7.911  17.848   8.495 -0.0485 -0.0501 -0.2554
  759POPS   CNO10241   8.222  11.125   5.489  0.2916  0.0201 -0.1326
  759POPS   PO410242   8.043  10.798   5.744  0.0281 -0.0346  0.3405
  759POPS   GL110243   7.662  10.741   5.899 -0.0768  0.1760 -0.3091
  759POPS   GL210244   7.577  10.989   6.178 -0.0010  0.0171  0.3472
  759POPS   C1A10245   7.231  10.698   6.021 -0.3068  0.2030 -0.4429
  759POPS   D2A10246   6.874  10.809   6.146  0.2710  0.0633 -0.3533
  759POPS   C3A10247   6.825  10.933   6.596 -0.0084  0.1731 -0.1363
  759POPS   C4A10248   6.684  11.158   6.995  0.1040 -0.0234  0.0873
  759POPS   C1B10249   7.695  11.014   6.614  0.1129  0.0529 -0.3262
  759POPS   C2B10250   7.759  11.070   7.046  0.0482 -0.1974  0.2559
  759POPS   C3B10251   7.737  11.107   7.392  0.1308 -0.2305 -0.1978
  759POPS   C4B10252   7.631  11.308   7.707 -0.2095 -0.0440 -0.3808
  760POPS   CNO10253   4.075  15.430   5.647 -0.2611 -0.1369 -0.0641
  760POPS   PO410254   4.216  15.513   6.024  0.0751 -0.0612  0.0861
  760POPS   GL110255   4.035  15.588   6.380  0.3757 -0.0998 -0.2661
  760POPS   GL210256   3.929  15.858   6.563  0.1056  0.3074 -0.1375
  760POPS   C1A10257   3.965  15.406   6.772 -0.0231  0.3998 -0.1567
  760POPS   D2A10258   4.119  14.945   6.852  0.1077  0.1149  0.0480
  760POPS   C3A10259   4.020  14.757   7.200 -0.4099  0.0445 -0.2072
  760POPS   C4A10260   3.947  14.626   7.596 -0.1470 -0.1710  0.1613
  760POPS   C1B10261   3.945  16.171   6.997 -0.0349  0.2370 -0.0016
  760POPS   C2B10262   3.724  16.269   7.259  0.0295  0.1556  0.0591
  760POPS   C3B10263   3.642  16.002   7.523  0.3652  0.3046 -0.0243
  760POPS   C4B10264   3.736  15.969   8.035  0.2930  0.4937 -0.1260
  761POPS   CNO10265   9.828  11.428   5.322 -0.1156  0.2453  0.1202
  761POPS   PO410266   9.580  11.467   5.720  0.2041  0.0051 -0.1351
  761POPS   GL110267   9.662  11.533   6.105 -0.0698  0.3031  0.0504
  761POPS   GL210268   9.864  11.398   6.316  0.1699  0.1354 -0.0576
  761POPS   C1A10269   9.721  11.801   6.435  0.4348  0.2815 -0.2926
  761POPS   D2A10270   9.458  12.217   6.526 -0.0555  0.3413  0.1072
  761POPS   C3A10271   9.390  12.342   6.915 -0.1673 -0.4482  0.1487
  761POPS   C4A10272   9.361  12.353   7.419  0.2443  0.1104 -0.2593
  761POPS   C1B10273   9.975  11.444   6.742  0.0169  0.1351  0.1983
  761POPS   C2B10274   9.976  11.465   7.132  0.1299  0.1066  0.2493
  761POPS   C3B10275   9.886  11.654   7.500  0.1550 -0.2230  0.0031
  761POPS   C4B10276   9.824  11.698   7.888  0.2428 -0.2345 -0.0768
  762POPS   CNO10277   6.967  17.657   5.772  0.1641  0.0682  0.0954
  762POPS   PO410278   6.976  17.675   6.187 -0.1590 -0.0336 -0.1333
  762POPS   GL110279   6.792  17.516   6.494 -0.2848  0.3217 -0.2853
  762POPS   GL210280   6.778  17.207   6.624  0.2137  0.1202  0.2078
  762POPS   C1A10281   6.599  17.604   6.996 -0.1892 -0.0715 -0.2059
  762POPS   D2A10282   6.471  17.656   7.416  0.2897 -0.0260  0.0067
  762POPS   C3A10283   6.354  17.566   7.802 -0.0518  0.2004 -0.1488
  762POPS   C4A10284   6.067  17.414   8.199  0.1410  0.0091 -0.2060
  762POPS   C1B10285   6.748  17.136   7.003 -0.3620 -0.0724  0.1310
  762POPS   C2B10286   6.621  17.114   7.398  0.0519  0.2691  0.1825
  762POPS   C3B10287   6.843  17.141   7.760 -0.2845 -0.0407  0.0199
  762POPS   C4B10288   6.641  17.169   8.180  0.2036 -0.0088  0.1094
  763POPS   CNO10289   3.295  12.833   6.156  0.1669  0.3893  0.0915
  763POPS   PO410290   3.546  12.544   6.133  0.1412 -0.1010  0.1613
  763POPS   GL110291   3.548  12.748   6.612  0.1408  0.1525 -0.0080
  763POPS   GL210292   3.695  13.015   6.425 -0.0056  0.1528 -0.0822
  763POPS   C1A10293   3.377  12.834   7.014  0.1135  0.2418 -0.1210
  763POPS   D2A10294   3.232  13.072   7.353  0.3664 -0.1084 -0.1319
  763POPS   C3A10295   3.049  12.856   7.757 -0.0745 -0.0308  0.0073
  763POPS   C4A10296   3.273  12.734   8.130  0.0095  0.0190  0.0251
  763POPS   C1B10297   3.850  13.189   6.837  0.0044  0.2249 -0.0644
  763POPS   C2B10298   3.839  13.176   7.231  0.1154  0.2121  0.2296
  763POPS   C3B10299   3.752  13.258   7.645  0.1477 -0.0827 -0.0703
  763POPS   C4B10300   3.787  13.262   8.031  0.2197  0.0372 -0.1647
  764POPS   CNO10301  16.388   2.339   6.119  0.3130 -0.0777 -0.0294
  764POPS   PO410302  16.474   1.891   6.084 -0.2837 -0.0861 -0.0105
  764POPS   GL110303  16.387   1.729   6.421  0.1518 -0.0997 -0.1316
  764POPS   GL210304  16.192   1.528   6.496  0.1659  0.5374 -0.1941
  764POPS   C1A10305  16.247   2.065   6.694 -0.1501  0.0198 -0.0339
  764POPS   D2A10306  16.198   2.503   6.751 -0.0256 -0.1815 -0.2302
  764POPS   C3A10307  16.066   2.582   7.174 -0.2043  0.0453  0.1257
  764POPS   C4A10308  15.793   2.476   7.409 -0.1307 -0.0157 -0.0641
  764POPS   C1B10309  15.977   1.665   6.930 -0.0812  0.0961  0.2672
  764POPS   C2B10310  15.640   1.745   7.196 -0.2996  0.0610 -0.6114
  764POPS   C3B10311  15.697   2.018   7.531  0.0549 -0.2368  0.2381
  764POPS   C4B10312  16.001   2.150   7.762  0.1548 -0.0316  0.0319
  765POPS   CNO10313  17.736  17.236   5.852 -0.0746 -0.1018 -0.1204
  765POPS   PO410314  17.525  17.496   6.145 -0.0511 -0.1293  0.1897
  765POPS   GL110315  17.367  17.365   6.613  0.1810 -0.0466 -0.0739
  765POPS   GL210316  17.177  17.569   6.759 -0.1112 -0.1970  0.2384
  765POPS   C1A10317  17.476  17.211   6.944  0.2596  0.0450 -0.0547
  765POPS   D2A10318  17.497  17.210   7.286 -0.5432  0.1659 -0.0960
  765POPS   C3A10319  17.261  16.884   7.700 -0.4551 -0.1014  0.0455
  765POPS   C4A10320  17.058  16.789   8.084 -0.0537  0.1019  0.0092
  765POPS   C1B10321  17.108  17.477   7.113  0.1293 -0.1592 -0.3293
  765POPS   C2B10322  17.131  17.356   7.561 -0.0464  0.0528 -0.1825
  765POPS   C3B10323  16.816  17.160   7.863 -0.1736  0.0441 -0.1021
  765POPS   C4B10324  16.800  17.209   8.218 -0.0638 -0.0285  0.0589
  766POPS   CNO10325  16.999   1.041   6.555 -0.3262 -0.1395  0.1929
  766POPS   PO410326  16.872   0.686   6.444 -0.0150  0.0295 -0.2606
  766POPS   GL110327  16.851   0.664   6.830  0.2480  0.0152 -0.0226
  766POPS   GL210328  17.006   0.705   6.973 -0.0393  0.1013  0.0658
  766POPS   C1A10329  16.575   0.775   7.238 -0.0036 -0.3130 -0.0837
  766POPS   D2A10330  16.300   0.491   7.496 -0.1023  0.4116  0.1829
  766POPS   C3A10331  16.221   0.635   7.935  0.0279 -0.0238 -0.1385
  766POPS   C4A10332  15.867   0.837   8.196  0.1593  0.0544 -0.0847
  766POPS   C1B10333  17.087   0.765   7.297  0.1200  0.2787 -0.0178
  766POPS   C2B10334  16.920   0.952   7.641 -0.0795 -0.1738 -0.3631
  766POPS   C3B10335  16.986   1.132   7.975 -0.0356  0.2151  0.0370
  766POPS   C4B10336  17.208   1.397   8.195 -0.0170 -0.0335 -0.1961
  767POPS   CNO10337  12.478  11.301   5.728 -0.2918 -0.2166  0.0723
  767POPS   PO410338  12.819  11.602   5.716  0.3026 -0.1243  0.1461
  767POPS   GL110339  12.603  11.642   6.058 -0.0533 -0.0954  0.0892
  767POPS   GL210340  12.593  11.417   6.246  0.0709  0.2406 -0.2223
  767POPS   C1A10341  12.737  11.866   6.419  0.1856 -0.3571  0.0449
  767POPS   D2A10342  12.745  12.266   6.592 -0.0110 -0.0682 -0.3237
  767POPS   C3A10343  12.938  12.536   6.357 -0.3076 -0.0047  0.0907
  767POPS   C4A10344  13.197  12.797   6.369  0.2413  0.0091 -0.0849
  767POPS   C1B10345  12.861  11.323   6.708 -0.1204  0.1017  0.3154
  767POPS   C2B10346  13.113  11.162   6.982 -0.0031 -0.2343 -0.1467
  767POPS   C3B10347  13.255  11.139   7.334 -0.3604 -0.2966  0.0853
  767POPS   C4B10348  13.325  10.934   7.727  0.3390 -0.0433 -0.0798
  768POPS   CNO10349   8.863   4.556   5.705  0.0824 -0.0716  0.3122
  768POPS   PO410350   9.295   4.695   5.727 -0.2718  0.1290  0.1636
  768POPS   GL110351   9.147   4.730   6.173 -0.1068  0.0291 -0.2394
  768POPS   GL210352   9.257   4.941   6.431 -0.2362 -0.1661  0.2964
  768POPS   C1A10353   8.731   4.562   6.433 -0.1425 -0.2033 -0.0168
  768POPS   D2A10354   8.401   4.487   6.631 -0.0827  0.2693 -0.2353
  768POPS   C3A10355   8.506   4.139   6.894  0.5011  0.2052  0.2678
  768POPS   C4A10356   8.721   3.995   7.311  0.2427 -0.2170 -0.0214
  768POPS   C1B10357   9.081   4.920   6.873 -0.0818  0.2106 -0.1490
  768POPS   C2B10358   8.925   4.936   7.222  0.2008  0.1331 -0.1981
  768POPS   C3B10359   9.073   4.886   7.702  0.0974  0.0100 -0.0063
  768POPS   C4B10360   9.348   4.614   7.862  0.4561 -0.3239 -0.0779
  769POPS   CNO10361   0.612   3.579   5.804 -0.2092 -0.2955 -0.1013
  769POPS   PO410362   0.417   3.274   5.920  0.0360  0.0813  0.1555
  769POPS   GL110363   0.302   3.199   6.308 -0.1519  0.0461  0.1316
  769POPS   GL210364   0.011   3.021   6.384 -0.0076 -0.1428 -0.1317
  769POPS   C1A10365   0.329   3.179   6.725 -0.0168 -0.1833  0.0265
  769POPS   D2A10366   0.317   3.268   7.222  0.0687  0.2339  0.2737
  769POPS   C3A10367   0.743   3.372   7.497 -0.1785  0.0448 -0.0327
  769POPS   C4A10368   0.740   3.611   7.785 -0.2468  0.2178  0.2621
  769POPS   C1B10369  -0.270   3.078   6.769 -0.0352 -0.0752  0.0382
  769POPS   C2B10370  -0.365   3.184   7.227  0.2023  0.3914  0.1368
  769POPS   C3B10371  -0.563   3.171   7.555 -0.0086 -0.1478  0.0036
  769POPS   C4B10372  -0.528   2.981   8.013 -0.3285 -0.1887  0.2093
  770POPS   CNO10373  17.236   5.424   5.261 -0.0259 -0.0093 -0.0911
  770POPS   PO410374  17.424   5.514   5.700  0.0174  0.4245  0.1243
  770POPS   GL110375  17.553   5.356   6.160  0.0015 -0.1390  0.2382
  770POPS   GL210376  17.726   5.418   6.427  0.1539  0.0564  0.0605
  770POPS   C1A10377  17.317   5.249   6.620 -0.3056  0.3067  0.2672
  770POPS   D2A10378  17.182   5.091   7.043  0.2514  0.1599  0.0172
  770POPS   C3A10379  17.117   5.060   7.541 -0.1444 -0.1834  0.3611
  770POPS   C4A10380  16.899   5.267   7.862  0.2021  0.2343 -0.0437
  770POPS   C1B10381  17.784   5.537   6.931 -0.0213  0.1807  0.0382
  770POPS   C2B10382  17.915   5.530   7.335 -0.0342  0.0446 -0.1830
  770POPS   C3B10383  17.929   5.527   7.809  0.1989 -0.2378 -0.1279
  770POPS   C4B10384  17.871   5.403   8.284 -0.3814  0.1760  0.1058
  771POPS   CNO10385  11.184   7.350   5.770 -0.0114 -0.1300 -0.0683
  771POPS   PO410386  10.741   7.319   5.867 -0.0224 -0.1161 -0.5774
  771POPS   GL110387  10.521   7.545   6.104 -0.0155  0.1422  0.2184
  771POPS   GL210388  10.269   7.624   6.054 -0.2175  0.2094  0.1037
  771POPS   C1A10389  10.462   7.734   6.448 -0.0176 -0.0919  0.1389
  771POPS   D2A10390  10.149   8.172   6.581  0.1877 -0.0437 -0.2993
  771POPS   C3A10391  10.189   8.287   7.019  0.0542 -0.1772 -0.3805
  771POPS   C4A10392  10.341   8.162   7.422  0.0366  0.0669  0.0199
  771POPS   C1B10393   9.976   8.039   6.032  0.0992  0.5042 -0.3008
  771POPS   C2B10394   9.653   8.036   6.489 -0.3288 -0.0937 -0.0096
  771POPS   C3B10395   9.795   7.987   6.954  0.0400  0.1522  0.0196
  771POPS   C4B10396   9.712   7.927   7.434  0.1093  0.0804  0.0473
  772POPS   CNO10397   0.878   1.903   6.225 -0.4465 -0.0702  0.0246
  772POPS   PO410398   0.957   2.242   6.059  0.1073 -0.2906 -0.0917
  772POPS   GL110399   0.775   2.365   6.487  0.1406 -0.0122  0.0683
  772POPS   GL210400   0.669   2.625   6.592  0.0473 -0.1305  0.0213
  772POPS   C1A10401   1.063   2.542   6.922  0.0450  0.4184  0.2982
  772POPS   D2A10402   1.063   2.817   7.213  0.2529 -0.1343  0.3187
  772POPS   C3A10403   0.723   2.882   7.526 -0.1703  0.3650  0.1337
  772POPS   C4A10404   0.370   2.703   7.813 -0.0378 -0.0943 -0.3334
  772POPS   C1B10405   0.541   2.785   7.060  0.1889 -0.0567  0.1390
  772POPS   C2B10406   0.222   2.787   7.329 -0.1099 -0.0237  0.0147
  772POPS   C3B10407  -0.114   2.801   7.618  0.3123  0.3163  0.0614
  772POPS   C4B10408  -0.457   2.704   7.653  0.1208  0.2896 -0.0905
  773POPS   CNO10409   5.875   1.765   5.838 -0.1122  0.0687  0.1168
  773POPS   PO410410   5.999   2.085   6.109  0.2515 -0.3394 -0.1299
  773POPS   GL110411   6.050   2.256   6.453 -0.1879 -0.0595  0.3081
  773POPS   GL210412   5.860   2.005   6.590  0.4230  0.0061 -0.3310
  773POPS   C1A10413   6.096   2.280   6.922 -0.0070  0.1715  0.0043
  773POPS   D2A10414   6.435   2.134   7.309  0.1570  0.0118 -0.2359
  773POPS   C3A10415   6.401   2.220   7.692 -0.3046 -0.0965 -0.0083
  773POPS   C4A10416   6.624   2.303   8.015  0.2321  0.1835  0.1145
  773POPS   C1B10417   5.705   2.006   6.941  0.0737  0.0411  0.3415
  773POPS   C2B10418   5.537   1.970   7.370  0.2161 -0.1169  0.4263
  773POPS   C3B10419   5.316   2.113   7.697  0.2885  0.3964 -0.2397
  773POPS   C4B10420   5.190   2.583   7.766  0.1599 -0.0106 -0.1827
  774POPS   CNO10421  14.791   8.360   5.615  0.2432 -0.1045 -0.1834
  774POPS   PO410422  14.381   8.587   5.700  0.0762 -0.1314 -0.0090
  774POPS   GL110423  14.500   8.448   6.194  0.2310 -0.2255  0.4342
  774POPS   GL210424  14.293   8.256   6.369  0.0663 -0.1628 -0.4229
  774POPS   C1A10425  14.569   8.645   6.550 -0.2513 -0.1822  0.1828
  774POPS   D2A10426  14.846   8.980   6.782 -0.0664 -0.0254  0.1045
  774POPS   C3A10427  14.677   9.351   7.021  0.0721 -0.0148  0.0445
  774POPS   C4A10428  14.486   9.610   7.324 -0.1025 -0.0849  0.0125
  774POPS   C1B10429  14.180   8.458   6.863  0.1743  0.1168  0.2720
  774POPS   C2B10430  14.150   8.463   7.224 -0.0443 -0.1928 -0.2624
  774POPS   C3B10431  14.191   8.173   7.691  0.1143 -0.3162  0.5505
  774POPS   C4B10432  14.055   7.696   7.556 -0.0315  0.0089 -0.2832
  775POPS   CNO10433  11.111   6.511   5.584  0.0732 -0.0999 -0.0290
  775POPS   PO410434  10.958   6.871   5.762  0.0413  0.2114  0.2810
  775POPS   GL110435  11.046   7.026   6.167 -0.0208  0.2858 -0.1601
  775POPS   GL210436  11.274   6.797   6.454 -0.1269  0.1402 -0.1726
  775POPS   C1A10437  10.875   7.116   6.562 -0.0692  0.1419 -0.1974
  775POPS   D2A10438  10.687   7.398   6.766  0.1453 -0.2939 -0.7112
  775POPS   C3A10439  10.674   7.422   7.252  0.4220 -0.1886 -0.0200
  775POPS   C4A10440  10.491   7.542   7.725 -0.3914 -0.2318 -0.1111
  775POPS   C1B10441  11.209   6.820   6.960  0.2849 -0.4273 -0.0210
  775POPS   C2B10442  11.263   6.850   7.335 -0.0688  0.0787  0.0841
  775POPS   C3B10443  11.452   7.053   7.793 -0.2573  0.1735  0.1489
  775POPS   C4B10444  11.730   7.023   8.056 -0.0690  0.5096 -0.1005
  776POPS   CNO10445   2.129   3.036   6.005 -0.0033  0.0841 -0.0328
  776POPS   PO410446   2.204   2.896   6.326  0.1105  0.2614 -0.0967
  776POPS   GL110447   2.144   2.917   6.703 -0.2775  0.1815 -0.1347
  776POPS   GL210448   2.291   3.154   6.774 -0.0867  0.0937 -0.1547
  776POPS   C1A10449   1.840   2.922   7.081 -0.1230  0.1360  0.3496
  776POPS   D2A10450   1.551   2.922   7.377 -0.0749  0.2196 -0.0408
  776POPS   C3A10451   1.718   2.888   7.721 -0.0198 -0.0876 -0.0053
  776POPS   C4A10452   1.655   2.654   8.047  0.1612 -0.1052 -0.0277
  776POPS   C1B10453   2.269   3.081   7.210 -0.1780  0.0616  0.0324
  776POPS   C2B10454   2.203   2.724   7.467  0.0037 -0.1994 -0.2177
  776POPS   C3B10455   2.177   2.664   7.926 -0.1752  0.0097  0.3867
  776POPS   C4B10456   2.106   2.528   8.231 -0.1987  0.0565  0.3442
  777POPS   CNO10457   6.681   6.038   5.624 -0.0145 -0.2743  0.2173
  777POPS   PO410458   6.832   5.636   5.832 -0.1252 -0.0553 -0.0403
  777POPS   GL110459   7.108   5.520   6.184  0.1475 -0.0902  0.0311
  777POPS   GL210460   7.454   5.408   6.184 -0.3357 -0.3084  0.0040
  777POPS   C1A10461   7.079   5.672   6.650  0.1140  0.0418 -0.3407
  777POPS   D2A10462   7.061   5.644   7.173  0.1368 -0.0483 -0.0445
  777POPS   C3A10463   7.156   5.603   7.586 -0.2564 -0.1266  0.1463
  777POPS   C4A10464   7.419   5.817   7.903 -0.1202  0.0833  0.0634
  777POPS   C1B10465   7.486   5.358   6.621 -0.1032 -0.0230 -0.2835
  777POPS   C2B10466   7.478   5.431   7.068  0.0473  0.2152 -0.0319
  777POPS   C3B10467   7.397   5.217   7.355  0.2375  0.2154 -0.0928
  777POPS   C4B10468   7.360   4.956   7.679  0.2742  0.0644 -0.0649
  778POPS   CNO10469   5.681  16.186   5.746  0.0652 -0.0063 -0.1298
  778POPS   PO410470   5.924  16.208   6.097 -0.1269  0.0797 -0.3019
  778POPS   GL110471   5.918  16.394   6.501 -0.0353  0.1290  0.1893
  778POPS   GL210472   5.774  16.630   6.555  0.4966 -0.0145  0.0620
  778POPS   C1A10473   5.914  16.214   6.967 -0.1028  0.2148  0.0297
  778POPS   D2A10474   5.668  16.048   7.405 -0.1288 -0.0056  0.3133
  778POPS   C3A10475   5.709  15.664   7.647 -0.0731  0.0041  0.2990
  778POPS   C4A10476   5.671  15.729   8.094 -0.0439 -0.0953 -0.1131
  778POPS   C1B10477   5.566  16.582   6.908  0.1219 -0.0887 -0.3575
  778POPS   C2B10478   5.706  16.504   7.325 -0.0998 -0.0104 -0.1746
  778POPS   C3B10479   5.529  16.390   7.799 -0.1559 -0.0443  0.2422
  778POPS   C4B10480   5.339  16.133   8.097 -0.0313 -0.1846  0.0698
  779POPS   CNO10481  11.551   7.572   5.228  0.1619 -0.2956 -0.0165
  779POPS   PO410482  11.269   7.813   5.516 -0.1372  0.1071  0.1403
  779POPS   GL110483  11.587   7.829   5.774  0.3170 -0.1212 -0.3348
  779POPS   GL210484  11.983   8.001   5.818  0.0438 -0.0133  0.1414
  779POPS   C1A10485  11.564   7.602   6.102 -0.1697 -0.1418 -0.4169
  779POPS   D2A10486  11.346   7.247   6.441  0.1039 -0.2782 -0.3350
  779POPS   C3A10487  11.229   7.291   6.884 -0.0576  0.0722 -0.1951
  779POPS   C4A10488  11.175   7.320   7.280  0.1805  0.1752 -0.1018
  779POPS   C1B10489  12.023   8.374   6.123 -0.2454  0.3104  0.0314
  779POPS   C2B10490  12.019   8.341   6.473 -0.0470 -0.0210  0.2269
  779POPS   C3B10491  12.173   8.415   6.774 -0.0892  0.1938  0.0914
  779POPS   C4B10492  12.425   8.489   7.167 -0.3413  0.1910 -0.2336
  780POPS   CNO10493   3.254   0.896   5.998  0.0761  0.1350  0.0294
  780POPS   PO410494   2.879   1.141   5.848  0.3285 -0.1132  0.1687
  780POPS   GL110495   2.964   1.232   6.325  0.2816 -0.1028 -0.0231
  780POPS   GL210496   3.222   1.128   6.487  0.1832 -0.3568  0.0918
  780POPS   C1A10497   2.728   1.299   6.692  0.0887  0.0040  0.0717
  780POPS   D2A10498   2.840   1.433   7.126 -0.0222 -0.0894 -0.3227
  780POPS   C3A10499   2.931   1.856   7.116 -0.5535 -0.1179 -0.1588
  780POPS   C4A10500   2.831   2.292   7.050 -0.1825  0.0129 -0.0974
  780POPS   C1B10501   3.242   1.139   6.891  0.1560 -0.2024 -0.2384
  780POPS   C2B10502   3.201   1.144   7.319  0.1283 -0.3637 -0.1310
  780POPS   C3B10503   2.782   1.117   7.575  0.0385 -0.0055 -0.1016
  780POPS   C4B10504   2.612   1.351   7.851 -0.2989 -0.0950 -0.0147
  781POPS   CNO10505   0.184   0.801   6.139 -0.2367  0.3589 -0.1802
  781POPS   PO410506  -0.165   0.580   6.295  0.3227 -0.1738  0.3284
  781POPS   GL110507  -0.187   0.392   6.685 -0.1362 -0.1522 -0.1550
  781POPS   GL210508   0.118   0.432   6.883 -0.1490  0.2077  0.1188
  781POPS   C1A10509  -0.380   0.384   7.144 -0.2688 -0.1979 -0.0744
  781POPS   D2A10510  -0.460   0.390   7.551  0.3017  0.0234  0.0402
  781POPS   C3A10511  -0.639  -0.010   7.768 -0.2630  0.0336  0.1055
  781POPS   C4A10512  -0.462  -0.304   7.706 -0.2128  0.2169 -0.0496
  781POPS   C1B10513   0.072   0.479   7.448 -0.1306  0.3156  0.0006
  781POPS   C2B10514  -0.028   0.282   7.814 -0.2626  0.1117 -0.3229
  781POPS   C3B10515  -0.090  -0.137   7.951 -0.0516 -0.0330 -0.3423
  781POPS   C4B10516  -0.392  -0.269   8.280 -0.2229 -0.0439 -0.2583
  782POPS   CNO10517   9.137  12.324   5.479  0.1590 -0.2152  0.2962
  782POPS   PO410518   8.930  12.266   5.825 -0.0122  0.0709 -0.0736
  782POPS   GL110519   9.075  12.229   6.209 -0.1359 -0.1534  0.3617
  782POPS   GL210520   8.721  12.192   6.313  0.1307  0.1566 -0.2846
  782POPS   C1A10521   9.223  11.830   6.373  0.4147  0.2885 -0.0037
  782POPS   D2A10522   9.246  11.892   6.899  0.1579  0.4948  0.1048
  782POPS   C3A10523   9.427  11.848   7.280  0.3574  0.2835  0.2795
  782POPS   C4A10524   9.489  12.005   7.766  0.1125 -0.2935 -0.0086
  782POPS   C1B10525   8.947  12.203   6.657  0.2793  0.2255 -0.2093
  782POPS   C2B10526   8.818  12.254   7.147 -0.0147 -0.4374  0.1022
  782POPS   C3B10527   8.953  11.969   7.398  0.2390 -0.0053  0.0081
  782POPS   C4B10528   8.971  11.998   7.822 -0.4628 -0.4064 -0.0744
  783POPS   CNO10529   0.347   8.702   5.742  0.1226 -0.1013  0.0367
  783POPS   PO410530   0.008   8.865   6.157 -0.1033 -0.1762 -0.1563
  783POPS   GL110531  -0.038   9.168   6.462 -0.0786 -0.0492 -0.1982
  783POPS   GL210532  -0.194   9.439   6.540 -0.3647 -0.0046 -0.1605
  783POPS   C1A10533   0.107   9.155   6.889  0.0294  0.1639 -0.0341
  783POPS   D2A10534  -0.027   9.188   7.282  0.1032  0.1009  0.0859
  783POPS   C3A10535   0.168   9.189   7.548 -0.2400  0.1418  0.2409
  783POPS   C4A10536   0.225   8.830   7.933  0.1182  0.1355  0.0479
  783POPS   C1B10537  -0.362   9.287   6.901  0.1729 -0.3397  0.1981
  783POPS   C2B10538  -0.591   9.145   7.278 -0.1333  0.1686  0.0719
  783POPS   C3B10539  -0.418   9.065   7.686 -0.2891  0.1601  0.0518
  783POPS   C4B10540  -0.184   9.294   7.989  0.2244  0.1371 -0.3708
  784POPS   CNO10541   4.055   2.990   6.399 -0.0295 -0.0077 -0.1083
  784POPS   PO410542   4.073   3.435   6.439 -0.2074 -0.3205 -0.2961
  784POPS   GL110543   4.205   3.487   6.854  0.3746 -0.4069  0.1861
  784POPS   GL210544   3.933   3.541   7.163 -0.1652 -0.1804  0.3778
  784POPS   C1A10545   4.405   3.416   7.217 -0.0020 -0.2938  0.1282
  784POPS   D2A10546   4.591   3.333   7.684  0.0212 -0.1051 -0.2430
  784POPS   C3A10547   4.345   3.093   7.945 -0.0358 -0.2395  0.0561
  784POPS   C4A10548   3.947   2.982   7.959  0.1013 -0.0349  0.0541
  784POPS   C1B10549   3.955   4.030   7.327 -0.1895  0.2538  0.1403
  784POPS   C2B10550   4.240   4.254   7.570 -0.0667 -0.1330  0.0273
  784POPS   C3B10551   4.372   4.634   7.789  0.0113 -0.0327 -0.1068
  784POPS   C4B10552   4.817   4.714   7.901 -0.1156 -0.0517 -0.0462
  785POPS   CNO10553   1.585   9.754   6.068 -0.1543  0.0867  0.2171
  785POPS   PO410554   2.097   9.758   6.259 -0.1211  0.2321  0.1172
  785POPS   GL110555   2.073   9.683   6.713  0.0754  0.0034  0.0533
  785POPS   GL210556   2.085   9.920   6.801  0.0747 -0.2051  0.0503
  785POPS   C1A10557   2.213   9.656   7.169  0.3100  0.0588  0.1512
  785POPS   D2A10558   2.084   9.817   7.547  0.0670  0.0150  0.0500
  785POPS   C3A10559   1.882   9.573   7.779  0.1205  0.1724 -0.0853
  785POPS   C4A10560   1.584   9.460   8.134 -0.1070  0.1021 -0.0835
  785POPS   C1B10561   2.061  10.161   7.084  0.2367 -0.1563  0.0132
  785POPS   C2B10562   2.252  10.258   7.474  0.1018  0.0920  0.2822
  785POPS   C3B10563   2.219  10.440   7.793 -0.0461  0.0043  0.1043
  785POPS   C4B10564   1.969  10.464   8.171  0.2398 -0.1260  0.0333
  786POPS   CNO10565   6.720   9.617   5.185  0.1329  0.3840  0.1758
  786POPS   PO410566   6.810   9.856   5.502 -0.0139  0.2126  0.1379
  786POPS   GL110567   6.832   9.797   5.933 -0.1598 -0.0682  0.0777
  786POPS   GL210568   6.769   9.408   5.917  0.3312 -0.1988  0.2208
  786POPS   C1A10569   6.999   9.515   6.315  0.0329  0.2136 -0.1484
  786POPS   D2A10570   7.066   9.488   6.735  0.2814 -0.1071  0.0881
  786POPS   C3A10571   6.857   9.302   7.057 -0.2879  0.0675 -0.1778
  786POPS   C4A10572   6.833   9.069   7.481  0.0792  0.1839  0.2466
  786POPS   C1B10573   6.496   9.528   6.270 -0.1224 -0.0950 -0.3462
  786POPS   C2B10574   6.518   9.464   6.696  0.0599  0.1658  0.1251
  786POPS   C3B10575   6.469   9.647   7.235 -0.1636  0.1003 -0.1211
  786POPS   C4B10576   6.616   9.477   7.611  0.0798 -0.0003  0.1269
  787POPS   CNO10577  16.439   9.056   5.468  0.0302  0.0031  0.3340
  787POPS   PO410578  16.794   9.125   5.719  0.0653 -0.2013  0.1981
  787POPS   GL110579  16.647   9.011   6.088  0.2161  0.0373 -0.3596
  787POPS   GL210580  16.856   9.062   6.301 -0.2119 -0.0856  0.0677
  787POPS   C1A10581  16.255   9.169   6.413  0.0830 -0.2321 -0.1025
  787POPS   D2A10582  16.087   9.251   6.735  0.0260 -0.2353  0.1558
  787POPS   C3A10583  15.937   9.116   7.085 -0.0175 -0.1284  0.0944
  787POPS   C4A10584  15.616   8.784   7.206  0.2239 -0.0343 -0.3061
  787POPS   C1B10585  16.687   9.117   6.607  0.1960  0.0077  0.0620
  787POPS   C2B10586  16.497   9.200   7.087  0.1006  0.0748 -0.0676
  787POPS   C3B10587  16.254   9.306   7.382  0.3242 -0.0542  0.3010
  787POPS   C4B10588  16.120   9.436   7.804  0.0371 -0.1308 -0.3095
  788POPS   CNO10589  17.102   3.514   5.452 -0.0446  0.0355 -0.1111
  788POPS   PO410590  17.465   3.189   5.521 -0.1652  0.1003  0.0714
  788POPS   GL110591  17.467   3.302   5.982 -0.3181  0.1378 -0.1806
  788POPS   GL210592  17.551   3.668   6.022  0.1128 -0.0080 -0.0185
  788POPS   C1A10593  17.233   3.264   6.399 -0.2228 -0.0861  0.0403
  788POPS   D2A10594  17.069   3.467   6.730 -0.0468 -0.0949 -0.0876
  788POPS   C3A10595  16.682   3.402   6.910 -0.1027 -0.2327  0.3070
  788POPS   C4A10596  16.655   3.472   7.401  0.0106  0.0136  0.0798
  788POPS   C1B10597  17.440   3.951   6.305 -0.1765 -0.0500  0.2240
  788POPS   C2B10598  17.536   4.257   6.586 -0.1409 -0.0002 -0.0103
  788POPS   C3B10599  17.753   4.192   6.927  0.4026  0.2070 -0.3079
  788POPS   C4B10600  17.742   4.416   7.237  0.1585 -0.2668  0.0702
  789POPS   CNO10601   8.699  15.288   5.239  0.3476 -0.1408  0.1191
  789POPS   PO410602   8.899  15.650   5.336  0.0614 -0.0107  0.0643
  789POPS   GL110603   8.733  15.951   5.754 -0.0891 -0.0235 -0.3129
  789POPS   GL210604   8.913  16.336   5.848 -0.0181  0.1965 -0.1678
  789POPS   C1A10605   8.769  16.116   6.269 -0.0925 -0.1669 -0.0572
  789POPS   D2A10606   8.606  16.261   6.616 -0.2220  0.1400 -0.2028
  789POPS   C3A10607   8.479  16.080   6.975  0.0757 -0.0518 -0.2635
  789POPS   C4A10608   8.498  15.989   7.380 -0.1667  0.1652  0.2303
  789POPS   C1B10609   8.886  16.610   6.274 -0.1326  0.0245 -0.2885
  789POPS   C2B10610   9.062  17.032   6.265  0.2347  0.0438  0.0513
  789POPS   C3B10611   9.164  17.354   6.498 -0.1557 -0.1468  0.0595
  789POPS   C4B10612   9.071  17.355   6.953 -0.0138  0.0506 -0.0836
  790POPS   CNO10613  17.819   0.842   6.667 -0.3232 -0.3588  0.0323
  790POPS   PO410614  17.631   1.136   6.433  0.2215  0.2355 -0.0467
  790POPS   GL110615  17.583   1.199   6.971 -0.2927  0.0864  0.4135
  790POPS   GL210616  17.287   1.160   6.990  0.1996 -0.2020 -0.1843
  790POPS   C1A10617  17.817   1.354   7.418  0.1022  0.0435  0.0788
  790POPS   D2A10618  17.690   1.560   7.832  0.0648 -0.0010  0.1659
  790POPS   C3A10619  17.783   1.827   8.186  0.1617 -0.1654  0.2092
  790POPS   C4A10620  17.852   2.178   8.269 -0.3168  0.0958 -0.1198
  790POPS   C1B10621  17.283   1.405   7.346  0.0367 -0.1751  0.2226
  790POPS   C2B10622  17.187   1.609   7.708 -0.0158 -0.2648 -0.2586
  790POPS   C3B10623  17.186   1.951   7.861 -0.0409  0.1618  0.0468
  790POPS   C4B10624  17.399   2.293   8.074 -0.0913 -0.1986 -0.0923
  791POPS   CNO10625   5.994  11.480   5.429  0.1073  0.0126  0.0523
  791POPS   PO410626   5.802  11.757   5.688 -0.0731 -0.0868 -0.1765
  791POPS   GL110627   5.644  11.743   6.072 -0.0571  0.1493  0.2794
  791POPS   GL210628   5.606  11.414   6.106 -0.0235 -0.2570 -0.0927
  791POPS   C1A10629   5.671  12.224   6.361  0.0390  0.1247 -0.0485
  791POPS   D2A10630   5.683  12.471   6.758  0.1690 -0.1616 -0.2266
  791POPS   C3A10631   5.862  12.534   7.193 -0.2047 -0.1173 -0.2275
  791POPS   C4A10632   5.997  12.401   7.607 -0.3023 -0.0361 -0.0137
  791POPS   C1B10633   5.668  11.603   6.577  0.1273 -0.1211  0.1112
  791POPS   C2B10634   5.793  11.623   6.986 -0.2125 -0.2570 -0.0903
  791POPS   C3B10635   6.136  11.638   7.259 -0.0847  0.4439  0.0421
  791POPS   C4B10636   6.266  11.577   7.706  0.0742  0.0103  0.0726
  792POPS   CNO10637  15.336  13.254   5.784  0.0561  0.0350  0.1467
  792POPS   PO410638  15.350  13.614   5.798 -0.0908 -0.0012 -0.0247
  792POPS   GL110639  15.214  13.432   6.281  0.0522  0.0784  0.1653
  792POPS   GL210640  14.851  13.446   6.272 -0.0938  0.0750  0.2591
  792POPS   C1A10641  15.287  13.362   6.742  0.1161 -0.0915  0.0611
  792POPS   D2A10642  15.262  13.235   7.145 -0.0249 -0.0411 -0.1025
  792POPS   C3A10643  15.042  13.386   7.395  0.1180  0.2299  0.0084
  792POPS   C4A10644  15.106  13.374   7.862 -0.0231  0.1739  0.1072
  792POPS   C1B10645  14.902  13.767   6.624 -0.1892 -0.3250  0.1628
  792POPS   C2B10646  14.817  13.815   7.135  0.1110 -0.0981 -0.0811
  792POPS   C3B10647  14.799  13.819   7.625 -0.1419  0.3530 -0.0094
  792POPS   C4B10648  15.007  13.887   7.954  0.0655  0.0769 -0.2112
  793POPS   CNO10649  10.971  15.658   5.286  0.1731  0.0370  0.1778
  793POPS   PO410650  11.260  15.509   5.630 -0.0972  0.2652 -0.0131
  793POPS   GL110651  11.313  15.598   5.980 -0.0014 -0.2386 -0.1324
  793POPS   GL210652  11.315  15.362   6.265  0.0959  0.2686  0.3020
  793POPS   C1A10653  11.239  15.845   6.259  0.0238 -0.4332 -0.0620
  793POPS   D2A10654  11.082  15.799   6.545  0.2024  0.0824 -0.3110
  793POPS   C3A10655  11.290  15.990   6.879 -0.2118 -0.1695 -0.3922
  793POPS   C4A10656  11.256  15.830   7.335  0.2948  0.0275 -0.0512
  793POPS   C1B10657  11.290  15.042   6.581 -0.1177 -0.2075 -0.1655
  793POPS   C2B10658  11.126  14.941   6.968 -0.2114  0.1048  0.0874
  793POPS   C3B10659  11.025  14.929   7.468 -0.3563 -0.3091 -0.1033
  793POPS   C4B10660  10.861  14.731   7.881 -0.2249 -0.0445  0.1924
  794POPS   CNO10661   8.106   0.388   6.071 -0.0091 -0.0165  0.4039
  794POPS   PO410662   7.877   0.272   6.449 -0.0341  0.1091 -0.0998
  794POPS   GL110663   7.918   0.300   6.807 -0.1186  0.0675  0.1186
  794POPS   GL210664   8.040   0.626   6.808  0.0413 -0.1501 -0.2929
  794POPS   C1A10665   8.032   0.174   7.216  0.2885  0.3532 -0.0425
  794POPS   D2A10666   8.242   0.073   7.651  0.2786  0.0149  0.0829
  794POPS   C3A10667   8.125   0.004   8.021  0.4608  0.1846  0.2584
  794POPS   C4A10668   7.746  -0.040   8.266 -0.2906  0.0815 -0.1010
  794POPS   C1B10669   8.145   0.610   7.173  0.1643  0.1288 -0.0586
  794POPS   C2B10670   8.341   0.546   7.555 -0.2134  0.1264 -0.0031
  794POPS   C3B10671   8.227   0.753   7.928 -0.0230 -0.1035  0.0878
  794POPS   C4B10672   7.802   0.882   8.114 -0.0323 -0.2471  0.1191
  795POPS   CNO10673   3.974   0.080   5.559 -0.0441  0.0997  0.1864
  795POPS   PO410674   4.153   0.394   5.970 -0.2905  0.0203 -0.1587
  795POPS   GL110675   4.258   0.222   6.424 -0.1221 -0.0126 -0.4334
  795POPS   GL210676   4.500   0.293   6.523  0.3264 -0.0351 -0.0474
  795POPS   C1A10677   4.080   0.158   6.815 -0.0247 -0.0327 -0.0936
  795POPS   D2A10678   3.797   0.344   7.171 -0.1109 -0.2211  0.2079
  795POPS   C3A10679   3.950   0.235   7.587  0.0299  0.1970 -0.1036
  795POPS   C4A10680   4.229   0.160   7.867  0.0365 -0.0667  0.0504
  795POPS   C1B10681   4.511  -0.097   6.866  0.2062 -0.2575 -0.0063
  795POPS   C2B10682   4.620  -0.400   7.214  0.1243  0.2321 -0.0084
  795POPS   C3B10683   4.535  -0.358   7.649  0.1467  0.2803 -0.0123
  795POPS   C4B10684   4.697  -0.368   7.989 -0.5367 -0.0228 -0.0664
  796POPS   CNO10685   9.776  11.012   5.983  0.2975  0.2006 -0.1391
  796POPS   PO410686  10.083  10.927   5.633 -0.0047 -0.2083 -0.1359
  796POPS   GL110687  10.283  11.033   6.056  0.1917  0.4273  0.2302
  796POPS   GL210688  10.535  10.807   6.144  0.2283  0.0876  0.1808
  796POPS   C1A10689  10.471  11.254   6.452  0.1257 -0.1204  0.0972
  796POPS   D2A10690  10.373  11.128   6.837  0.1583  0.1845 -0.1829
  796POPS   C3A10691  10.465  11.309   7.223  0.1379  0.1812  0.0877
  796POPS   C4A10692  10.219  11.286   7.588 -0.1965  0.2472  0.2073
  796POPS   C1B10693  10.327  10.697   6.562 -0.3673  0.1548 -0.3282
  796POPS   C2B10694  10.442  10.700   7.066 -0.2805 -0.0518  0.0830
  796POPS   C3B10695  10.615  10.920   7.481 -0.0930 -0.0482 -0.1230
  796POPS   C4B10696  10.899  11.199   7.621 -0.0782  0.4314  0.1978
  797POPS   CNO10697   0.489   5.883   5.871 -0.1487 -0.1950 -0.1538
  797POPS   PO410698   0.429   5.450   5.968  0.0981 -0.1634 -0.1463
  797POPS   GL110699   0.361   5.305   6.353  0.2390 -0.0341  0.1662
  797POPS   GL210700   0.704   5.473   6.366  0.0453  0.2974  0.1241
  797POPS   C1A10701   0.367   5.262   6.823 -0.0816  0.1164  0.1645
  797POPS   D2A10702   0.314   5.158   7.298  0.4793 -0.0950  0.1435
  797POPS   C3A10703   0.538   5.414   7.712  0.0317  0.1580 -0.0724
  797POPS   C4A10704   0.612   5.725   7.955 -0.0918 -0.2062  0.0682
  797POPS   C1B10705   0.935   5.417   6.738  0.2313 -0.1884  0.0595
  797POPS   C2B10706   1.103   5.478   7.194  0.0809 -0.1063 -0.0318
  797POPS   C3B10707   1.112   5.512   7.657 -0.0943  0.1765  0.1342
  797POPS   C4B10708   0.968   5.236   7.979 -0.3207 -0.1741  0.1897
  798POPS   CNO10709  16.981  12.786   6.200  0.1095  0.0844  0.0562
  798POPS   PO410710  16.954  12.469   5.926  0.3647 -0.0730 -0.0699
  798POPS   GL110711  16.925  12.261   6.281  0.4534 -0.2539  0.0868
  798POPS   GL210712  17.017  12.006   6.261 -0.1745 -0.0370  0.0927
  798POPS   C1A10713  16.829  12.362   6.690  0.1051  0.1217  0.0703
  798POPS   D2A10714  16.660  12.501   7.098 -0.0303 -0.2496  0.0777
  798POPS   C3A10715  16.620  12.241   7.493  0.0402 -0.2908 -0.0047
  798POPS   C4A10716  16.951  12.246   7.802  0.4878 -0.0947 -0.0024
  798POPS   C1B10717  16.916  11.823   6.616 -0.1025 -0.0390 -0.1814
  798POPS   C2B10718  16.921  11.529   7.026 -0.0617  0.2914 -0.2002
  798POPS   C3B10719  17.060  11.272   7.380 -0.0093  0.1404  0.1349
  798POPS   C4B10720  17.445  11.162   7.761  0.0904 -0.1533  0.1769
  799POPS   CNO10721   1.130   6.079   5.955 -0.1410  0.1492  0.3016
  799POPS   PO410722   1.002   6.526   5.890  0.0788  0.1660  0.0178
  799POPS   GL110723   1.329   6.462   6.152  0.0080  0.2380 -0.1093
  799POPS   GL210724   1.472   6.593   6.419  0.2228  0.1282  0.2220
  799POPS   C1A10725   1.404   6.086   6.432 -0.0701  0.1480  0.5209
  799POPS   D2A10726   1.284   5.680   6.480 -0.0082  0.2203  0.0910
  799POPS   C3A10727   1.430   5.489   6.814 -0.3087  0.1511 -0.4282
  799POPS   C4A10728   1.307   5.071   6.836 -0.4016  0.3216  0.0297
  799POPS   C1B10729   1.343   6.396   6.819 -0.0981 -0.0844 -0.0933
  799POPS   C2B10730   0.931   6.506   7.124 -0.1363 -0.0195 -0.4536
  799POPS   C3B10731   0.787   6.342   7.504 -0.0034 -0.0294  0.1764
  799POPS   C4B10732   0.568   6.230   7.896 -0.0563  0.1222  0.0173
  800POPS   CNO10733  14.207   4.436   5.762 -0.1148 -0.1527 -0.1487
  800POPS   PO410734  14.434   4.078   5.808  0.1079 -0.0127 -0.2687
  800POPS   GL110735  14.467   4.371   6.189  0.2227 -0.2117  0.0768
  800POPS   GL210736  14.692   4.099   6.398  0.0730  0.2144  0.0742
  800POPS   C1A10737  14.452   4.501   6.628  0.0800 -0.0345  0.2122
  800POPS   D2A10738  14.545   4.538   7.074  0.0156  0.0690  0.0716
  800POPS   C3A10739  14.258   4.455   7.349  0.1719  0.0249 -0.1097
  800POPS   C4A10740  14.219   4.012   7.594  0.0329 -0.0928 -0.0097
  800POPS   C1B10741  14.605   4.011   6.773  0.0277  0.0780  0.0633
  800POPS   C2B10742  14.480   4.043   7.097  0.1910  0.3920  0.1537
  800POPS   C3B10743  14.656   4.152   7.525  0.3110  0.2939 -0.1808
  800POPS   C4B10744  14.496   4.434   7.884 -0.2183 -0.1013 -0.0697
  801POPS   CNO10745  11.612   0.359   5.154  0.0330 -0.0484  0.1813
  801POPS   PO410746  11.301   0.497   5.487 -0.1304  0.1329 -0.0396
  801POPS   GL110747  11.246   0.355   5.837  0.0175  0.1177  0.1807
  801POPS   GL210748  11.085   0.620   5.959  0.0140 -0.0328 -0.1704
  801POPS   C1A10749  11.364   0.309   6.308 -0.1923 -0.0612  0.0362
  801POPS   D2A10750  11.371  -0.019   6.638  0.2993  0.1036 -0.4247
  801POPS   C3A10751  11.128   0.008   7.010 -0.4159  0.1423 -0.1821
  801POPS   C4A10752  11.111  -0.107   7.474  0.2687 -0.1616 -0.5026
  801POPS   C1B10753  11.064   0.606   6.445 -0.0693 -0.1443  0.0654
  801POPS   C2B10754  11.160   0.514   6.860  0.0198  0.1480 -0.3712
  801POPS   C3B10755  11.262   0.381   7.297  0.1828 -0.0156 -0.4116
  801POPS   C4B10756  10.997   0.313   7.718 -0.1150 -0.1251  0.2589
  802POPS   CNO10757  12.021   9.948   5.463 -0.1847  0.0158  0.1005
  802POPS   PO410758  12.008   9.562   5.675  0.0537  0.2241 -0.1381
  802POPS   GL110759  11.948   9.570   6.107  0.0689 -0.2546  0.1938
  802POPS   GL210760  11.746   9.311   6.192 -0.3452  0.1439 -0.2006
  802POPS   C1A10761  12.187   9.368   6.481 -0.0557 -0.1792  0.1224
  802POPS   D2A10762  12.317   9.449   6.808  0.1812  0.1367  0.1345
  802POPS   C3A10763  12.179   9.418   7.234  0.1002 -0.4213 -0.0533
  802POPS   C4A10764  11.979   9.653   7.565 -0.2371 -0.1043 -0.2795
  802POPS   C1B10765  11.649   9.064   6.543  0.4365 -0.1743  0.0632
  802POPS   C2B10766  11.475   8.960   7.028 -0.0371 -0.2216  0.0125
  802POPS   C3B10767  11.279   8.972   7.404  0.0420 -0.0936  0.1575
  802POPS   C4B10768  11.095   8.780   7.775  0.0944  0.1537 -0.3096
  803POPS   CNO10769   1.150  14.641   5.926  0.3053  0.2868 -0.1285
  803POPS   PO410770   1.013  15.014   5.920 -0.1029 -0.2197 -0.1511
  803POPS   GL110771   1.087  15.053   6.446  0.0319 -0.2880  0.0229
  803POPS   GL210772   1.001  14.754   6.384  0.0706  0.1148  0.1211
  803POPS   C1A10773   1.018  15.178   6.805  0.2501 -0.0502 -0.2928
  803POPS   D2A10774   1.045  15.350   7.224 -0.1095 -0.6260 -0.3906
  803POPS   C3A10775   0.875  15.036   7.472  0.0593  0.1130 -0.3840
  803POPS   C4A10776   0.635  15.005   7.786 -0.0972 -0.0748 -0.0233
  803POPS   C1B10777   0.749  14.591   6.733 -0.1060  0.0951  0.1069
  803POPS   C2B10778   0.847  14.569   7.173  0.0068 -0.2984  0.0405
  803POPS   C3B10779   0.768  14.523   7.539  0.1819 -0.0230  0.0390
  803POPS   C4B10780   0.531  14.288   7.789 -0.0710  0.2919 -0.1351
  804POPS   CNO10781   2.810   3.415   5.799 -0.0661 -0.1292 -0.0119
  804POPS   PO410782   3.239   3.540   5.975  0.1653  0.0520 -0.0372
  804POPS   GL110783   3.279   3.726   6.381  0.3245 -0.1762  0.3419
  804POPS   GL210784   3.269   3.986   6.607 -0.1655 -0.0856 -0.2182
  804POPS   C1A10785   3.429   3.486   6.794  0.0771 -0.1425 -0.0220
  804POPS   D2A10786   3.431   3.540   7.211  0.0015 -0.0795 -0.4027
  804POPS   C3A10787   3.569   3.698   7.588 -0.1990 -0.1705  0.2459
  804POPS   C4A10788   3.379   3.887   7.912  0.1179 -0.0727 -0.0125
  804POPS   C1B10789   3.523   4.072   7.061 -0.1694  0.0241  0.1117
  804POPS   C2B10790   3.535   4.246   7.511  0.1691  0.3186 -0.2040
  804POPS   C3B10791   3.831   4.114   7.853  0.0149 -0.1643  0.1579
  804POPS   C4B10792   4.146   4.057   8.242 -0.1951  0.2246 -0.2467
  805POPS   CNO10793  12.810  10.053   5.279  0.1281 -0.0908  0.0720
  805POPS   PO410794  12.514  10.235   5.576 -0.2536 -0.0907  0.0716
  805POPS   GL110795  12.618   9.970   5.912 -0.1128 -0.4215 -0.1323
  805POPS   GL210796  12.315   9.938   5.979  0.0579 -0.1635  0.0299
  805POPS   C1A10797  12.901  10.028   6.206  0.0358 -0.1982  0.3420
  805POPS   D2A10798  13.104  10.117   6.539  0.2418 -0.0461  0.0527
  805POPS   C3A10799  12.983   9.910   6.855 -0.2541 -0.2376 -0.0608
  805POPS   C4A10800  12.850   9.555   7.047  0.0526 -0.2223  0.2503
  805POPS   C1B10801  12.047   9.990   6.331  0.0282  0.0350  0.1163
  805POPS   C2B10802  11.992   9.911   6.864  0.5509 -0.1081  0.1759
  805POPS   C3B10803  11.967  10.050   7.303  0.1292 -0.1861  0.0996
  805POPS   C4B10804  11.693  10.263   7.609 -0.0766 -0.0853 -0.1703
  806POPS   CNO10805  14.326   2.975   5.259 -0.1499 -0.1111  0.1014
  806POPS   PO410806  13.878   2.800   5.293 -0.4179  0.0476  0.2361
  806POPS   GL110807  13.956   2.802   5.686 -0.1083  0.2467 -0.3004
  806POPS   GL210808  13.603   2.729   5.911 -0.0407  0.2074  0.0331
  806POPS   C1A10809  13.998   2.906   6.120 -0.1032 -0.0241  0.1162
  806POPS   D2A10810  13.848   2.640   6.543 -0.1206  0.3116  0.1703
  806POPS   C3A10811  13.990   2.823   6.847 -0.1937 -0.3585  0.1186
  806POPS   C4A10812  14.176   3.089   7.176  0.1854 -0.3578  0.3434
  806POPS   C1B10813  13.402   2.617   6.313  0.0083  0.0391  0.1193
  806POPS   C2B10814  13.396   2.548   6.719 -0.0745  0.4238 -0.0136
  806POPS   C3B10815  13.650   2.479   7.059  0.0672 -0.2059 -0.0083
  806POPS   C4B10816  13.724   2.235   7.433  0.2235  0.2520 -0.0026
  807POPS   CNO10817  17.947   0.282   5.948  0.2539  0.1005  0.1306
  807POPS   PO410818  17.663   0.518   6.208 -0.1478 -0.1288  0.1065
  807POPS   GL110819  17.638   0.345   6.637 -0.1310  0.0226 -0.0278
  807POPS   GL210820  17.376   0.307   6.837 -0.4585 -0.0721 -0.3062
  807POPS   C1A10821  17.745  -0.066   6.742  0.0094  0.0246 -0.3119
  807POPS   D2A10822  17.803  -0.144   7.198  0.3600  0.1160  0.0227
  807POPS   C3A10823  18.135   0.008   7.430  0.1984  0.3783  0.2112
  807POPS   C4A10824  18.649  -0.027   7.537 -0.4633 -0.3010  0.1625
  807POPS   C1B10825  17.467   0.274   7.243 -0.0812  0.2017  0.1507
  807POPS   C2B10826  17.322   0.389   7.592  0.0898 -0.0251 -0.0715
  807POPS   C3B10827  17.167   0.647   7.945  0.0308  0.2051 -0.1845
  807POPS   C4B10828  17.053   0.825   8.335  0.3479  0.0818 -0.0667
  808POPS   CNO10829  14.197  15.133   5.798 -0.2257 -0.4331 -0.0193
  808POPS   PO410830  14.293  15.432   6.168  0.3065  0.1940 -0.0492
  808POPS   GL110831  14.188  15.280   6.586  0.0670 -0.0959  0.3578
  808POPS   GL210832  14.152  15.538   6.771  0.0028  0.0862  0.0996
  808POPS   C1A10833  13.963  15.013   6.781  0.0389 -0.1632  0.0268
  808POPS   D2A10834  13.629  15.124   7.099 -0.2955 -0.1600  0.0238
  808POPS   C3A10835  13.812  15.132   7.461 -0.1994 -0.1324  0.2024
  808POPS   C4A10836  14.222  15.151   7.689 -0.0238 -0.0134 -0.1928
  808POPS   C1B10837  14.262  15.357   7.130  0.1087 -0.2799 -0.3036
  808POPS   C2B10838  14.505  15.486   7.504  0.1321 -0.0376  0.0260
  808POPS   C3B10839  14.544  15.425   7.927 -0.3242  0.0173 -0.3791
  808POPS   C4B10840  14.876  15.332   8.095  0.3413 -0.1242  0.1831
  809POPS   CNO10841  11.753  14.773   5.297 -0.1274  0.0136 -0.3429
  809POPS   PO410842  11.927  14.708   5.678  0.1582 -0.1109  0.0879
  809POPS   GL110843  11.739  14.638   6.063 -0.2319 -0.1254  0.0434
  809POPS   GL210844  11.994  14.695   6.199 -0.1774  0.1347 -0.0642
  809POPS   C1A10845  11.512  14.472   6.432  0.0989 -0.0512  0.0083
  809POPS   D2A10846  11.519  14.580   6.748  0.1350 -0.0421 -0.0620
  809POPS   C3A10847  11.747  14.930   7.015 -0.0583 -0.2523 -0.2857
  809POPS   C4A10848  11.932  14.829   7.361  0.2409 -0.1781 -0.3073
  809POPS   C1B10849  12.074  14.470   6.585 -0.1312 -0.2188  0.2088
  809POPS   C2B10850  11.942  14.441   7.025  0.1229 -0.2875  0.0297
  809POPS   C3B10851  11.905  14.185   7.339  0.2117  0.0659  0.2079
  809POPS   C4B10852  11.647  13.832   7.384 -0.1493 -0.1371  0.1361
  810POPS   CNO10853  13.246  16.920   6.026  0.3226  0.0583  0.0707
  810POPS   PO410854  12.941  17.138   5.813  0.1132 -0.2287 -0.0283
  810POPS   GL110855  12.781  17.012   6.184  0.2052  0.1102  0.2226
  810POPS   GL210856  12.539  17.038   6.217 -0.1131 -0.2612 -0.0325
  810POPS   C1A10857  12.921  16.854   6.560  0.1388  0.0094 -0.3882
  810POPS   D2A10858  12.885  16.784   6.945 -0.1749  0.3946 -0.1296
  810POPS   C3A10859  12.479  16.941   7.261 -0.2124  0.2765  0.0862
  810POPS   C4A10860  12.210  17.035   7.671  0.2928  0.1788  0.0227
  810POPS   C1B10861  12.223  17.338   6.064  0.0326  0.2496 -0.0392
  810POPS   C2B10862  12.254  17.810   5.976  0.0029  0.1293 -0.3735
  810POPS   C3B10863  12.330  18.213   6.272 -0.2482 -0.1961  0.1377
  810POPS   C4B10864  12.446  18.223   6.645 -0.0401 -0.1115  0.1586
  811POPS   CNO10865   7.387   9.820   4.906 -0.2384 -0.1887  0.0933
  811POPS   PO410866   7.656   9.955   5.273 -0.0346  0.0460  0.1862
  811POPS   GL110867   7.780   9.761   5.708  0.0908 -0.0230 -0.2670
  811POPS   GL210868   8.052   9.862   5.821 -0.1844  0.0759 -0.0959
  811POPS   C1A10869   7.703   9.538   6.114  0.3547 -0.1542 -0.1928
  811POPS   D2A10870   7.675   9.540   6.537 -0.0185 -0.0887 -0.2562
  811POPS   C3A10871   7.678   9.450   6.958 -0.1910  0.0131 -0.2790
  811POPS   C4A10872   7.288   9.479   7.310 -0.1650  0.0841  0.2490
  811POPS   C1B10873   7.825  10.062   6.160  0.0028 -0.1193 -0.4034
  811POPS   C2B10874   7.872  10.054   6.628  0.1862 -0.0564  0.0844
  811POPS   C3B10875   7.785   9.943   7.093  0.2494 -0.1900 -0.0782
  811POPS   C4B10876   7.833   9.675   7.450 -0.1323  0.1804  0.1636
  812YOPS   CNO10877   0.519  13.712   6.304  0.0420  0.2136  0.2766
  812YOPS   PO410878   0.713  13.379   6.356  0.0165 -0.2307  0.0141
  812YOPS   GL110879   0.581  13.521   6.778 -0.0659  0.2314 -0.0738
  812YOPS   GL210880   0.240  13.655   6.743  0.1222  0.0565  0.0031
  812YOPS   C1A10881   0.585  13.309   7.068  0.1204 -0.0981  0.0756
  812YOPS   D2A10882   0.326  13.183   7.317 -0.1430  0.1650 -0.1635
  812YOPS   C3A10883   0.024  13.411   7.679  0.0535 -0.0447 -0.1216
  812YOPS   C4A10884   0.028  13.727   7.853 -0.1286  0.0992  0.3299
  812YOPS   C1B10885   0.156  13.275   6.855  0.2758  0.1858 -0.3973
  812YOPS   C2B10886  -0.120  13.075   7.256 -0.1344 -0.0860 -0.1651
  812YOPS   D3B10887  -0.354  13.184   7.632 -0.0387 -0.1408  0.0353
  812YOPS   C4B10888  -0.579  13.015   7.931 -0.1398 -0.2701 -0.1762
  813YOPS   CNO10889  13.502   6.702   5.844  0.0528 -0.1207 -0.0761
  813YOPS   PO410890  13.849   6.718   5.735 -0.4550  0.1770  0.1969
  813YOPS   GL110891  13.943   6.543   6.115  0.4765  0.0370 -0.2363
  813YOPS   GL210892  13.978   6.780   6.238 -0.2385  0.1655  0.1252
  813YOPS   C1A10893  14.002   6.271   6.513  0.1073 -0.0396 -0.2224
  813YOPS   D2A10894  14.094   6.208   6.882 -0.0921 -0.0654  0.0790
  813YOPS   C3A10895  13.902   6.271   7.301 -0.2053  0.0392  0.2895
  813YOPS   C4A10896  14.106   6.313   7.679  0.2457 -0.3434  0.3195
  813YOPS   C1B10897  14.108   6.717   6.676 -0.0399 -0.2098 -0.0628
  813YOPS   C2B10898  14.147   6.722   7.049 -0.0142 -0.0821  0.2316
  813YOPS   D3B10899  14.448   6.661   7.487  0.3613 -0.0266  0.2664
  813YOPS   C4B10900  14.267   6.748   7.968  0.0609  0.2320  0.0188
  814YOPS   CNO10901   4.078   4.869   6.305  0.0399 -0.4209 -0.2778
  814YOPS   PO410902   4.080   5.123   5.962  0.0408  0.2342 -0.1734
  814YOPS   GL110903   4.401   5.281   6.309  0.0894 -0.0162  0.2448
  814YOPS   GL210904   4.690   5.554   6.366  0.0319 -0.4077  0.1315
  814YOPS   C1A10905   4.256   5.458   6.734  0.0758  0.1605  0.1692
  814YOPS   D2A10906   4.174   5.719   7.082 -0.0293  0.0012 -0.0469
  814YOPS   C3A10907   4.245   5.934   7.439  0.1746  0.2578  0.0011
  814YOPS   C4A10908   3.813   5.971   7.765  0.1740  0.0099 -0.0167
  814YOPS   C1B10909   4.724   5.273   6.700  0.1072 -0.0773 -0.2046
  814YOPS   C2B10910   4.795   4.886   6.917 -0.1434  0.3105 -0.0043
  814YOPS   D3B10911   4.788   4.419   7.080  0.2959  0.0548  0.0101
  814YOPS   C4B10912   4.795   4.375   7.572  0.0290  0.1184 -0.1545
  815YOPS   CNO10913  13.550   5.632   5.093 -0.1252 -0.1144 -0.2656
  815YOPS   PO410914  13.337   5.782   5.463  0.1329  0.0860 -0.1048
  815YOPS   GL110915  13.605   5.845   5.831  0.4639 -0.1663 -0.1152
  815YOPS   GL210916  13.522   6.218   6.052  0.1348 -0.1355  0.1370
  815YOPS   C1A10917  13.824   5.638   6.150 -0.1230  0.0929  0.2010
  815YOPS   D2A10918  13.908   5.767   6.470 -0.1134 -0.0756 -0.0752
  815YOPS   C3A10919  13.993   5.701   6.853 -0.2605 -0.0096 -0.1782
  815YOPS   C4A10920  13.817   5.335   6.996  0.1383  0.1860  0.0912
  815YOPS   C1B10921  13.492   6.015   6.505  0.0408 -0.1336 -0.0145
  815YOPS   C2B10922  13.567   5.882   6.991 -0.1218 -0.3639 -0.0201
  815YOPS   D3B10923  13.903   5.745   7.338 -0.2673  0.0389 -0.0239
  815YOPS   C4B10924  14.387   5.976   7.256  0.2419 -0.0290  0.1205
  816YOPS   CNO10925   4.538   4.178   6.175 -0.4818  0.0754  0.0567
  816YOPS   PO410926   4.115   4.312   6.296 -0.0304  0.0648 -0.1190
  816YOPS   GL110927   4.241   4.440   6.638  0.1952  0.1722 -0.3763
  816YOPS   GL210928   4.036   4.298   6.899 -0.1173  0.2535  0.0542
  816YOPS   C1A10929   4.373   4.792   6.767  0.1150  0.1937  0.0738
  816YOPS   D2A10930   4.248   5.113   7.088  0.1951 -0.0597 -0.1751
  816YOPS   C3A10931   4.200   5.124   7.501  0.1008 -0.0306  0.1528
  816YOPS   C4A10932   4.585   5.147   7.814  0.1686 -0.1937  0.0857
  816YOPS   C1B10933   4.326   4.548   7.182  0.0662 -0.2453  0.2751
  816YOPS   C2B10934   4.607   4.835   7.429 -0.1215 -0.2851 -0.1615
  816YOPS   D3B10935   4.981   5.115   7.383 -0.0267  0.1789  0.2908
  816YOPS   C4B10936   5.209   5.305   7.077  0.1371  0.1221 -0.1484
  817YOPS   CNO10937  16.952   6.260   5.422 -0.2224 -0.1833  0.0544
  817YOPS   PO410938  16.733   6.239   5.786  0.2602  0.0282  0.3380
  817YOPS   GL110939  16.569   6.460   6.007  0.1118  0.0810  0.0006
  817YOPS   GL210940  16.587   6.204   6.237  0.1288  0.3996  0.1317
  817YOPS   C1A10941  16.659   6.642   6.428  0.0289 -0.1542  0.1051
  817YOPS   D2A10942  16.931   6.608   6.793 -0.2199 -0.1068 -0.0553
  817YOPS   C3A10943  16.939   6.511   7.162 -0.0776 -0.2549  0.1702
  817YOPS   C4A10944  16.846   6.089   7.273 -0.0798 -0.3221 -0.1645
  817YOPS   C1B10945  16.385   6.240   6.500  0.3097 -0.0155 -0.2217
  817YOPS   C2B10946  16.169   6.420   6.729 -0.1772  0.0040 -0.2082
  817YOPS   D3B10947  15.969   6.557   7.083  0.1505 -0.0332  0.2161
  817YOPS   C4B10948  15.986   6.924   7.174 -0.4113 -0.0036  0.1190
  818YOPS   CNO10949   5.346   9.235   5.276  0.0129 -0.0778 -0.1838
  818YOPS   PO410950   5.640   8.899   5.398  0.0059  0.0745  0.0175
  818YOPS   GL110951   5.722   8.718   5.733  0.1295  0.0254  0.3767
  818YOPS   GL210952   5.866   8.421   5.703 -0.4543 -0.2495  0.1407
  818YOPS   C1A10953   5.468   8.568   6.105 -0.0552  0.0284  0.1323
  818YOPS   D2A10954   5.477   8.555   6.499  0.1375  0.1110  0.1853
  818YOPS   C3A10955   5.182   8.488   6.802  0.0297 -0.0936  0.1741
  818YOPS   C4A10956   5.094   8.686   7.157  0.1804  0.0811 -0.1449
  818YOPS   C1B10957   6.114   8.706   6.047 -0.1144 -0.1264  0.2887
  818YOPS   C2B10958   5.849   8.963   6.296 -0.1871  0.1072  0.0573
  818YOPS   D3B10959   5.739   9.205   6.703  0.0226 -0.0686  0.2490
  818YOPS   C4B10960   6.039   9.461   6.937  0.2512 -0.1606  0.1630
  819YOPS   CNO10961  10.058  14.071   5.613  0.0568  0.1156 -0.0512
  819YOPS   PO410962  10.243  13.769   5.892  0.3030 -0.3775  0.0598
  819YOPS   GL110963  10.015  13.911   6.249 -0.2109 -0.2547  0.2542
  819YOPS   GL210964   9.756  13.786   6.286 -0.1457 -0.0358 -0.3806
  819YOPS   C1A10965  10.005  14.021   6.716 -0.2341  0.3051 -0.0456
  819YOPS   D2A10966   9.929  14.191   7.128  0.1068 -0.4443  0.1955
  819YOPS   C3A10967   9.869  14.049   7.535 -0.2125 -0.0192  0.0145
  819YOPS   C4A10968  10.172  13.738   7.750  0.2270 -0.0086  0.4718
  819YOPS   C1B10969   9.915  13.504   6.622  0.0229 -0.1594  0.1427
  819YOPS   C2B10970  10.359  13.296   6.658 -0.1614  0.0896  0.2511
  819YOPS   D3B10971  10.728  13.380   6.798  0.3964 -0.2135  0.1150
  819YOPS   C4B10972  10.888  13.348   7.184 -0.0017 -0.2211 -0.0300
  820YOPS   CNO10973  14.593  17.712   5.492 -0.2082 -0.0598  0.1061
  820YOPS   PO410974  14.713  17.319   5.600  0.1774  0.1502 -0.3314
  820YOPS   GL110975  14.623  17.252   6.082  0.0080 -0.1406 -0.0712
  820YOPS   GL210976  14.553  16.975   6.216  0.2136 -0.2121  0.0490
  820YOPS   C1A10977  14.691  17.430   6.471 -0.1078 -0.2348 -0.2727
  820YOPS   D2A10978  15.065  17.612   6.493  0.3438  0.1825  0.1112
  820YOPS   C3A10979  15.292  17.971   6.607  0.0445 -0.0252  0.1616
  820YOPS   C4A10980  15.240  18.024   6.986 -0.0246 -0.0623 -0.3382
  820YOPS   C1B10981  14.549  16.803   6.549 -0.1647 -0.2113  0.2616
  820YOPS   C2B10982  14.548  16.776   6.952 -0.1875  0.2475 -0.0229
  820YOPS   D3B10983  14.850  16.583   7.235  0.1773 -0.3753  0.2399
  820YOPS   C4B10984  15.237  16.410   7.198  0.0382  0.1630 -0.0124
  821YOPS   CNO10985   7.991   1.359   5.797 -0.0389 -0.2737  0.0430
  821YOPS   PO410986   8.397   1.346   6.053  0.1719  0.1408 -0.0317
  821YOPS   GL110987   8.644   1.300   6.376 -0.0858 -0.1404  0.0235
  821YOPS   GL210988   8.560   1.668   6.438  0.3299  0.1077 -0.1675
  821YOPS   C1A10989   9.032   1.252   6.487  0.1283 -0.3615 -0.0122
  821YOPS   D2A10990   9.348   1.427   6.745  0.0833 -0.1691 -0.1031
  821YOPS   C3A10991   9.538   1.842   6.740  0.3114  0.0926 -0.0504
  821YOPS   C4A10992   9.808   1.841   7.163 -0.1511 -0.0786 -0.0920
  821YOPS   C1B10993   8.760   1.630   6.820 -0.4031  0.2472  0.1194
  821YOPS   C2B10994   8.960   1.547   7.149  0.0025 -0.1167  0.3624
  821YOPS   D3B10995   8.806   1.484   7.557  0.2629 -0.1385  0.0277
  821YOPS   C4B10996   9.043   1.297   7.894  0.0538  0.0836  0.0124
  822YOPS   CNO10997  10.858  14.544   5.984 -0.3476 -0.0256  0.1567
  822YOPS   PO410998  10.629  14.820   5.753  0.0462 -0.3404 -0.0797
  822YOPS   GL110999  10.432  15.173   6.034 -0.1251  0.1217 -0.0935
  822YOPS   GL211000  10.418  15.071   6.287 -0.2352 -0.0024  0.0195
  822YOPS   C1A11001  10.135  15.461   6.285 -0.2793 -0.2795  0.2594
  822YOPS   D2A11002   9.974  15.542   6.583  0.4392 -0.1658 -0.2091
  822YOPS   C3A11003   9.718  15.509   6.890 -0.0122  0.0468 -0.0684
  822YOPS   C4A11004   9.340  15.895   6.866 -0.3020 -0.1730 -0.1728
  822YOPS   C1B11005  10.464  15.348   6.672 -0.0162 -0.0950  0.0637
  822YOPS   C2B11006  10.557  15.317   7.091  0.1177 -0.0830  0.1548
  822YOPS   D3B11007  10.388  15.164   7.412  0.0852 -0.4817  0.0560
  822YOPS   C4B11008  10.633  15.163   7.764 -0.0248 -0.1934  0.1590
  823YOPS   CNO11009   7.927   7.311   5.906  0.1995 -0.0360 -0.0208
  823YOPS   PO411010   7.861   7.092   6.194  0.0134 -0.0510 -0.0306
  823YOPS   GL111011   7.659   7.012   6.558  0.3018 -0.2337  0.0590
  823YOPS   GL211012   7.250   6.939   6.501 -0.1736 -0.1497  0.0871
  823YOPS   C1A11013   7.756   7.219   6.960  0.0557 -0.0724  0.3966
  823YOPS   D2A11014   7.994   7.209   7.309  0.1460  0.2913 -0.1030
  823YOPS   C3A11015   8.223   6.997   7.650  0.1421  0.1645 -0.2188
  823YOPS   C4A11016   8.684   6.746   7.599 -0.0211  0.0478 -0.1295
  823YOPS   C1B11017   7.320   7.016   6.946  0.0271  0.1662  0.2405
  823YOPS   C2B11018   7.549   7.017   7.350 -0.0317  0.1285  0.0165
  823YOPS   D3B11019   7.729   6.961   7.820  0.0390 -0.0658  0.1312
  823YOPS   C4B11020   7.861   6.588   7.933  0.2692 -0.0139  0.1604
  824YOPS   CNO11021   6.044  18.049   6.388 -0.0648 -0.0665 -0.0475
  824YOPS   PO411022   5.877  18.369   6.249 -0.1766 -0.1641 -0.0693
  824YOPS   GL111023   5.490  18.209   6.450  0.0912  0.4762 -0.3742
  824YOPS   GL211024   5.396  18.467   6.587 -0.0748  0.0992 -0.1879
  824YOPS   C1A11025   5.270  17.807   6.596  0.0029  0.0117 -0.0678
  824YOPS   D2A11026   5.157  17.693   6.941 -0.1403 -0.0054 -0.3529
  824YOPS   C3A11027   4.941  17.602   7.346  0.1304  0.0445 -0.1242
  824YOPS   C4A11028   5.052  17.901   7.548  0.1313 -0.0734 -0.2757
  824YOPS   C1B11029   5.544  18.079   6.914  0.2608 -0.0036  0.0130
  824YOPS   C2B11030   5.413  18.056   7.260  0.0697  0.1256  0.1535
  824YOPS   D3B11031   5.550  17.937   7.686  0.1064 -0.1169  0.0975
  824YOPS   C4B11032   5.343  17.755   8.108  0.0989  0.1088  0.2521
  825YOPS   CNO11033   9.105  18.261   5.319  0.0611 -0.0949  0.3647
  825YOPS   PO411034   9.529  18.106   5.524 -0.1901 -0.2896 -0.1562
  825YOPS   GL111035   9.753  18.375   5.818  0.0542  0.3058 -0.3008
  825YOPS   GL211036   9.636  18.567   6.052  0.0688  0.0699  0.0755
  825YOPS   C1A11037  10.076  18.303   6.121 -0.2121 -0.2705 -0.0552
  825YOPS   D2A11038  10.241  17.970   6.272  0.2183  0.2422  0.4308
  825YOPS   C3A11039  10.332  17.773   6.561  0.0575  0.2836  0.1784
  825YOPS   C4A11040  10.120  17.706   6.864  0.0907  0.0050  0.0966
  825YOPS   C1B11041   9.538  18.671   6.507 -0.2509 -0.1706  0.3766
  825YOPS   C2B11042   9.462  18.745   6.945 -0.2358 -0.5073 -0.0773
  825YOPS   D3B11043   9.498  19.072   7.270  0.0349 -0.1085 -0.1341
  825YOPS   C4B11044   9.827  19.182   7.544  0.0267 -0.0607 -0.1892
  826YOPS   CNO11045  12.248  12.001   6.249 -0.0519 -0.0586  0.3334
  826YOPS   PO411046  12.189  11.813   5.860  0.2951  0.0955 -0.1388
  826YOPS   GL111047  12.131  11.508   6.173 -0.2705  0.0182 -0.0311
  826YOPS   GL211048  11.958  11.209   6.077  0.0877 -0.2583 -0.2240
  826YOPS   C1A11049  12.284  11.412   6.592  0.4835  0.1928 -0.0348
  826YOPS   D2A11050  12.338  11.242   6.970  0.2744  0.0616  0.0208
  826YOPS   C3A11051  12.634  11.250   7.323 -0.2238 -0.1240 -0.0286
  826YOPS   C4A11052  12.456  11.424   7.585  0.2138  0.1910  0.2256
  826YOPS   C1B11053  11.824  11.249   6.502 -0.3313  0.2533  0.1972
  826YOPS   C2B11054  11.780  11.238   6.946 -0.0045 -0.2008 -0.3441
  826YOPS   D3B11055  11.539  11.107   7.301 -0.1289  0.2653 -0.1800
  826YOPS   C4B11056  11.515  11.271   7.634 -0.1354  0.0416  0.0540
  827YOPS   CNO11057   1.579   7.014   6.144 -0.0327 -0.2772  0.0607
  827YOPS   PO411058   1.126   6.982   6.100 -0.1497  0.1492  0.3794
  827YOPS   GL111059   1.065   6.898   6.428  0.2961  0.0537 -0.1858
  827YOPS   GL211060   0.948   6.640   6.529 -0.0041 -0.5047  0.1497
  827YOPS   C1A11061   0.751   7.115   6.736  0.1410  0.1577 -0.0342
  827YOPS   D2A11062   0.782   7.115   7.192  0.1172 -0.2597  0.0750
  827YOPS   C3A11063   0.988   7.141   7.620  0.2999 -0.4006  0.0170
  827YOPS   C4A11064   0.621   7.228   7.893 -0.2871 -0.0158  0.0391
  827YOPS   C1B11065   1.145   6.880   6.924  0.2156  0.0234 -0.0607
  827YOPS   C2B11066   1.289   6.820   7.334  0.0094 -0.2152  0.0554
  827YOPS   D3B11067   1.476   7.010   7.652  0.2848  0.2266  0.2316
  827YOPS   C4B11068   1.373   7.130   8.054  0.2068 -0.1297  0.3164
  828YOPS   CNO11069   8.984  13.348   5.598  0.0506  0.1870 -0.3617
  828YOPS   PO411070   8.662  13.503   5.873  0.0311 -0.2801 -0.1927
  828YOPS   GL111071   8.744  13.218   6.224 -0.1462  0.1218 -0.3380
  828YOPS   GL211072   8.513  13.021   5.958  0.1090  0.0489 -0.0770
  828YOPS   C1A11073   8.945  13.241   6.601  0.0601 -0.0446  0.0738
  828YOPS   D2A11074   9.043  13.069   7.014 -0.0955 -0.3666  0.2913
  828YOPS   C3A11075   8.984  12.714   7.220 -0.0410  0.1316  0.1496
  828YOPS   C4A11076   9.250  12.820   7.643  0.2745  0.2386  0.1493
  828YOPS   C1B11077   8.503  12.850   6.452 -0.0084  0.0316  0.1225
  828YOPS   C2B11078   8.615  12.686   6.874  0.0105  0.5165 -0.0941
  828YOPS   D3B11079   8.487  12.593   7.237 -0.2130  0.0718 -0.0433
  828YOPS   C4B11080   8.448  12.200   7.531 -0.0427 -0.1034  0.0637
  829YOPS   CNO11081   5.931  12.904   5.526  0.0947 -0.2247  0.1996
  829YOPS   PO411082   6.006  13.172   5.879  0.1325 -0.0006 -0.1915
  829YOPS   GL111083   5.893  13.156   6.233  0.1840  0.3566  0.2683
  829YOPS   GL211084   5.866  13.381   6.477 -0.3038  0.1157  0.1282
  829YOPS   C1A11085   5.957  12.888   6.597  0.1729  0.0365 -0.1383
  829YOPS   D2A11086   6.112  12.944   7.046  0.1809  0.0370  0.1883
  829YOPS   C3A11087   6.178  12.989   7.570  0.1997 -0.1512  0.2309
  829YOPS   C4A11088   6.155  12.752   7.990  0.2431 -0.4595  0.3615
  829YOPS   C1B11089   5.850  13.380   6.906 -0.2360 -0.1659  0.1496
  829YOPS   C2B11090   5.903  13.412   7.301  0.0515 -0.3657  0.0771
  829YOPS   D3B11091   5.972  13.653   7.724 -0.1265  0.3027  0.1525
  829YOPS   C4B11092   6.240  13.284   8.093 -0.1453 -0.0270  0.3285
  830YOPS   CNO11093   5.583   4.083   5.868 -0.2133 -0.1611  0.1645
  830YOPS   PO411094   5.501   4.437   6.070 -0.0557  0.3057 -0.0339
  830YOPS   GL111095   5.804   4.534   6.368  0.0866  0.1777 -0.4227
  830YOPS   GL211096   5.864   4.292   6.618 -0.0805 -0.2128 -0.3678
  830YOPS   C1A11097   6.038   4.795   6.684 -0.0496 -0.1136 -0.2434
  830YOPS   D2A11098   6.231   4.895   7.148  0.4406 -0.0955 -0.3284
  830YOPS   C3A11099   6.392   5.205   7.320 -0.0795  0.1344 -0.3247
  830YOPS   C4A11100   6.317   5.130   7.721  0.1151  0.0523  0.0661
  830YOPS   C1B11101   5.820   4.440   7.123 -0.1127  0.2881 -0.0011
  830YOPS   C2B11102   5.859   4.724   7.440  0.4011  0.1325  0.0296
  830YOPS   D3B11103   5.630   4.757   7.797  0.4807 -0.0063 -0.0417
  830YOPS   C4B11104   5.760   4.429   8.065 -0.0667  0.4171  0.2488
  831YOPS   CNO11105  17.279  11.562   6.094  0.1469 -0.0679 -0.1375
  831YOPS   PO411106  16.771  11.476   6.033  0.0781 -0.2086  0.0618
  831YOPS   GL111107  16.507  11.521   6.315 -0.0839 -0.0288  0.0993
  831YOPS   GL211108  16.167  11.422   6.422 -0.0220 -0.1444  0.0146
  831YOPS   C1A11109  16.531  11.536   6.721 -0.1953  0.2710  0.1024
  831YOPS   D2A11110  16.370  11.491   7.085  0.1979 -0.1500 -0.0250
  831YOPS   C3A11111  16.283  11.467   7.542  0.4587 -0.1447  0.2066
  831YOPS   C4A11112  16.554  11.249   7.779 -0.2797  0.1648  0.2754
  831YOPS   C1B11113  15.893  11.558   6.787  0.3023 -0.0997  0.1206
  831YOPS   C2B11114  15.531  11.564   7.050 -0.0877 -0.3371  0.0427
  831YOPS   D3B11115  15.362  11.514   7.416 -0.2068  0.1835  0.0962
  831YOPS   C4B11116  15.634  11.568   7.676 -0.1301 -0.2581 -0.0318
  832YOPS   CNO11117  16.792   4.106   5.370  0.1746  0.1756 -0.1060
  832YOPS   PO411118  16.681   4.233   5.778 -0.1137  0.2236 -0.0031
  832YOPS   GL111119  16.669   4.119   6.201  0.1664  0.2232 -0.3065
  832YOPS   GL211120  17.021   4.254   6.333 -0.1553 -0.2287  0.4026
  832YOPS   C1A11121  16.542   3.852   6.618 -0.3309 -0.0154 -0.2178
  832YOPS   D2A11122  16.552   3.855   7.090 -0.2292  0.1706 -0.1689
  832YOPS   C3A11123  16.489   3.944   7.480  0.1655 -0.1812  0.3591
  832YOPS   C4A11124  16.828   4.183   7.678  0.0225 -0.0345  0.3334
  832YOPS   C1B11125  17.135   3.986   6.710 -0.1044 -0.1740  0.1379
  832YOPS   C2B11126  16.996   3.759   7.130 -0.2019  0.1318 -0.1380
  832YOPS   D3B11127  17.119   3.653   7.546  0.2384  0.0307 -0.1184
  832YOPS   C4B11128  16.777   3.770   7.893  0.0021  0.0999  0.0924
  833YOPS   CNO11129   5.914  14.081   5.993  0.0443 -0.1703 -0.2927
  833YOPS   PO411130   5.942  13.653   6.005  0.0113 -0.0456 -0.0279
  833YOPS   GL111131   6.122  13.821   6.438  0.3289 -0.1272  0.1245
  833YOPS   GL211132   6.128  14.102   6.460  0.0572 -0.0525  0.2938
  833YOPS   C1A11133   6.097  13.826   6.845 -0.1759  0.0146 -0.0645
  833YOPS   D2A11134   6.090  13.916   7.267 -0.1489  0.3157 -0.0105
  833YOPS   C3A11135   5.926  14.141   7.531  0.0294 -0.1556 -0.1312
  833YOPS   C4A11136   5.881  14.104   7.937 -0.0371  0.1943  0.1265
  833YOPS   C1B11137   6.046  14.298   6.834 -0.2284 -0.0208 -0.0084
  833YOPS   C2B11138   5.824  14.483   7.163 -0.1913  0.0488  0.4057
  833YOPS   D3B11139   5.455  14.755   7.331  0.1036  0.3294  0.0663
  833YOPS   C4B11140   5.748  15.096   7.609  0.2310  0.2369  0.1117
  834YOPS   CNO11141   8.245  14.539   5.879  0.1029 -0.1289  0.0477
  834YOPS   PO411142   8.301  14.752   6.285 -0.3018  0.2064  0.0981
  834YOPS   GL111143   8.345  14.735   6.677 -0.0921 -0.1511 -0.0034
  834YOPS   GL211144   8.668  14.575   6.686  0.1846 -0.0382  0.0406
  834YOPS   C1A11145   8.602  14.891   7.036 -0.0681 -0.0269 -0.1228
  834YOPS   D2A11146   8.936  14.906   7.475 -0.1139 -0.1048  0.1203
  834YOPS   C3A11147   9.253  14.760   7.702  0.2514  0.2513  0.3053
  834YOPS   C4A11148   9.700  14.882   7.535  0.1477 -0.1979  0.1335
  834YOPS   C1B11149   8.936  14.471   7.021 -0.0802  0.0893 -0.0457
  834YOPS   C2B11150   9.205  14.393   7.277  0.0089 -0.2179  0.0765
  834YOPS   D3B11151   9.579  14.411   7.384 -0.0140 -0.4735  0.1760
  834YOPS   C4B11152   9.716  14.492   7.881  0.3175  0.0238  0.0300
  835YOPS   CNO11153   3.036   1.692   5.619  0.1457 -0.0721 -0.3276
  835YOPS   PO411154   3.233   1.882   6.030 -0.0363 -0.1141  0.3003
  835YOPS   GL111155   3.155   1.898   6.397  0.3125 -0.2396 -0.4925
  835YOPS   GL211156   3.015   1.734   6.592  0.3212  0.0797 -0.0486
  835YOPS   C1A11157   3.269   2.145   6.789  0.0535  0.2019 -0.0891
  835YOPS   D2A11158   3.330   2.173   7.309  0.1717  0.0989  0.3183
  835YOPS   C3A11159   3.292   2.023   7.716 -0.1828 -0.2128 -0.0918
  835YOPS   C4A11160   3.580   2.242   7.961  0.2896 -0.1591 -0.0239
  835YOPS   C1B11161   3.381   1.689   6.898 -0.3457 -0.0656  0.3538
  835YOPS   C2B11162   3.413   1.570   7.353 -0.1086 -0.1148  0.1362
  835YOPS   D3B11163   3.411   1.569   7.734  0.0367 -0.1454 -0.0657
  835YOPS   C4B11164   3.092   1.325   7.947 -0.1640  0.0261 -0.1373
  836YOPS   CNO11165   3.589   6.334   5.129 -0.1020  0.1685  0.4395
  836YOPS   PO411166   3.226   6.239   5.359 -0.3387 -0.0545 -0.1555
  836YOPS   GL111167   3.328   6.186   5.775  0.3047 -0.0605 -0.0874
  836YOPS   GL211168   3.100   5.962   5.931 -0.0121  0.0203  0.1066
  836YOPS   C1A11169   3.290   6.505   6.099  0.1991  0.0001  0.0523
  836YOPS   D2A11170   3.127   6.494   6.418 -0.1811 -0.2567 -0.0948
  836YOPS   C3A11171   3.239   6.897   6.741 -0.0297  0.0086  0.1316
  836YOPS   C4A11172   3.294   7.001   7.175 -0.0310  0.0690 -0.0316
  836YOPS   C1B11173   2.856   6.235   6.120 -0.2428  0.0232  0.3355
  836YOPS   C2B11174   2.451   6.296   6.325  0.1240  0.3845  0.1577
  836YOPS   D3B11175   2.406   6.311   6.711 -0.1061  0.0648  0.0594
  836YOPS   C4B11176   2.734   6.559   6.788 -0.1315 -0.0367 -0.2628
  837YOPS   CNO11177   7.156   4.478   5.889  0.2823  0.2320 -0.4451
  837YOPS   PO411178   7.291   4.860   5.629 -0.5310  0.4002  0.0857
  837YOPS   GL111179   7.574   4.947   5.944 -0.4987  0.0891 -0.2971
  837YOPS   GL211180   7.327   4.849   6.223 -0.0110  0.0660  0.2272
  837YOPS   C1A11181   7.768   5.011   6.390 -0.0893 -0.1667  0.0138
  837YOPS   D2A11182   8.123   5.238   6.613  0.0390 -0.0975  0.1807
  837YOPS   C3A11183   8.471   5.622   6.774  0.3875 -0.0870  0.0516
  837YOPS   C4A11184   8.563   5.684   7.211 -0.2811  0.1504 -0.0308
  837YOPS   C1B11185   7.369   4.762   6.611 -0.0687  0.1584 -0.1479
  837YOPS   C2B11186   7.607   4.755   6.967 -0.2381 -0.1080  0.1171
  837YOPS   D3B11187   7.852   5.047   7.087  0.2547  0.0876  0.1916
  837YOPS   C4B11188   7.927   5.002   7.572 -0.1652  0.0697  0.2918
  838YOPS   CNO11189   8.620   3.495   5.575 -0.3740  0.1276  0.0024
  838YOPS   PO411190   8.583   3.583   5.892 -0.0746  0.2382  0.0336
  838YOPS   GL111191   8.766   3.792   6.148  0.3395 -0.2262  0.0322
  838YOPS   GL211192   9.071   3.690   6.110  0.1635 -0.1985 -0.0329
  838YOPS   C1A11193   9.015   4.119   6.416 -0.1576 -0.0350 -0.0229
  838YOPS   D2A11194   9.412   4.380   6.594 -0.0366  0.2891  0.0496
  838YOPS   C3A11195   9.794   4.277   6.744  0.0032  0.1011 -0.2607
  838YOPS   C4A11196   9.920   4.146   7.099  0.0371  0.2799 -0.0726
  838YOPS   C1B11197   9.195   3.579   6.508  0.0700  0.1439  0.2387
  838YOPS   C2B11198   8.959   3.319   6.907  0.2501  0.0517 -0.1281
  838YOPS   D3B11199   9.042   3.176   7.344 -0.0419 -0.1139  0.1133
  838YOPS   C4B11200   9.078   2.999   7.720 -0.0900  0.2662 -0.0194
  839YOPS   CNO11201   5.941  14.868   5.562  0.0286  0.0654 -0.1109
  839YOPS   PO411202   5.803  14.694   5.921  0.4576 -0.0630 -0.1003
  839YOPS   GL111203   5.784  14.851   6.291  0.0832 -0.2020 -0.2219
  839YOPS   GL211204   5.718  14.589   6.508 -0.0547  0.2705  0.2427
  839YOPS   C1A11205   5.740  15.230   6.636 -0.0986 -0.1620 -0.3361
  839YOPS   D2A11206   5.584  15.634   6.790  0.0422 -0.1535 -0.0143
  839YOPS   C3A11207   5.283  15.703   7.080  0.0707 -0.1563 -0.2457
  839YOPS   C4A11208   5.248  15.667   7.523  0.0644 -0.1201 -0.1464
  839YOPS   C1B11209   5.597  14.840   6.870 -0.1368  0.1386 -0.0827
  839YOPS   C2B11210   5.478  15.160   7.083 -0.2291 -0.1903 -0.1460
  839YOPS   D3B11211   5.777  15.398   7.219  0.1071 -0.1491  0.0701
  839YOPS   C4B11212   5.975  15.723   7.210  0.0273  0.0272 -0.0437
  840YOPS   CNO11213  12.506   3.059   5.461  0.1605  0.0151 -0.0224
  840YOPS   PO411214  12.831   3.002   5.421 -0.0528 -0.0901  0.0640
  840YOPS   GL111215  12.971   3.170   5.782 -0.2487  0.0993 -0.1326
  840YOPS   GL211216  12.738   3.219   5.976 -0.1692 -0.1916 -0.3467
  840YOPS   C1A11217  13.253   3.125   6.131  0.1273  0.1932 -0.1231
  840YOPS   D2A11218  13.601   3.124   6.368  0.1906  0.1588 -0.1845
  840YOPS   C3A11219  14.038   3.286   6.535 -0.0662  0.0032 -0.0605
  840YOPS   C4A11220  14.401   3.084   6.285  0.3103 -0.1157  0.0205
  840YOPS   C1B11221  12.877   3.392   6.337 -0.2215  0.2002  0.1939
  840YOPS   C2B11222  13.249   3.505   6.647 -0.1271  0.4189  0.2456
  840YOPS   D3B11223  13.573   3.282   6.865  0.4487  0.1720  0.0634
  840YOPS   C4B11224  13.781   3.399   7.180  0.2379 -0.0989 -0.0744
  841YOPS   CNO11225   1.438   0.276   5.817  0.2277 -0.0054 -0.0553
  841YOPS   PO411226   0.986   0.320   5.958  0.1667  0.1215  0.1997
  841YOPS   GL111227   1.246   0.316   6.316 -0.1994  0.3947 -0.0203
  841YOPS   GL211228   1.449   0.151   6.421 -0.0636  0.0105  0.1784
  841YOPS   C1A11229   1.566   0.548   6.669  0.1480  0.0227 -0.1285
  841YOPS   D2A11230   1.373   0.747   6.973  0.1019 -0.0283 -0.0119
  841YOPS   C3A11231   1.363   0.950   7.374  0.1023 -0.0760  0.0727
  841YOPS   C4A11232   1.242   1.340   7.473 -0.0376  0.0104  0.1207
  841YOPS   C1B11233   1.750   0.104   6.769  0.3192  0.2436  0.1966
  841YOPS   C2B11234   1.988   0.095   7.074 -0.2050  0.0430  0.0019
  841YOPS   D3B11235   2.274   0.142   7.408  0.1989  0.0235 -0.1952
  841YOPS   C4B11236   2.697   0.182   7.184  0.2298 -0.3072  0.3852
  842POPE   NH311237   2.868  13.264   6.129  0.2152  0.2505 -0.0626
  842POPE   PO411238   2.374  13.346   6.177  0.0694  0.1695  0.3168
  842POPE   GL111239   2.433  13.162   6.568 -0.0889  0.0364  0.0764
  842POPE   GL211240   2.785  13.316   6.603 -0.0151  0.5995 -0.0963
  842POPE   C1A11241   2.418  12.942   6.942 -0.4464 -0.1738  0.0709
  842POPE   D2A11242   2.250  12.846   7.349 -0.3897 -0.1796 -0.0146
  842POPE   C3A11243   2.437  12.745   7.785 -0.3278  0.1822 -0.4634
  842POPE   C4A11244   2.818  12.597   8.106  0.1302  0.0431 -0.0926
  842POPE   C1B11245   2.806  13.224   7.114 -0.2095 -0.1644  0.1662
  842POPE   C2B11246   2.744  13.184   7.527 -0.1007 -0.2799  0.3056
  842POPE   C3B11247   2.634  13.258   7.892 -0.1520  0.0705 -0.0103
  842POPE   C4B11248   2.876  13.096   8.169  0.0380  0.0961  0.0157
  843POPE   NH311249  11.450   1.265   5.257 -0.0550 -0.1662  0.1763
  843POPE   PO411250  11.508   1.514   5.618  0.0145  0.2773  0.0925
  843POPE   GL111251  11.420   1.381   5.944  0.2440 -0.1111 -0.2365
  843POPE   GL211252  11.159   1.147   5.915 -0.1946  0.3090 -0.0066
  843POPE   C1A11253  11.579   1.361   6.355 -0.2025  0.1909 -0.1130
  843POPE   D2A11254  11.650   1.286   6.803 -0.1200  0.2967 -0.1486
  843POPE   C3A11255  11.517   1.347   7.179  0.1299  0.3986 -0.1958
  843POPE   C4A11256  11.214   1.525   7.575  0.2054 -0.0502 -0.0055
  843POPE   C1B11257  11.282   1.032   6.290 -0.2444 -0.1070 -0.1500
  843POPE   C2B11258  11.269   0.978   6.732 -0.1821 -0.2322 -0.0084
  843POPE   C3B11259  11.406   0.805   7.178  0.1361  0.0395  0.3620
  843POPE   C4B11260  11.415   0.724   7.599 -0.2848 -0.1836  0.2971
  844POPE   NH311261  11.375   0.021   5.399 -0.0561 -0.0248 -0.1169
  844POPE   PO411262  11.828   0.007   5.456  0.0652 -0.0717  0.2043
  844POPE   GL111263  11.619   0.029   5.808 -0.1026  0.0482 -0.0435
  844POPE   GL211264  11.887   0.076   6.013 -0.0617 -0.2994  0.1948
  844POPE   C1A11265  11.403  -0.269   6.169  0.2455  0.1028 -0.0194
  844POPE   D2A11266  11.462  -0.503   6.587 -0.1411  0.0577 -0.2299
  844POPE   C3A11267  11.447  -0.481   7.046  0.0882 -0.0666 -0.2659
  844POPE   C4A11268  11.467  -0.451   7.556  0.0163 -0.0095  0.1437
  844POPE   C1B11269  11.851  -0.043   6.416  0.1969  0.0179  0.3129
  844POPE   C2B11270  11.847  -0.060   6.875 -0.1392  0.3080 -0.1869
  844POPE   C3B11271  11.640  -0.069   7.255  0.3093  0.0925 -0.0259
  844POPE   C4B11272  11.561   0.168   7.611 -0.1958 -0.2666  0.0722
  845POPE   NH311273  14.392  14.590   6.020  0.0846  0.2408  0.0328
  845POPE   PO411274  14.511  14.914   6.132 -0.1141  0.0518  0.0574
  845POPE   GL111275  14.349  14.791   6.490 -0.0291 -0.0312 -0.1499
  845POPE   GL211276  14.735  14.684   6.491 -0.1406 -0.2735 -0.0490
  845POPE   C1A11277  14.239  14.582   6.821  0.2479 -0.0805 -0.0635
  845POPE   D2A11278  14.122  14.794   7.220 -0.0122 -0.1386  0.1516
  845POPE   C3A11279  14.215  14.634   7.489  0.0177  0.1367  0.1431
  845POPE   C4A11280  14.149  14.675   7.955 -0.0375  0.0838 -0.1115
  845POPE   C1B11281  14.551  14.908   6.912  0.3623 -0.2156  0.2763
  845POPE   C2B11282  14.608  15.016   7.391 -0.1441 -0.1497  0.0320
  845POPE   C3B11283  14.945  15.133   7.607 -0.3783 -0.0445 -0.2265
  845POPE   C4B11284  15.372  15.358   7.784 -0.1116  0.0247  0.2086
  846POPE   NH311285   3.491  13.848   6.146 -0.1184  0.2809 -0.0707
  846POPE   PO411286   3.326  13.348   6.034  0.0240 -0.1466 -0.1351
  846POPE   GL111287   3.196  13.523   6.398  0.0909  0.0411 -0.1930
  846POPE   GL211288   2.958  13.788   6.468  0.0280  0.2666 -0.0702
  846POPE   C1A11289   3.242  13.265   6.788  0.0359  0.1848 -0.0236
  846POPE   D2A11290   3.425  13.486   7.157  0.2292 -0.2427 -0.0813
  846POPE   C3A11291   3.310  13.515   7.504  0.1525 -0.0613 -0.1173
  846POPE   C4A11292   3.191  13.317   7.843 -0.1885 -0.1188  0.2307
  846POPE   C1B11293   2.963  13.641   6.932  0.0607 -0.1235  0.0932
  846POPE   C2B11294   2.843  13.704   7.363 -0.0400  0.2684 -0.3596
  846POPE   C3B11295   2.816  13.900   7.858  0.0086  0.1285 -0.0879
  846POPE   C4B11296   2.449  13.823   8.219  0.1816 -0.1644  0.0342
  847POPE   NH311297  17.807   8.706   5.942  0.0122 -0.0344 -0.2468
  847POPE   PO411298  18.185   8.547   5.802  0.2354  0.0623  0.0829
  847POPE   GL111299  18.069   8.402   6.272 -0.0283 -0.2735 -0.0816
  847POPE   GL211300  17.769   8.395   6.484 -0.0723  0.2167  0.1856
  847POPE   C1A11301  18.265   8.326   6.742 -0.2093 -0.2142  0.0465
  847POPE   D2A11302  18.373   8.141   7.037 -0.2558  0.0508 -0.1378
  847POPE   C3A11303  18.136   7.918   7.311  0.0718  0.2390 -0.3193
  847POPE   C4A11304  18.087   7.758   7.711 -0.0399 -0.0261 -0.1811
  847POPE   C1B11305  17.521   8.547   6.812 -0.1356  0.3255 -0.3515
  847POPE   C2B11306  17.449   8.579   7.236  0.5638  0.0167 -0.1586
  847POPE   C3B11307  17.566   8.640   7.748 -0.0354 -0.0649  0.3431
  847POPE   C4B11308  17.363   8.752   8.172  0.4348 -0.3849  0.1624
  848POPE   NH311309   8.233  14.219   6.286  0.1344 -0.0873 -0.0922
  848POPE   PO411310   8.742  14.008   6.110 -0.1403 -0.0738 -0.0433
  848POPE   GL111311   8.776  13.770   6.479  0.0927 -0.1810 -0.2207
  848POPE   GL211312   8.572  14.028   6.596  0.1351 -0.0971  0.3053
  848POPE   C1A11313   8.940  13.570   6.935 -0.1668  0.0555  0.0864
  848POPE   D2A11314   8.999  13.504   7.339 -0.2880 -0.0222 -0.2066
  848POPE   C3A11315   9.051  13.248   7.696  0.5413 -0.0486  0.2512
  848POPE   C4A11316   8.962  12.870   8.100 -0.1541  0.2360  0.1051
  848POPE   C1B11317   8.828  14.007   6.939 -0.3657 -0.0801  0.0688
  848POPE   C2B11318   8.898  14.023   7.321 -0.2527  0.2387 -0.1151
  848POPE   C3B11319   8.928  14.310   7.684 -0.1848  0.3014 -0.0730
  848POPE   C4B11320   8.969  14.282   7.966  0.2096 -0.2674 -0.1324
  849POPE   NH311321  13.329   7.163   5.973 -0.0885 -0.2084  0.1481
  849POPE   PO411322  12.820   7.007   6.013  0.1049 -0.3226  0.2754
  849POPE   GL111323  12.747   6.917   6.400  0.0060  0.1825 -0.0032
  849POPE   GL211324  12.415   6.883   6.385  0.0873  0.2494  0.1710
  849POPE   C1A11325  12.680   6.985   6.806  0.0586  0.0881  0.3323
  849POPE   D2A11326  12.608   7.093   7.200 -0.1878 -0.0771  0.1344
  849POPE   C3A11327  12.347   7.258   7.484 -0.1275  0.1235 -0.1104
  849POPE   C4A11328  12.267   7.427   7.811  0.0817  0.3117  0.1874
  849POPE   C1B11329  12.196   6.842   6.745 -0.3836  0.0571  0.3309
  849POPE   C2B11330  12.059   6.941   7.153 -0.2156  0.0885  0.0200
  849POPE   C3B11331  11.959   6.716   7.444 -0.2982  0.0315  0.1347
  849POPE   C4B11332  11.674   6.583   7.804 -0.2756 -0.0688 -0.0549
  850POPE   NH311333  15.405  11.654   5.509  0.1607 -0.4515 -0.1814
  850POPE   PO411334  15.331  12.076   5.538  0.1817 -0.1672  0.0357
  850POPE   GL111335  15.438  12.019   5.892  0.0752 -0.2703  0.1070
  850POPE   GL211336  15.735  12.015   6.019 -0.0304 -0.0137 -0.1842
  850POPE   C1A11337  15.277  11.995   6.270 -0.1586 -0.0655 -0.1225
  850POPE   D2A11338  15.462  12.257   6.574  0.0161  0.0416  0.0918
  850POPE   C3A11339  15.393  12.164   6.932  0.0035 -0.2134 -0.0624
  850POPE   C4A11340  15.393  12.022   7.307 -0.1960  0.1753 -0.1586
  850POPE   C1B11341  16.003  12.180   6.342  0.1098 -0.2781  0.0675
  850POPE   C2B11342  15.887  12.076   6.748 -0.0885  0.2408  0.4343
  850POPE   C3B11343  15.913  11.961   7.225 -0.3405 -0.2185 -0.1947
  850POPE   C4B11344  16.109  12.031   7.667  0.2076 -0.1059 -0.0616
  851POPE   NH311345   0.799   0.494   6.365  0.1068 -0.4309 -0.0207
  851POPE   PO411346   0.492   0.534   6.448 -0.2021 -0.0670 -0.0649
  851POPE   GL111347   0.572   0.560   6.842 -0.2570 -0.0643 -0.1981
  851POPE   GL211348   0.871   0.583   6.948  0.1174 -0.3138 -0.0171
  851POPE   C1A11349   0.517   0.388   7.278  0.2074  0.0517 -0.1284
  851POPE   D2A11350   0.705   0.285   7.636 -0.1036  0.1870 -0.1894
  851POPE   C3A11351   0.887   0.451   8.037 -0.2150  0.1651  0.2152
  851POPE   C4A11352   0.729   0.544   8.367 -0.0655  0.0079  0.1498
  851POPE   C1B11353   1.031   0.572   7.354 -0.0629 -0.0814  0.1635
  851POPE   C2B11354   1.056   0.839   7.745 -0.1845 -0.0044  0.0166
  851POPE   C3B11355   0.733   0.969   8.160 -0.0899 -0.0805  0.5748
  851POPE   C4B11356   0.666   1.215   8.472 -0.1785  0.0889  0.2235
  852POPE   NH311357  16.906  12.458   5.373  0.2327 -0.1671 -0.3456
  852POPE   PO411358  16.524  12.375   5.638 -0.2540 -0.2572 -0.1005
  852POPE   GL111359  16.481  12.283   6.094 -0.2061  0.2572  0.1414
  852POPE   GL211360  16.426  12.500   6.397  0.3004  0.0070 -0.2282
  852POPE   C1A11361  16.437  12.015   6.496 -0.2748 -0.0802  0.0956
  852POPE   D2A11362  16.386  12.061   6.929 -0.1441  0.2557  0.0600
  852POPE   C3A11363  16.648  11.839   7.238  0.1786  0.0721  0.1006
  852POPE   C4A11364  16.642  11.795   7.707  0.0974 -0.0168  0.1814
  852POPE   C1B11365  16.244  12.520   6.786  0.0082  0.0762 -0.0765
  852POPE   C2B11366  16.179  12.485   7.145 -0.0148  0.2569 -0.1129
  852POPE   C3B11367  16.284  12.575   7.587 -0.2535  0.1927 -0.0608
  852POPE   C4B11368  16.533  12.456   7.921  0.1585  0.1592 -0.0486
  853POPE   NH311369   9.419  12.464   5.938 -0.0887 -0.3062 -0.2008
  853POPE   PO411370   9.830  12.359   5.968  0.2074 -0.2939  0.1323
  853POPE   GL111371  10.005  12.498   6.372  0.1055  0.3505 -0.0501
  853POPE   GL211372  10.311  12.390   6.328 -0.3327  0.1867 -0.1278
  853POPE   C1A11373   9.959  12.418   6.832 -0.1210 -0.2685  0.1780
  853POPE   D2A11374   9.696  12.615   7.148  0.4250  0.2518  0.2219
  853POPE   C3A11375   9.717  12.626   7.611  0.0864  0.2088  0.0991
  853POPE   C4A11376   9.827  12.673   8.014  0.2103 -0.0775 -0.1899
  853POPE   C1B11377  10.495  12.435   6.871  0.2287  0.2125 -0.1136
  853POPE   C2B11378  10.519  12.309   7.349  0.0444  0.0093 -0.2686
  853POPE   C3B11379  10.657  12.257   7.729 -0.0297 -0.1103 -0.1787
  853POPE   C4B11380  10.664  12.045   8.035 -0.2276  0.0759 -0.0823
  854POPE   NH311381  17.684  15.174   5.655  0.2404 -0.0274  0.2264
  854POPE   PO411382  17.575  14.797   5.907 -0.1495  0.2750  0.1571
  854POPE   GL111383  17.450  14.817   6.362 -0.1010  0.1803  0.1617
  854POPE   GL211384  17.547  15.158   6.403 -0.0948 -0.3254  0.0700
  854POPE   C1A11385  17.539  14.679   6.797 -0.2841 -0.1454  0.0768
  854POPE   D2A11386  17.465  14.798   7.128  0.2852  0.0963  0.2397
  854POPE   C3A11387  17.450  14.738   7.606 -0.1238 -0.3941 -0.0012
  854POPE   C4A11388  17.379  14.607   7.995  0.3325  0.0520  0.2985
  854POPE   C1B11389  17.695  15.122   6.737  0.1399  0.0218 -0.1578
  854POPE   C2B11390  17.781  15.195   7.090 -0.0380 -0.1860 -0.0282
  854POPE   C3B11391  17.708  15.201   7.577 -0.0344  0.1161  0.0818
  854POPE   C4B11392  17.743  15.136   7.992  0.0857 -0.1793 -0.1285
  855POPE   NH311393  14.955  14.691   6.056 -0.1758 -0.2986  0.1760
  855POPE   PO411394  15.297  14.436   5.917  0.0434 -0.0890  0.1314
  855POPE   GL111395  15.563  14.272   6.196 -0.0518 -0.0721  0.0378
  855POPE   GL211396  15.498  13.974   6.120  0.2316  0.3320 -0.1902
  855POPE   C1A11397  15.688  14.285   6.592  0.0702 -0.2803 -0.3226
  855POPE   D2A11398  15.752  14.070   6.978  0.1632 -0.1566  0.2060
  855POPE   C3A11399  15.704  14.242   7.427 -0.0924 -0.0234 -0.0068
  855POPE   C4A11400  15.611  14.164   7.902  0.1992 -0.0306 -0.1656
  855POPE   C1B11401  15.361  13.913   6.517 -0.2585  0.0709  0.2601
  855POPE   C2B11402  15.333  13.833   6.886 -0.0593  0.0246  0.0577
  855POPE   C3B11403  15.343  13.779   7.279 -0.2950 -0.2943 -0.1077
  855POPE   C4B11404  15.361  13.735   7.624 -0.1195  0.2615  0.0095
  856POPE   NH311405   9.765   6.479   5.656 -0.0766 -0.2971 -0.1427
  856POPE   PO411406  10.218   6.378   5.715 -0.0823  0.0739  0.1002
  856POPE   GL111407   9.986   6.702   6.062 -0.5420 -0.2632  0.0916
  856POPE   GL211408   9.728   6.932   5.960  0.1596  0.1246  0.1840
  856POPE   C1A11409  10.073   6.690   6.548  0.0141  0.0542 -0.2857
  856POPE   D2A11410  10.143   6.618   6.976 -0.0146  0.1051 -0.1344
  856POPE   C3A11411   9.856   6.772   7.304 -0.3074 -0.1737 -0.2812
  856POPE   C4A11412   9.527   6.800   7.565 -0.0449  0.0186  0.2071
  856POPE   C1B11413   9.648   7.144   6.314  0.3438 -0.0518 -0.0811
  856POPE   C2B11414   9.586   7.232   6.669  0.0841  0.1951  0.0587
  856POPE   C3B11415   9.727   7.492   6.984 -0.2919 -0.2363  0.0880
  856POPE   C4B11416   9.669   7.343   7.361  0.1041 -0.3729  0.1660
  857POPE   NH311417  10.092  11.391   5.760  0.0289  0.0489  0.0890
  857POPE   PO411418  10.588  11.442   5.835  0.0141  0.1944  0.3832
  857POPE   GL111419  10.598  11.728   6.148 -0.2015 -0.0100 -0.3096
  857POPE   GL211420  10.243  11.721   6.254 -0.5027 -0.0763  0.0836
  857POPE   C1A11421  10.794  12.010   6.426 -0.3117 -0.0470  0.0771
  857POPE   D2A11422  11.288  11.984   6.732  0.0029 -0.1665  0.0220
  857POPE   C3A11423  11.391  12.232   7.101  0.0581 -0.0688  0.3765
  857POPE   C4A11424  11.430  12.620   7.295  0.0320 -0.1036  0.1128
  857POPE   C1B11425  10.097  12.016   6.630 -0.0225 -0.0314 -0.1684
  857POPE   C2B11426   9.839  11.979   6.991 -0.1446  0.0406 -0.2146
  857POPE   C3B11427   9.934  12.208   7.317  0.1145 -0.2839 -0.1831
  857POPE   C4B11428  10.062  12.116   7.778  0.1962 -0.3056 -0.3960
  858POPE   NH311429  11.826  10.966   5.143  0.1084  0.1123  0.2283
  858POPE   PO411430  11.974  10.997   5.558 -0.0683 -0.2337 -0.2758
  858POPE   GL111431  11.971  10.723   5.863  0.1067 -0.4111  0.0312
  858POPE   GL211432  12.136  10.452   5.974 -0.1567  0.2002  0.1482
  858POPE   C1A11433  11.680  10.425   6.149  0.1049  0.2181 -0.0142
  858POPE   D2A11434  11.759  10.313   6.636  0.1219  0.3328  0.3700
  858POPE   C3A11435  11.922  10.448   6.945 -0.0319  0.0954 -0.0875
  858POPE   C4A11436  11.846  10.698   7.427  0.2398 -0.0363 -0.0741
  858POPE   C1B11437  12.085  10.667   6.365 -0.0773 -0.1682 -0.1357
  858POPE   C2B11438  12.075  10.877   6.767 -0.1383 -0.4077  0.0521
  858POPE   C3B11439  12.302  10.850   7.261 -0.3840 -0.0499  0.1899
  858POPE   C4B11440  12.433  10.846   7.627 -0.1415  0.3152  0.1519
  859POPE   NH311441   4.607  13.159   5.759 -0.0309  0.0532  0.0018
  859POPE   PO411442   4.446  12.730   5.660 -0.1002  0.1269  0.1521
  859POPE   GL111443   4.523  12.681   6.067  0.2193  0.1068 -0.0758
  859POPE   GL211444   4.530  12.993   6.255 -0.0380 -0.0399  0.0947
  859POPE   C1A11445   4.529  12.487   6.430  0.0782  0.0044 -0.0970
  859POPE   D2A11446   4.665  12.488   6.982 -0.0116  0.1055  0.1094
  859POPE   C3A11447   4.622  12.577   7.351  0.0855 -0.0459  0.2168
  859POPE   C4A11448   4.281  12.492   7.679 -0.1717 -0.2699 -0.1600
  859POPE   C1B11449   4.354  13.022   6.625  0.0654  0.0298  0.4394
  859POPE   C2B11450   4.390  12.982   7.052 -0.0263  0.2769  0.0065
  859POPE   C3B11451   4.253  13.049   7.482  0.4873 -0.4135  0.0559
  859POPE   C4B11452   4.223  12.983   8.000 -0.0626 -0.2687 -0.1002
  860POPE   NH311453  14.790  13.897   5.561  0.0277  0.0286  0.0508
  860POPE   PO411454  14.708  14.250   5.859  0.0603 -0.2398  0.1563
  860POPE   GL111455  14.677  14.188   6.258 -0.1988 -0.1455 -0.3268
  860POPE   GL211456  14.288  14.167   6.274  0.0606 -0.1945 -0.0167
  860POPE   C1A11457  14.589  14.211   6.706  0.2562  0.1759 -0.0135
  860POPE   D2A11458  14.554  14.373   7.136  0.0961  0.0390 -0.0405
  860POPE   C3A11459  14.436  14.188   7.554 -0.0158 -0.2056  0.0911
  860POPE   C4A11460  14.522  14.426   7.978  0.0418  0.1168  0.0882
  860POPE   C1B11461  14.067  14.073   6.681 -0.0345 -0.0253  0.0198
  860POPE   C2B11462  14.137  14.139   7.099 -0.1639 -0.3174 -0.0786
  860POPE   C3B11463  13.906  14.228   7.563  0.0306 -0.3137 -0.1051
  860POPE   C4B11464  13.933  14.143   8.025 -0.1431  0.1336 -0.2093
  861POPE   NH311465   4.787   7.792   5.861 -0.0559 -0.2025  0.1511
  861POPE   PO411466   4.437   7.667   5.571  0.1924  0.4280  0.0974
  861POPE   GL111467   4.305   7.741   6.009  0.3134  0.0266 -0.1624
  861POPE   GL211468   4.444   7.511   6.158 -0.3262 -0.0578 -0.1800
  861POPE   C1A11469   4.131   7.835   6.376 -0.2753  0.3444 -0.0386
  861POPE   D2A11470   4.168   7.829   6.860  0.2716  0.2516  0.2902
  861POPE   C3A11471   4.121   7.981   7.242 -0.0625 -0.1193 -0.0558
  861POPE   C4A11472   4.407   8.219   7.416 -0.1669  0.1063 -0.1058
  861POPE   C1B11473   4.655   7.696   6.525 -0.2370 -0.0189 -0.0306
  861POPE   C2B11474   4.692   7.742   6.913  0.0434 -0.1111 -0.0289
  861POPE   C3B11475   4.552   7.744   7.372 -0.1258 -0.1050 -0.0866
  861POPE   C4B11476   4.191   7.794   7.665  0.0475  0.1638  0.0912
  862POPE   NH311477  11.112   3.021   5.861 -0.1070  0.0721  0.1582
  862POPE   PO411478  10.680   3.114   5.705 -0.0151 -0.0921 -0.0297
  862POPE   GL111479  10.788   3.307   6.096  0.0362 -0.0775 -0.2655
  862POPE   GL211480  11.003   3.584   6.170  0.0192  0.0053  0.0677
  862POPE   C1A11481  10.865   3.084   6.567  0.0537  0.0235  0.3874
  862POPE   D2A11482  10.728   2.831   6.916  0.1462 -0.3127  0.2331
  862POPE   C3A11483  10.973   2.835   7.271  0.2114  0.0608 -0.1579
  862POPE   C4A11484  10.893   2.727   7.598  0.0421 -0.1062  0.0495
  862POPE   C1B11485  10.945   3.581   6.525  0.1035  0.4595  0.1776
  862POPE   C2B11486  10.797   3.782   6.931 -0.1870  0.0711 -0.1448
  862POPE   C3B11487  10.851   3.823   7.362 -0.0890 -0.0938  0.0006
  862POPE   C4B11488  10.727   3.872   7.755 -0.0984  0.2103 -0.3112
  863POPE   NH311489   3.337  12.072   6.071 -0.0880  0.2580 -0.2913
  863POPE   PO411490   3.808  12.145   6.019 -0.1880  0.2821  0.2211
  863POPE   GL111491   3.661  12.201   6.462 -0.1017 -0.1619 -0.1039
  863POPE   GL211492   3.407  11.902   6.500 -0.0714  0.1017  0.1036
  863POPE   C1A11493   3.717  12.078   6.908 -0.0908  0.0722 -0.1892
  863POPE   D2A11494   3.782  12.129   7.319  0.1934  0.2946  0.1765
  863POPE   C3A11495   4.171  12.045   7.546 -0.1793  0.1283 -0.1459
  863POPE   C4A11496   4.469  12.150   7.992  0.2615 -0.0269  0.1165
  863POPE   C1B11497   3.375  11.754   6.853 -0.0912  0.2024  0.1832
  863POPE   C2B11498   3.583  11.671   7.186 -0.0322  0.0920  0.0463
  863POPE   C3B11499   3.873  11.659   7.549 -0.0579  0.0181  0.0826
  863POPE   C4B11500   4.059  11.263   7.821 -0.2729  0.0387 -0.0047
  864POPE   NH311501   9.964   0.049   5.337  0.1309 -0.1639 -0.0560
  864POPE   PO411502  10.325   0.212   5.403  0.1807 -0.0624 -0.0630
  864POPE   GL111503  10.419   0.352   5.786  0.1481 -0.0400 -0.0759
  864POPE   GL211504  10.166   0.536   5.983  0.6342  0.1158  0.1090
  864POPE   C1A11505  10.610   0.475   6.253 -0.1051 -0.0690 -0.1628
  864POPE   D2A11506  10.641   0.561   6.640 -0.2168 -0.0203 -0.2763
  864POPE   C3A11507  10.369   0.676   6.877 -0.0450 -0.1636  0.1317
  864POPE   C4A11508   9.945   0.657   7.100 -0.1232  0.0872 -0.2980
  864POPE   C1B11509  10.155   0.431   6.390 -0.0590 -0.2390 -0.1031
  864POPE   C2B11510  10.061   0.279   6.755  0.1190  0.0566 -0.0698
  864POPE   C3B11511  10.281   0.310   7.195 -0.0122 -0.0471  0.1128
  864POPE   C4B11512  10.753   0.425   7.314 -0.2995 -0.2020 -0.0766
  865POPE   NH311513   9.102   8.732   5.449 -0.0836 -0.1239  0.1800
  865POPE   PO411514   9.476   8.471   5.303 -0.1295  0.1379 -0.0654
  865POPE   GL111515   9.430   8.570   5.823 -0.2939 -0.0912 -0.3740
  865POPE   GL211516   9.630   8.361   6.077 -0.0440 -0.0717 -0.0585
  865POPE   C1A11517   9.326   8.891   6.152  0.2417  0.1100  0.0254
  865POPE   D2A11518   9.262   8.747   6.558  0.2408  0.0498  0.0853
  865POPE   C3A11519   9.407   8.838   7.039 -0.1844 -0.0587  0.2209
  865POPE   C4A11520   9.382   8.734   7.489  0.1166  0.0337  0.0756
  865POPE   C1B11521   9.792   8.506   6.416 -0.0622 -0.1722  0.0453
  865POPE   C2B11522   9.661   8.435   6.809  0.1893  0.1588  0.0250
  865POPE   C3B11523   9.669   8.398   7.218 -0.0398  0.0012 -0.2271
  865POPE   C4B11524   9.885   8.712   7.502 -0.0633  0.1339 -0.0550
  866POPE   NH311525   8.462   5.683   6.210  0.2474  0.1086 -0.0119
  866POPE   PO411526   8.863   5.826   6.077 -0.0610  0.0658  0.0015
  866POPE   GL111527   8.923   5.943   6.495  0.1079  0.3301  0.1105
  866POPE   GL211528   8.672   6.115   6.478 -0.0078  0.2476  0.0888
  866POPE   C1A11529   9.009   5.821   6.867  0.0964  0.2100 -0.1715
  866POPE   D2A11530   9.023   5.822   7.263 -0.2267 -0.4157 -0.2600
  866POPE   C3A11531   8.985   6.146   7.445  0.0045 -0.2089  0.0255
  866POPE   C4A11532   8.756   6.187   7.862  0.1045 -0.1628  0.3317
  866POPE   C1B11533   8.617   6.154   6.995  0.2404  0.0562 -0.0380
  866POPE   C2B11534   8.518   6.313   7.369  0.0359  0.3007 -0.0682
  866POPE   C3B11535   8.188   6.525   7.535  0.1252 -0.0217  0.1456
  866POPE   C4B11536   7.915   6.696   7.420 -0.1320  0.0267 -0.3295
  867POPE   NH311537  12.483   0.785   5.739 -0.3175 -0.0616  0.4718
  867POPE   PO411538  12.119   0.824   5.674  0.1545 -0.2147  0.0136
  867POPE   GL111539  12.049   0.693   6.121  0.0112 -0.0109 -0.0050
  867POPE   GL211540  11.613   0.732   6.082 -0.0715 -0.2188  0.1254
  867POPE   C1A11541  12.131   0.444   6.409 -0.1995 -0.0430  0.1243
  867POPE   D2A11542  12.226   0.512   6.780 -0.0037  0.2888  0.2020
  867POPE   C3A11543  12.242   0.183   7.042  0.0653  0.1955 -0.1947
  867POPE   C4A11544  12.241  -0.253   7.297 -0.0268 -0.3667  0.2839
  867POPE   C1B11545  11.611   0.716   6.498  0.3404  0.1781  0.0024
  867POPE   C2B11546  11.658   0.453   6.853  0.1598 -0.0998  0.0645
  867POPE   C3B11547  11.801   0.425   7.233  0.3438 -0.0521 -0.1381
  867POPE   C4B11548  12.082   0.230   7.503 -0.0125  0.0515  0.1847
  868POPE   NH311549  12.790   4.283   5.383  0.1315  0.2119  0.0553
  868POPE   PO411550  12.608   4.174   5.600  0.0334  0.2852  0.3388
  868POPE   GL111551  12.820   4.141   5.913  0.0410  0.1483 -0.1483
  868POPE   GL211552  12.750   3.933   6.153  0.0552  0.3500 -0.0046
  868POPE   C1A11553  13.188   4.023   6.180  0.0439 -0.2006  0.0117
  868POPE   D2A11554  13.268   4.042   6.603 -0.0043  0.2041  0.3025
  868POPE   C3A11555  13.413   4.005   7.065 -0.0071  0.0463 -0.1109
  868POPE   C4A11556  13.429   3.785   7.489  0.1859  0.1060  0.1855
  868POPE   C1B11557  12.821   3.887   6.584 -0.0430 -0.1493  0.1399
  868POPE   C2B11558  12.872   3.733   7.032 -0.1579 -0.0578 -0.0310
  868POPE   C3B11559  12.929   3.465   7.496  0.0647 -0.0473 -0.0056
  868POPE   C4B11560  13.119   3.536   7.906 -0.0735 -0.2992  0.2486
  869POPE   NH311561   2.789   3.710   6.193  0.1983  0.1575  0.1957
  869POPE   PO411562   2.629   3.990   6.012  0.2122  0.1051  0.0701
  869POPE   GL111563   2.475   3.919   6.503  0.1586  0.1356 -0.0726
  869POPE   GL211564   2.758   3.967   6.754 -0.1743 -0.0941  0.2451
  869POPE   C1A11565   2.297   3.929   6.984  0.0019  0.1265 -0.0574
  869POPE   D2A11566   2.293   4.210   7.399 -0.1241 -0.1492 -0.1392
  869POPE   C3A11567   2.108   3.908   7.709  0.0774  0.1624 -0.3102
  869POPE   C4A11568   1.962   3.600   8.126  0.4480  0.1147 -0.0703
  869POPE   C1B11569   2.732   4.215   7.036  0.0437  0.2620 -0.1168
  869POPE   C2B11570   2.678   4.564   7.369  0.0327  0.4118  0.2405
  869POPE   C3B11571   2.606   4.821   7.717 -0.3652  0.2131 -0.2339
  869POPE   C4B11572   2.483   4.604   8.022  0.1416  0.1880 -0.0026
  870POPE   NH311573   0.910  16.183   5.799  0.2598  0.1844 -0.0895
  870POPE   PO411574   0.922  15.972   6.096 -0.3517  0.0215  0.1615
  870POPE   GL111575   1.041  15.950   6.499 -0.0786 -0.0527 -0.0861
  870POPE   GL211576   0.786  16.043   6.673 -0.2381 -0.1418 -0.2843
  870POPE   C1A11577   1.087  15.768   6.907  0.2101 -0.1149  0.0106
  870POPE   D2A11578   1.194  15.870   7.413 -0.0138 -0.4695  0.3625
  870POPE   C3A11579   1.075  15.522   7.708  0.1712  0.2682  0.3065
  870POPE   C4A11580   0.751  15.346   8.085 -0.2325  0.0658  0.1805
  870POPE   C1B11581   0.693  15.976   7.090 -0.1069 -0.3459  0.1974
  870POPE   C2B11582   0.664  15.915   7.560 -0.0473  0.3018  0.1424
  870POPE   C3B11583   0.704  15.900   7.947 -0.1182  0.1400 -0.0254
  870POPE   C4B11584   0.566  15.812   8.319  0.1483 -0.0414  0.0029
  871POPE   NH311585  10.632   8.793   5.375 -0.1869  0.3586  0.2224
  871POPE   PO411586  10.304   8.591   5.554  0.1432  0.0621  0.0012
  871POPE   GL111587  10.703   8.571   5.880 -0.2685 -0.1175 -0.1333
  871POPE   GL211588  10.799   8.880   6.049 -0.0394  0.1890 -0.3076
  871POPE   C1A11589  10.762   8.498   6.311  0.2760 -0.1572  0.0371
  871POPE   D2A11590  10.658   8.199   6.619  0.2483 -0.2990 -0.0391
  871POPE   C3A11591  10.742   8.225   6.947 -0.0930 -0.2883  0.2336
  871POPE   C4A11592  10.831   8.363   7.371 -0.4538  0.1390 -0.2072
  871POPE   C1B11593  10.685   9.079   6.497  0.0101  0.0630  0.0040
  871POPE   C2B11594  10.634   9.257   6.848  0.4640 -0.1904  0.2915
  871POPE   C3B11595  10.626   9.511   7.210 -0.0742  0.1973 -0.1641
  871POPE   C4B11596  10.631   9.518   7.714 -0.3609  0.0878  0.2671
  872YOPE   NH311597   3.933  17.019   6.089 -0.0010 -0.0132  0.0213
  872YOPE   PO411598   4.350  17.184   6.020 -0.1534 -0.0825  0.1219
  872YOPE   GL111599   4.263  17.147   6.446 -0.2641  0.2038  0.0980
  872YOPE   GL211600   3.934  17.185   6.647  0.0195  0.1504 -0.0838
  872YOPE   C1A11601   4.290  17.109   6.978 -0.1354 -0.2114  0.1139
  872YOPE   D2A11602   4.623  17.016   7.158 -0.2057  0.0125 -0.1433
  872YOPE   C3A11603   4.885  17.123   7.500  0.2025 -0.0505 -0.0748
  872YOPE   C4A11604   4.938  17.440   7.827  0.3904  0.1826  0.1211
  872YOPE   C1B11605   3.924  17.404   7.087  0.2804  0.0954 -0.0024
  872YOPE   C2B11606   3.947  17.491   7.523  0.0129  0.4368  0.1077
  872YOPE   D3B11607   4.052  17.730   7.853  0.2665 -0.1520 -0.0721
  872YOPE   C4B11608   4.233  18.089   8.083  0.2420  0.1052  0.3196
  873YOPE   NH311609   5.460  10.042   5.424 -0.0575 -0.0267 -0.1165
  873YOPE   PO411610   5.634  10.337   5.700 -0.0953 -0.1959 -0.0008
  873YOPE   GL111611   5.882  10.428   6.071 -0.1288 -0.0286  0.0738
  873YOPE   GL211612   6.191  10.495   6.054 -0.2723 -0.0498 -0.3358
  873YOPE   C1A11613   5.838  10.342   6.578  0.1235  0.1908 -0.0607
  873YOPE   D2A11614   5.765  10.390   7.026 -0.2971 -0.2058  0.1467
  873YOPE   C3A11615   5.906  10.581   7.321 -0.0670  0.1897 -0.0279
  873YOPE   C4A11616   6.078  10.820   7.589 -0.0465  0.2671  0.0233
  873YOPE   C1B11617   6.517  10.431   6.451  0.0463 -0.1763 -0.1358
  873YOPE   C2B11618   6.791  10.469   6.754  0.0711  0.1879  0.1066
  873YOPE   D3B11619   6.949  10.708   7.001  0.0518 -0.0813 -0.2555
  873YOPE   C4B11620   6.899  10.935   7.382 -0.1147 -0.0115 -0.0267
  874YOPE   NH311621  13.839  18.310   6.024  0.0024  0.1810 -0.1437
  874YOPE   PO411622  14.245  18.505   5.954  0.2179  0.0819 -0.2046
  874YOPE   GL111623  14.419  18.620   6.373  0.2286  0.1459  0.0414
  874YOPE   GL211624  14.474  18.916   6.247  0.3210  0.0581 -0.0448
  874YOPE   C1A11625  14.388  18.674   6.812  0.2235 -0.0674 -0.2245
  874YOPE   D2A11626  14.374  18.722   7.367 -0.2271 -0.1631  0.1978
  874YOPE   C3A11627  14.566  19.021   7.714 -0.0535 -0.0092 -0.0102
  874YOPE   C4A11628  14.938  18.984   7.912  0.1497 -0.2046  0.1886
  874YOPE   C1B11629  14.097  19.117   6.524 -0.1305  0.1086  0.0968
  874YOPE   C2B11630  14.136  19.339   6.878  0.1411  0.0065  0.4187
  874YOPE   D3B11631  14.312  19.216   7.284 -0.0485  0.3295  0.0319
  874YOPE   C4B11632  14.102  19.401   7.685  0.2181 -0.3285 -0.1116
  875YOPE   NH311633  15.516   1.967   6.027 -0.2364 -0.2056 -0.2178
  875YOPE   PO411634  15.570   2.433   5.989  0.5503  0.0829 -0.1081
  875YOPE   GL111635  15.437   2.411   6.468  0.2747  0.2175 -0.1522
  875YOPE   GL211636  15.359   2.787   6.508  0.0539  0.1002 -0.0448
  875YOPE   C1A11637  15.691   2.550   6.857 -0.2280  0.0430  0.2213
  875YOPE   D2A11638  15.470   2.812   7.240  0.0448  0.1784 -0.3108
  875YOPE   C3A11639  15.542   2.821   7.661 -0.0702  0.0152 -0.0473
  875YOPE   C4A11640  15.754   2.551   8.026  0.2539 -0.0904 -0.0647
  875YOPE   C1B11641  15.255   2.957   6.857  0.0332 -0.0074  0.0100
  875YOPE   C2B11642  14.995   2.890   7.147  0.1382 -0.0440  0.1900
  875YOPE   D3B11643  15.070   2.590   7.470 -0.1165  0.3201  0.1211
  875YOPE   C4B11644  14.734   2.509   7.729 -0.0325 -0.0499  0.2565
  876YOPE   NH311645   0.011  15.045   6.222  0.3355 -0.2526 -0.0017
  876YOPE   PO411646  -0.437  15.250   6.082 -0.0807  0.0542 -0.0651
  876YOPE   GL111647  -0.250  15.394   6.460 -0.0791  0.2873  0.1061
  876YOPE   GL211648   0.088  15.424   6.561 -0.0204  0.5433 -0.3609
  876YOPE   C1A11649  -0.314  15.565   6.819 -0.1374  0.0278 -0.0729
  876YOPE   D2A11650  -0.134  15.571   7.207  0.2596 -0.0096 -0.1995
  876YOPE   C3A11651  -0.094  15.589   7.608  0.2083 -0.1451  0.0826
  876YOPE   C4A11652  -0.285  15.644   7.962  0.4517  0.3415 -0.0369
  876YOPE   C1B11653   0.100  15.124   6.974 -0.0352  0.1861 -0.0811
  876YOPE   C2B11654  -0.118  15.115   7.400 -0.0020 -0.0105 -0.0496
  876YOPE   D3B11655  -0.086  15.106   7.843 -0.2995  0.0193  0.0260
  876YOPE   C4B11656  -0.124  15.088   8.351 -0.1388 -0.0357 -0.1069
  877YOPE   NH311657  13.544   2.454   5.384 -0.1233 -0.0959 -0.0682
  877YOPE   PO411658  13.300   2.132   5.610 -0.0859 -0.1014  0.1638
  877YOPE   GL111659  13.416   2.197   5.980  0.1344 -0.1839 -0.0572
  877YOPE   GL211660  13.041   2.296   6.127  0.2750  0.2225  0.0156
  877YOPE   C1A11661  13.759   2.157   6.267  0.2949 -0.1938 -0.2689
  877YOPE   D2A11662  13.686   2.182   6.652  0.1263 -0.1128  0.0227
  877YOPE   C3A11663  13.366   2.024   6.953 -0.0148 -0.0092 -0.0244
  877YOPE   C4A11664  13.193   2.127   7.416  0.2911 -0.0150  0.0560
  877YOPE   C1B11665  12.944   2.409   6.570 -0.0072  0.0932  0.2037
  877YOPE   C2B11666  12.918   2.292   7.022  0.0128 -0.1313  0.0354
  877YOPE   D3B11667  12.870   2.538   7.356  0.2757  0.0307 -0.0280
  877YOPE   C4B11668  13.065   2.974   7.481  0.2475  0.1539  0.1866
  878YOPE   NH311669   4.054   1.471   6.103 -0.2373 -0.3643  0.2691
  878YOPE   PO411670   4.087   1.134   6.490 -0.1574  0.2952  0.0743
  878YOPE   GL111671   4.212   1.018   6.842  0.2073 -0.0422  0.3574
  878YOPE   GL211672   4.333   0.681   6.782  0.0821 -0.1992 -0.1309
  878YOPE   C1A11673   4.181   1.202   7.293 -0.3030  0.2745 -0.0838
  878YOPE   D2A11674   3.855   1.324   7.636 -0.1074 -0.0003  0.0343
  878YOPE   C3A11675   3.538   1.109   7.716 -0.1323 -0.0012 -0.2169
  878YOPE   C4A11676   3.615   0.680   7.652 -0.2164  0.0958 -0.0834
  878YOPE   C1B11677   4.217   0.669   7.239  0.2036 -0.1871  0.1867
  878YOPE   C2B11678   4.186   0.695   7.716 -0.0328 -0.2961  0.0026
  878YOPE   D3B11679   4.532   0.709   8.090 -0.0711  0.1918  0.1030
  878YOPE   C4B11680   4.876   0.571   8.402 -0.2014 -0.1070 -0.3569
  879YOPE   NH311681  10.844   0.328   5.569  0.2596 -0.2949 -0.1458
  879YOPE   PO411682  10.953  -0.087   5.696  0.1892 -0.1289  0.0390
  879YOPE   GL111683  10.943   0.040   6.086  0.0798  0.2284 -0.0999
  879YOPE   GL211684  10.612  -0.008   6.143  0.4161  0.0111 -0.2389
  879YOPE   C1A11685  10.941   0.142   6.529 -0.1801 -0.1138 -0.2193
  879YOPE   D2A11686  10.657   0.137   6.919  0.0972 -0.2157  0.1818
  879YOPE   C3A11687  10.643  -0.074   7.260 -0.1466 -0.0906 -0.0332
  879YOPE   C4A11688  10.607  -0.210   7.645  0.4329  0.1772 -0.6408
  879YOPE   C1B11689  10.407   0.043   6.529 -0.0306  0.1044  0.2505
  879YOPE   C2B11690  10.306  -0.170   6.890  0.2974 -0.2244 -0.0368
  879YOPE   D3B11691  10.470  -0.513   7.185 -0.0949 -0.2597 -0.3370
  879YOPE   C4B11692  10.440  -0.719   7.544 -0.0239  0.3322 -0.0306
  880YOPE   NH311693   8.158   3.425   5.712  0.0527  0.3136  0.2299
  880YOPE   PO411694   8.196   3.162   6.187 -0.1414  0.1499 -0.2339
  880YOPE   GL111695   8.523   3.255   6.434  0.0141  0.4778  0.1010
  880YOPE   GL211696   8.628   3.371   6.365 -0.2325 -0.2327 -0.1093
  880YOPE   C1A11697   8.389   3.351   6.793 -0.2277  0.2029  0.0772
  880YOPE   D2A11698   8.563   3.532   7.148 -0.0768 -0.0105 -0.4198
  880YOPE   C3A11699   8.779   3.509   7.579 -0.0545  0.2709  0.1164
  880YOPE   C4A11700   9.132   3.701   7.794  0.0800  0.0053  0.2102
  880YOPE   C1B11701   8.596   3.733   6.619  0.1090 -0.1711 -0.1892
  880YOPE   C2B11702   8.890   3.881   6.783 -0.0984  0.0325  0.1110
  880YOPE   D3B11703   9.069   3.703   7.120  0.0627  0.1394  0.0249
  880YOPE   C4B11704   9.357   3.578   7.388  0.0164 -0.1785  0.0133
  881YOPE   NH311705   7.832  14.782   6.098  0.1111 -0.0144  0.0977
  881YOPE   PO411706   7.861  14.503   6.372 -0.0148  0.1624 -0.0061
  881YOPE   GL111707   7.821  14.595   6.754 -0.1790  0.1157 -0.0334
  881YOPE   GL211708   7.664  14.405   6.952 -0.0174 -0.0574  0.2850
  881YOPE   C1A11709   7.978  14.739   7.134  0.0140 -0.0694  0.1549
  881YOPE   D2A11710   8.106  14.730   7.533  0.0698 -0.0392 -0.0295
  881YOPE   C3A11711   8.436  15.074   7.641  0.0021 -0.0947 -0.3162
  881YOPE   C4A11712   8.842  15.366   7.760 -0.2819  0.1822  0.0957
  881YOPE   C1B11713   7.679  14.406   7.396  0.0884 -0.1396  0.0333
  881YOPE   C2B11714   7.588  14.480   7.809 -0.2891  0.0419  0.2134
  881YOPE   D3B11715   7.424  14.720   8.083  0.3882 -0.3263 -0.3339
  881YOPE   C4B11716   7.401  14.851   8.448  0.0924  0.2226  0.0538
  882YOPE   NH311717   3.045  12.443   5.984  0.2105  0.0334  0.1377
  882YOPE   PO411718   2.838  12.062   5.949 -0.3226  0.0697  0.1963
  882YOPE   GL111719   2.866  12.170   6.348 -0.2624  0.1468 -0.2272
  882YOPE   GL211720   3.203  12.426   6.461  0.3421 -0.0439 -0.1410
  882YOPE   C1A11721   2.948  11.971   6.681  0.3836  0.1590  0.2944
  882YOPE   D2A11722   2.963  12.081   7.083 -0.4201  0.0171 -0.0619
  882YOPE   C3A11723   3.235  12.022   7.504 -0.1842 -0.1028 -0.0527
  882YOPE   C4A11724   3.364  11.771   7.795 -0.2694 -0.0554 -0.0847
  882YOPE   C1B11725   3.275  12.344   6.825 -0.4632  0.1638  0.1262
  882YOPE   C2B11726   3.389  12.379   7.159 -0.0741  0.2321 -0.0405
  882YOPE   D3B11727   3.357  12.533   7.534 -0.0936 -0.0543  0.0393
  882YOPE   C4B11728   3.246  12.285   7.915 -0.1223  0.2460 -0.0345
  883YOPE   NH311729  12.570   2.605   5.541 -0.4224  0.1417 -0.2269
  883YOPE   PO411730  12.167   2.755   5.624  0.0576 -0.0453  0.2101
  883YOPE   GL111731  12.490   2.830   6.024  0.2017 -0.0827 -0.2973
  883YOPE   GL211732  12.678   2.615   6.049  0.0491  0.0684 -0.2060
  883YOPE   C1A11733  12.410   3.069   6.405  0.1104 -0.1599 -0.1159
  883YOPE   D2A11734  12.567   2.861   6.772 -0.2598  0.1859 -0.0084
  883YOPE   C3A11735  12.591   2.919   7.194 -0.1772  0.0621  0.0699
  883YOPE   C4A11736  12.498   2.914   7.653 -0.3040 -0.1081  0.0371
  883YOPE   C1B11737  12.911   2.838   6.296 -0.1579 -0.3142  0.2775
  883YOPE   C2B11738  13.124   2.962   6.663  0.1199 -0.0284 -0.1987
  883YOPE   D3B11739  13.162   2.805   7.056 -0.0927  0.1534 -0.3310
  883YOPE   C4B11740  13.548   2.945   7.187 -0.0572  0.4604 -0.1768
  884YOPE   NH311741  15.417   4.252   5.854  0.1921  0.1426  0.0598
  884YOPE   PO411742  15.746   4.055   6.010 -0.2453 -0.2467  0.0070
  884YOPE   GL111743  15.592   4.111   6.307 -0.1716  0.1297 -0.1300
  884YOPE   GL211744  15.267   4.056   6.376  0.0864 -0.2146 -0.3081
  884YOPE   C1A11745  15.579   4.169   6.756 -0.1237 -0.2837  0.0608
  884YOPE   D2A11746  15.478   4.080   7.132 -0.1239  0.1826  0.4211
  884YOPE   C3A11747  15.762   4.161   7.452  0.0674 -0.1099  0.0417
  884YOPE   C4A11748  15.999   4.011   7.776 -0.0083 -0.0171  0.0792
  884YOPE   C1B11749  15.181   3.808   6.719 -0.0265 -0.3327 -0.2858
  884YOPE   C2B11750  14.950   3.712   7.022  0.0678  0.2114 -0.0097
  884YOPE   D3B11751  14.976   3.815   7.384 -0.0155 -0.0202  0.0024
  884YOPE   C4B11752  15.061   3.777   7.841 -0.0178 -0.1429  0.2012
  885YOPE   NH311753  11.987   3.242   5.492 -0.2074  0.0176 -0.0089
  885YOPE   PO411754  12.275   3.572   5.494  0.0817 -0.0746 -0.2456
  885YOPE   GL111755  12.311   3.703   5.968  0.0998  0.2074  0.1527
  885YOPE   GL211756  12.247   3.993   6.008 -0.1074  0.0921  0.0491
  885YOPE   C1A11757  12.420   3.579   6.388  0.0102  0.1796  0.0804
  885YOPE   D2A11758  12.449   3.633   6.799  0.0062  0.0107  0.2781
  885YOPE   C3A11759  12.761   3.298   6.848 -0.0295  0.3692  0.1247
  885YOPE   C4A11760  13.163   3.325   7.127 -0.0116  0.2570 -0.1825
  885YOPE   C1B11761  12.363   4.073   6.405 -0.0111 -0.2407 -0.1211
  885YOPE   C2B11762  12.467   4.130   6.937 -0.0624  0.3228 -0.0946
  885YOPE   D3B11763  12.505   3.897   7.276  0.4853  0.0361 -0.1467
  885YOPE   C4B11764  12.257   4.032   7.685  0.1890  0.1895 -0.1216
  886YOPE   NH311765  17.040  17.746   6.269  0.1053  0.1587 -0.2086
  886YOPE   PO411766  16.977  18.149   6.233 -0.2956 -0.2284 -0.3083
  886YOPE   GL111767  17.358  18.083   6.517 -0.0781 -0.0500  0.1413
  886YOPE   GL211768  17.534  17.854   6.613  0.0125 -0.3556 -0.0323
  886YOPE   C1A11769  17.310  18.158   6.961  0.1378  0.1634 -0.1425
  886YOPE   D2A11770  17.342  18.194   7.418  0.1273  0.1017 -0.1624
  886YOPE   C3A11771  17.319  17.880   7.704 -0.0952  0.0158  0.2779
  886YOPE   C4A11772  17.529  17.796   8.048  0.0523 -0.4503  0.1253
  886YOPE   C1B11773  17.563  17.667   7.025 -0.2210 -0.1950 -0.0737
  886YOPE   C2B11774  17.729  17.660   7.425  0.0402  0.0224  0.0024
  886YOPE   D3B11775  17.860  17.499   7.803  0.1779  0.3689 -0.0980
  886YOPE   C4B11776  17.782  17.165   8.136  0.3780 -0.1274 -0.0944
  887YOPE   NH311777  10.294  15.564   5.694  0.1216 -0.2780  0.3813
  887YOPE   PO411778  10.628  15.301   5.509  0.1071 -0.0727  0.0021
  887YOPE   GL111779  10.897  15.230   5.911 -0.4555 -0.1536  0.0596
  887YOPE   GL211780  11.055  15.001   5.950  0.1475 -0.0124 -0.2048
  887YOPE   C1A11781  10.886  15.421   6.346  0.0036 -0.2080 -0.2556
  887YOPE   D2A11782  10.990  15.374   6.823 -0.0405 -0.2794  0.0605
  887YOPE   C3A11783  10.881  15.751   7.016  0.1045  0.2285  0.1773
  887YOPE   C4A11784  10.625  15.787   7.412  0.2618 -0.0069  0.1588
  887YOPE   C1B11785  10.840  14.824   6.370 -0.2101  0.0234 -0.1061
  887YOPE   C2B11786  10.708  14.902   6.758  0.0094  0.3305 -0.0553
  887YOPE   D3B11787  10.587  14.801   7.151  0.2903  0.1467  0.2684
  887YOPE   C4B11788  10.522  14.694   7.449 -0.0308  0.1124  0.1524
  888YOPE   NH311789  13.175   0.001   5.879 -0.3184 -0.0300 -0.1305
  888YOPE   PO411790  13.501  -0.323   5.761 -0.4306  0.1714  0.1667
  888YOPE   GL111791  13.394  -0.339   6.169  0.0169  0.2262  0.0131
  888YOPE   GL211792  13.419  -0.122   6.313 -0.1570 -0.0135  0.1610
  888YOPE   C1A11793  13.247  -0.522   6.475  0.2888 -0.1878 -0.1559
  888YOPE   D2A11794  12.960  -0.655   6.848  0.1510 -0.2459 -0.2114
  888YOPE   C3A11795  12.732  -1.050   6.969  0.1987 -0.2453  0.0361
  888YOPE   C4A11796  12.228  -1.102   7.029 -0.1216 -0.4307 -0.2275
  888YOPE   C1B11797  13.421  -0.115   6.682  0.0152  0.0936 -0.0334
  888YOPE   C2B11798  13.579  -0.030   7.051  0.0171 -0.1166  0.0555
  888YOPE   D3B11799  13.533  -0.076   7.475 -0.3694 -0.1489  0.1364
  888YOPE   C4B11800  13.394   0.068   7.864  0.0296 -0.1355 -0.0705
  889YOPE   NH311801   8.573   3.058   5.860 -0.1198 -0.0540 -0.0071
  889YOPE   PO411802   8.784   2.611   5.817 -0.0357 -0.1818  0.1571
  889YOPE   GL111803   8.922   2.613   6.242  0.1673  0.0193 -0.2002
  889YOPE   GL211804   8.670   2.817   6.332  0.1838 -0.3592  0.3564
  889YOPE   C1A11805   8.985   2.484   6.712 -0.1147 -0.1337 -0.0731
  889YOPE   D2A11806   9.025   2.224   7.052 -0.5424 -0.1470 -0.4437
  889YOPE   C3A11807   9.291   1.966   7.151  0.1495  0.1605  0.2279
  889YOPE   C4A11808   9.345   1.686   7.550 -0.2518  0.0929  0.1924
  889YOPE   C1B11809   8.655   2.882   6.847  0.1176  0.2062 -0.0383
  889YOPE   C2B11810   8.510   3.051   7.227  0.1920  0.1390 -0.2135
  889YOPE   D3B11811   8.414   3.210   7.665  0.0555 -0.0188  0.0545
  889YOPE   C4B11812   8.269   3.300   8.109  0.1182  0.1207 -0.2316
  890YOPE   NH311813   2.025   6.440   5.624  0.2401 -0.0347 -0.1815
  890YOPE   PO411814   1.677   6.321   5.516 -0.3377  0.0649 -0.2648
  890YOPE   GL111815   1.628   6.149   5.892 -0.0437 -0.0679 -0.1055
  890YOPE   GL211816   2.037   6.043   6.069 -0.2454 -0.0255  0.1626
  890YOPE   C1A11817   1.544   5.776   6.086 -0.1625 -0.0080  0.3867
  890YOPE   D2A11818   1.725   5.403   6.335 -0.0010  0.0574 -0.1658
  890YOPE   C3A11819   2.111   5.194   6.265  0.1540 -0.0693  0.0687
  890YOPE   C4A11820   2.473   5.156   6.141 -0.1467  0.0250 -0.0690
  890YOPE   C1B11821   1.853   5.862   6.469 -0.3183  0.2335 -0.0750
  890YOPE   C2B11822   1.986   5.629   6.842  0.0412 -0.2313  0.1927
  890YOPE   D3B11823   2.067   5.447   7.311 -0.1240 -0.0250  0.2241
  890YOPE   C4B11824   1.771   5.416   7.649 -0.0464 -0.0397 -0.2377
  891YOPE   NH311825  10.269  16.342   5.445 -0.2150  0.0187  0.3051
  891YOPE   PO411826  10.123  16.682   5.581  0.0086 -0.0547  0.0556
  891YOPE   GL111827  10.192  16.733   5.960 -0.1102  0.2463  0.1173
  891YOPE   GL211828  10.126  17.061   6.083 -0.2008  0.0604  0.3684
  891YOPE   C1A11829  10.491  16.852   6.408  0.4113 -0.1827 -0.2516
  891YOPE   D2A11830  10.384  16.977   6.693  0.0442  0.0421  0.1531
  891YOPE   C3A11831  10.357  16.896   7.125  0.2237 -0.1184  0.4247
  891YOPE   C4A11832  10.211  17.025   7.499  0.4223  0.1144 -0.1121
  891YOPE   C1B11833   9.959  16.857   6.441 -0.1983  0.0104  0.3053
  891YOPE   C2B11834   9.968  16.682   6.826  0.0375  0.0956 -0.1066
  891YOPE   D3B11835  10.013  16.568   7.253  0.2596  0.0356  0.1133
  891YOPE   C4B11836  10.022  16.622   7.730  0.1502  0.4012  0.1652
  892YOPE   NH311837   7.659  12.591   5.869  0.3061 -0.2637  0.4857
  892YOPE   PO411838   8.036  12.329   5.884  0.4865 -0.1697 -0.0967
  892YOPE   GL111839   8.135  12.061   6.203 -0.4047 -0.0971 -0.1552
  892YOPE   GL211840   8.319  11.931   6.272  0.0737 -0.0944 -0.0642
  892YOPE   C1A11841   7.904  11.889   6.577  0.0381 -0.1335  0.4349
  892YOPE   D2A11842   7.766  11.983   6.981  0.0730 -0.0274 -0.3283
  892YOPE   C3A11843   8.039  11.892   7.273 -0.1786  0.0955  0.1378
  892YOPE   C4A11844   7.937  11.705   7.672  0.1500 -0.0432  0.3944
  892YOPE   C1B11845   8.338  11.554   6.547 -0.4074  0.3162  0.0816
  892YOPE   C2B11846   8.122  11.362   6.872  0.1514 -0.0564  0.0405
  892YOPE   D3B11847   8.177  11.372   7.302  0.1374 -0.2725  0.1607
  892YOPE   C4B11848   8.161  11.159   7.704  0.0816  0.0622 -0.4060
  893YOPE   NH311849  10.365   5.020   5.820  0.4277 -0.0334  0.0843
  893YOPE   PO411850   9.973   5.217   5.882  0.0770  0.1657  0.1530
  893YOPE   GL111851  10.116   5.433   6.224 -0.0606 -0.1199  0.2482
  893YOPE   GL211852  10.287   5.683   6.274  0.0151  0.1853  0.1224
  893YOPE   C1A11853  10.042   5.494   6.707 -0.2199  0.0354 -0.1044
  893YOPE   D2A11854  10.085   5.566   7.147 -0.0877  0.1457 -0.0448
  893YOPE   C3A11855   9.763   5.406   7.433 -0.2495 -0.1453 -0.1517
  893YOPE   C4A11856   9.313   5.365   7.617  0.0062  0.0778 -0.1617
  893YOPE   C1B11857  10.448   5.777   6.640  0.0335  0.1277  0.0352
  893YOPE   C2B11858  10.464   5.839   7.024  0.0630  0.2114 -0.0532
  893YOPE   D3B11859  10.432   5.813   7.473  0.1090 -0.2572 -0.2044
  893YOPE   C4B11860  10.217   5.547   7.756 -0.0710  0.2748  0.2851
  894YOPE   NH311861  14.193  16.055   6.100 -0.2765  0.3118  0.0756
  894YOPE   PO411862  13.787  16.196   6.207  0.4782  0.0284 -0.2103
  894YOPE   GL111863  13.659  16.497   6.506 -0.1509  0.0272 -0.3880
  894YOPE   GL211864  13.510  16.787   6.545 -0.2747 -0.1283  0.0772
  894YOPE   C1A11865  13.621  16.307   6.891 -0.1048  0.1122  0.1449
  894YOPE   D2A11866  13.652  16.077   7.306 -0.2423 -0.1009  0.2876
  894YOPE   C3A11867  14.016  16.224   7.539  0.0091  0.1104  0.1353
  894YOPE   C4A11868  14.465  16.013   7.758  0.0887 -0.0553  0.0434
  894YOPE   C1B11869  13.559  16.801   6.956 -0.0533 -0.3443 -0.0226
  894YOPE   C2B11870  13.730  16.644   7.339 -0.1640  0.0058 -0.0124
  894YOPE   D3B11871  13.975  16.735   7.709 -0.1513  0.0630  0.1080
  894YOPE   C4B11872  14.175  16.609   8.039 -0.1660  0.0185  0.0846
  895YOPE   NH311873   2.914   4.622   5.906 -0.3197 -0.0320  0.0819
  895YOPE   PO411874   3.316   4.596   6.007 -0.4116  0.1277  0.0590
  895YOPE   GL111875   3.162   4.452   6.365 -0.1007 -0.0577  0.1668
  895YOPE   GL211876   2.914   4.261   6.383  0.2229 -0.2783  0.3453
  895YOPE   C1A11877   3.294   4.464   6.801  0.2725  0.0550  0.2161
  895YOPE   D2A11878   3.236   4.463   7.203 -0.3719 -0.4250  0.2209
  895YOPE   C3A11879   3.166   4.822   7.523  0.0791 -0.1198  0.3248
  895YOPE   C4A11880   3.070   4.906   8.006 -0.3105 -0.1605 -0.3034
  895YOPE   C1B11881   2.763   4.555   6.665 -0.1995 -0.1364  0.3168
  895YOPE   C2B11882   2.747   4.841   6.966 -0.0052 -0.1974 -0.0123
  895YOPE   D3B11883   2.553   5.058   7.300 -0.0539 -0.1072 -0.2090
  895YOPE   C4B11884   2.310   5.230   7.639 -0.0666  0.2249 -0.3401
  896YOPE   NH311885   4.064  17.571   6.217  0.2740  0.1536 -0.2112
  896YOPE   PO411886   3.859  18.009   6.181 -0.0718  0.0374  0.2767
  896YOPE   GL111887   3.756  17.924   6.586 -0.1133 -0.0877  0.0270
  896YOPE   GL211888   3.717  17.692   6.677  0.0408 -0.3507  0.2488
  896YOPE   C1A11889   3.617  18.260   6.853 -0.1222  0.3629  0.0979
  896YOPE   D2A11890   3.362  18.434   7.195  0.1501 -0.0546  0.0800
  896YOPE   C3A11891   3.103  18.366   7.580 -0.0324  0.0834  0.2932
  896YOPE   C4A11892   2.731  18.543   7.683  0.1521 -0.2227 -0.0458
  896YOPE   C1B11893   3.581  17.676   7.218 -0.1714 -0.2195 -0.0258
  896YOPE   C2B11894   3.352  17.956   7.512  0.3291 -0.1702 -0.0432
  896YOPE   D3B11895   3.045  17.938   7.863 -0.1516 -0.3557 -0.2569
  896YOPE   C4B11896   2.790  18.148   8.055  0.2527 -0.1156 -0.1947
  897YOPE   NH311897   5.450   4.796   5.716 -0.1878  0.2252  0.0733
  897YOPE   PO411898   5.880   5.025   5.708  0.2169 -0.2302  0.3079
  897YOPE   GL111899   5.909   5.153   6.082  0.1792 -0.0140  0.0361
  897YOPE   GL211900   6.173   5.155   6.326  0.0758 -0.1662  0.1043
  897YOPE   C1A11901   5.739   5.138   6.498  0.1821 -0.1904 -0.0567
  897YOPE   D2A11902   5.632   5.421   6.787 -0.0972  0.1238 -0.0962
  897YOPE   C3A11903   5.558   5.808   6.698 -0.2231  0.0195  0.4755
  897YOPE   C4A11904   5.591   6.162   6.866 -0.1158 -0.1066 -0.0909
  897YOPE   C1B11905   6.195   5.266   6.863  0.2102  0.0265 -0.0277
  897YOPE   C2B11906   5.930   5.362   7.227 -0.2238  0.1583  0.3877
  897YOPE   D3B11907   5.623   5.690   7.198  0.2368 -0.1306 -0.1152
  897YOPE   C4B11908   5.503   6.047   7.313 -0.2005  0.0461  0.2054
  898YOPE   NH311909   5.911  17.489   5.995  0.1204  0.0974 -0.3064
  898YOPE   PO411910   5.465  17.501   5.977  0.0514  0.1803 -0.0452
  898YOPE   GL111911   5.314  17.377   6.362  0.0853 -0.1747 -0.0220
  898YOPE   GL211912   5.014  17.408   6.422 -0.3235 -0.1142 -0.0338
  898YOPE   C1A11913   5.384  17.242   6.774 -0.2001 -0.0056 -0.1743
  898YOPE   D2A11914   5.196  17.245   7.151  0.0536  0.0480  0.4182
  898YOPE   C3A11915   5.375  17.443   7.520 -0.2764  0.2339 -0.0442
  898YOPE   C4A11916   5.718  17.463   7.886 -0.1240 -0.0257 -0.0858
  898YOPE   C1B11917   4.907  17.073   6.693  0.2060 -0.0708  0.1235
  898YOPE   C2B11918   5.043  16.741   7.040  0.1340 -0.1510 -0.0932
  898YOPE   D3B11919   5.275  16.780   7.433  0.0486 -0.0828  0.2396
  898YOPE   C4B11920   5.296  16.983   7.805 -0.1293  0.0932 -0.3788
  899YOPE   NH311921  15.908   0.721   6.268 -0.1474 -0.1759 -0.1123
  899YOPE   PO411922  15.648   0.383   6.118  0.1001  0.3835 -0.1950
  899YOPE   GL111923  15.412   0.695   6.343 -0.0396  0.3405 -0.0952
  899YOPE   GL211924  15.417   0.980   6.229  0.0559 -0.1555 -0.0644
  899YOPE   C1A11925  15.215   0.722   6.829  0.0329 -0.0316 -0.4207
  899YOPE   D2A11926  14.846   0.579   7.175  0.1987  0.2168  0.1196
  899YOPE   C3A11927  14.785   0.247   7.662  0.3718  0.4150  0.3846
  899YOPE   C4A11928  14.950   0.195   8.018  0.0307  0.2079 -0.1147
  899YOPE   C1B11929  14.957   1.015   6.548  0.1570  0.1259  0.2522
  899YOPE   C2B11930  14.499   1.131   6.464  0.0915  0.1579 -0.0933
  899YOPE   D3B11931  14.114   1.400   6.427  0.1293  0.1567 -0.1737
  899YOPE   C4B11932  14.175   1.901   6.648  0.0565 -0.0685 -0.2286
  900YOPE   NH311933   6.561  17.156   6.212 -0.1330 -0.1172 -0.0211
  900YOPE   PO411934   6.487  17.558   6.052 -0.0947 -0.1080 -0.0922
  900YOPE   GL111935   6.424  17.757   6.404 -0.1062 -0.2317 -0.0321
  900YOPE   GL211936   6.248  17.471   6.650  0.0176 -0.0885  0.0378
  900YOPE   C1A11937   6.289  17.928   6.802  0.2976  0.0092 -0.3155
  900YOPE   D2A11938   6.363  18.040   7.179  0.3838  0.2508  0.0447
  900YOPE   C3A11939   6.109  18.346   7.279  0.0155 -0.1135 -0.0332
  900YOPE   C4A11940   5.740  18.353   7.406  0.0696  0.0607 -0.0943
  900YOPE   C1B11941   6.222  17.237   6.966 -0.0634  0.0577  0.2918
  900YOPE   C2B11942   6.185  17.281   7.387  0.2385 -0.0547  0.0179
  900YOPE   D3B11943   6.314  17.087   7.819  0.0528 -0.0120  0.3388
  900YOPE   C4B11944   6.220  16.948   8.191  0.4299 -0.1182 -0.0539
  901YOPE   NH311945   8.119   4.170   6.258 -0.0738  0.0579  0.0518
  901YOPE   PO411946   8.029   4.483   5.953  0.3610 -0.1069  0.1011
  901YOPE   GL111947   8.032   4.661   6.264  0.2984 -0.0688 -0.0176
  901YOPE   GL211948   7.785   4.474   6.424 -0.1023 -0.0676 -0.1820
  901YOPE   C1A11949   8.031   4.766   6.738  0.0931 -0.2011 -0.1366
  901YOPE   D2A11950   8.249   4.650   7.110 -0.0971 -0.1041 -0.0826
  901YOPE   C3A11951   8.576   4.566   7.130  0.1565  0.0627 -0.1195
  901YOPE   C4A11952   8.979   4.373   6.887  0.0326 -0.1713  0.2227
  901YOPE   C1B11953   7.552   4.247   6.540 -0.2785 -0.1505 -0.1098
  901YOPE   C2B11954   7.664   3.857   6.759 -0.0268 -0.1497 -0.1469
  901YOPE   D3B11955   7.535   3.510   7.015  0.1004  0.1418 -0.1117
  901YOPE   C4B11956   7.217   3.349   7.269 -0.0782  0.0683  0.1942
  902YOPE   NH311957  10.970  11.178   6.018  0.0166 -0.2927  0.1057
  902YOPE   PO411958  11.058  10.888   5.791 -0.0999 -0.0563 -0.0742
  902YOPE   GL111959  11.065  10.701   6.159 -0.0532 -0.0821 -0.3241
  902YOPE   GL211960  11.232  10.477   6.018 -0.1476 -0.2743 -0.0333
  902YOPE   C1A11961  10.960  10.771   6.549  0.1800  0.1301  0.1915
  902YOPE   D2A11962  10.877  11.015   6.877  0.1186  0.1599 -0.3031
  902YOPE   C3A11963  11.086  10.868   7.236 -0.0295 -0.1879  0.0801
  902YOPE   C4A11964  11.386  10.668   7.603 -0.1166 -0.1894 -0.1462
  902YOPE   C1B11965  11.244  10.274   6.387  0.0884 -0.3815  0.3092
  902YOPE   C2B11966  11.331  10.211   6.775 -0.1416 -0.1461 -0.0490
  902YOPE   D3B11967  11.525   9.842   6.978  0.3040  0.0053 -0.3481
  902YOPE   C4B11968  11.511   9.802   7.376 -0.1155  0.1261  0.0612
  903YOPE   NH311969   5.454   8.212   5.571 -0.0924 -0.0494 -0.1033
  903YOPE   PO411970   5.312   7.783   5.674  0.0256  0.0867  0.3253
  903YOPE   GL111971   5.182   8.098   5.949 -0.2689 -0.2185 -0.0323
  903YOPE   GL211972   5.122   7.927   6.263 -0.0251 -0.0014  0.2011
  903YOPE   C1A11973   5.027   8.389   6.315  0.1291 -0.1010  0.1642
  903YOPE   D2A11974   4.813   8.737   6.555  0.5055  0.0466  0.1090
  903YOPE   C3A11975   4.729   8.867   6.915 -0.4178 -0.0361  0.0691
  903YOPE   C4A11976   4.896   9.143   7.325 -0.1334 -0.0452  0.1209
  903YOPE   C1B11977   5.109   7.989   6.770 -0.0157 -0.0256  0.3632
  903YOPE   C2B11978   5.243   7.780   7.177  0.0152 -0.1503 -0.0209
  903YOPE   D3B11979   5.430   7.678   7.619 -0.0319 -0.0030  0.1836
  903YOPE   C4B11980   5.732   7.676   7.838 -0.0743  0.1289 -0.2475
  904YOPE   NH311981  16.888  16.023   5.828 -0.0797  0.0452 -0.0028
  904YOPE   PO411982  16.686  15.632   5.747  0.0581  0.1500 -0.0173
  904YOPE   GL111983  16.652  15.318   6.144 -0.0777  0.0579  0.0162
  904YOPE   GL211984  16.961  15.175   6.394  0.0559 -0.1780 -0.1458
  904YOPE   C1A11985  16.474  15.127   6.490  0.1677 -0.0121  0.0176
  904YOPE   D2A11986  16.445  14.828   6.771  0.1350 -0.0233 -0.1520
  904YOPE   C3A11987  16.523  14.845   7.251 -0.1506 -0.0817 -0.1751
  904YOPE   C4A11988  16.382  14.689   7.609  0.1415  0.1480 -0.0500
  904YOPE   C1B11989  17.203  15.442   6.647  0.0634 -0.1726  0.1072
  904YOPE   C2B11990  17.349  15.341   7.042  0.0634  0.1095 -0.1434
  904YOPE   D3B11991  17.284  15.199   7.391 -0.2600 -0.0918 -0.0014
  904YOPE   C4B11992  17.245  15.119   7.844  0.2023 -0.2831  0.0640
  905YOPE   NH311993   9.184   5.540   5.807  0.1115 -0.1115 -0.1388
  905YOPE   PO411994   9.638   5.611   5.857  0.1659 -0.0094 -0.3774
  905YOPE   GL111995   9.675   5.560   6.337  0.1793  0.0351  0.1040
  905YOPE   GL211996   9.534   5.370   6.434 -0.1005  0.0397 -0.2962
  905YOPE   C1A11997   9.482   5.700   6.723  0.1509  0.0696  0.2531
  905YOPE   D2A11998   9.512   5.698   7.120  0.0820 -0.0495  0.0312
  905YOPE   C3A11999   9.843   5.861   7.442  0.0533 -0.2101  0.0625
  905YOPE   C4A12000   9.800   5.778   7.897  0.1319  0.0527  0.0360
  905YOPE   C1B12001   9.551   5.249   6.873 -0.3307 -0.2022 -0.1390
  905YOPE   C2B12002   9.456   5.060   7.245 -0.0760  0.0802 -0.0474
  905YOPE   D3B12003   9.672   4.948   7.659 -0.1597 -0.2010 -0.0535
  905YOPE   C4B12004   9.889   5.135   7.889 -0.2608 -0.0832 -0.3171
  906YOPE   NH312005   3.714  12.973   5.955  0.0493 -0.1387  0.0892
  906YOPE   PO412006   4.117  13.063   5.963 -0.2241  0.0135 -0.2649
  906YOPE   GL112007   4.151  13.376   6.296 -0.0571 -0.1535  0.3323
  906YOPE   GL212008   3.850  13.446   6.350 -0.1080  0.3164 -0.1172
  906YOPE   C1A12009   4.268  13.557   6.609  0.1974 -0.1080  0.3670
  906YOPE   D2A12010   4.197  13.486   7.074 -0.3189 -0.0543 -0.0593
  906YOPE   C3A12011   4.262  13.672   7.547  0.1132  0.1233  0.1272
  906YOPE   C4A12012   4.027  13.779   7.919  0.1872  0.1828  0.1094
  906YOPE   C1B12013   3.641  13.606   6.728 -0.0534 -0.1300  0.0248
  906YOPE   C2B12014   3.846  13.802   7.058  0.0663 -0.1894  0.0550
  906YOPE   D3B12015   3.764  13.790   7.506  0.1437  0.0916  0.1864
  906YOPE   C4B12016   3.730  14.193   7.858  0.1402 -0.0776 -0.1259
  907YOPE   NH312017  17.719   2.901   5.884  0.3493 -0.0958  0.0851
  907YOPE   PO412018  18.111   2.663   6.035 -0.0650  0.3783 -0.4780
  907YOPE   GL112019  17.897   2.801   6.384 -0.0361  0.0402 -0.0526
  907YOPE   GL212020  17.543   2.917   6.333 -0.3455  0.2545  0.0433
  907YOPE   C1A12021  17.675   2.634   6.744  0.0686 -0.1760  0.1331
  907YOPE   D2A12022  17.702   2.333   7.089 -0.0828  0.0560  0.0121
  907YOPE   C3A12023  17.979   2.320   7.347  0.1904  0.1183 -0.3712
  907YOPE   C4A12024  18.121   2.343   7.876  0.0858 -0.3143 -0.0718
  907YOPE   C1B12025  17.489   3.105   6.780 -0.0448 -0.0202 -0.1604
  907YOPE   C2B12026  17.361   3.370   7.118  0.0400  0.1801  0.4627
  907YOPE   D3B12027  17.256   3.212   7.440 -0.3630  0.4629 -0.1506
  907YOPE   C4B12028  17.280   3.328   7.855  0.1123 -0.2887 -0.0296
  908YOPE   NH312029   0.388  15.807   6.301 -0.1892 -0.0419 -0.1708
  908YOPE   PO412030   0.481  16.244   6.191 -0.1267 -0.2994 -0.0235
  908YOPE   GL112031   0.291  16.145   6.641 -0.1219  0.0584 -0.0280
  908YOPE   GL212032   0.174  15.849   6.862 -0.1268 -0.1358  0.1668
  908YOPE   C1A12033   0.018  16.325   6.831  0.1921  0.3144  0.0370
  908YOPE   D2A12034  -0.064  16.641   7.063 -0.0284  0.1677  0.0638
  908YOPE   C3A12035  -0.099  16.644   7.506 -0.0445  0.1429  0.0262
  908YOPE   C4A12036   0.071  16.528   7.914  0.1106  0.0859  0.0683
  908YOPE   C1B12037   0.197  15.977   7.260 -0.3299  0.0253 -0.2221
  908YOPE   C2B12038   0.147  16.009   7.767 -0.1775  0.0321 -0.1846
  908YOPE   D3B12039   0.352  16.213   8.177 -0.1251  0.0422 -0.1435
  908YOPE   C4B12040   0.621  16.441   8.102 -0.2603  0.0781 -0.2246
  909YOPE   NH312041   7.690   3.163   6.168  0.0680 -0.2104 -0.1402
  909YOPE   PO412042   7.926   3.625   6.104 -0.1235 -0.1740  0.0795
  909YOPE   GL112043   8.108   3.696   6.447 -0.2177 -0.0785 -0.0706
  909YOPE   GL212044   7.870   3.353   6.563 -0.2261 -0.1382  0.0559
  909YOPE   C1A12045   8.181   3.780   6.967  0.0889  0.4404  0.1353
  909YOPE   D2A12046   7.941   3.821   7.282 -0.0560 -0.1159  0.0822
  909YOPE   C3A12047   7.818   4.058   7.716 -0.0830  0.0796 -0.1253
  909YOPE   C4A12048   7.928   4.315   8.048  0.0660 -0.0792  0.0231
  909YOPE   C1B12049   7.951   3.268   6.956  0.0651 -0.0457 -0.3251
  909YOPE   C2B12050   8.093   3.349   7.287 -0.0529  0.0427 -0.0804
  909YOPE   D3B12051   7.983   3.533   7.761  0.0043 -0.0522 -0.1112
  909YOPE   C4B12052   8.120   3.847   8.089  0.0091  0.0873 -0.0584
  910YOPE   NH312053  11.099  11.629   5.856  0.2265  0.1101  0.2724
  910YOPE   PO412054  11.166  12.075   5.909  0.1433 -0.1292  0.2145
  910YOPE   GL112055  11.333  12.185   6.285 -0.1492 -0.1473 -0.0365
  910YOPE   GL212056  11.469  12.517   6.172  0.2353 -0.1353  0.1638
  910YOPE   C1A12057  11.742  12.175   6.746 -0.0169  0.0311  0.0071
  910YOPE   D2A12058  11.914  12.105   7.210  0.1236  0.0294  0.2366
  910YOPE   C3A12059  12.376  11.955   7.469  0.0099  0.2543 -0.0042
  910YOPE   C4A12060  12.649  11.769   7.805  0.0642  0.0028  0.1158
  910YOPE   C1B12061  11.311  12.769   6.522  0.0993  0.0476 -0.2320
  910YOPE   C2B12062  11.098  12.965   6.904 -0.0144  0.1695  0.1084
  910YOPE   D3B12063  11.107  12.995   7.372  0.0883 -0.2527 -0.0331
  910YOPE   C4B12064  11.137  13.434   7.634  0.2060 -0.0513 -0.0109
  911YOPE   NH312065  13.271  17.510   5.732  0.0029  0.0687  0.3469
  911YOPE   PO412066  13.024  17.862   5.740  0.2453 -0.1335  0.2164
  911YOPE   GL112067  12.841  17.975   6.118  0.0977  0.2900  0.0517
  911YOPE   GL212068  12.916  18.138   6.228 -0.1767  0.2277 -0.1526
  911YOPE   C1A12069  12.600  17.801   6.433  0.0394  0.2637 -0.0106
  911YOPE   D2A12070  12.521  17.414   6.557  0.0404 -0.2664 -0.3388
  911YOPE   C3A12071  12.048  17.248   6.542 -0.0459 -0.1074 -0.0862
  911YOPE   C4A12072  11.745  17.390   6.829  0.1362  0.2515 -0.1355
  911YOPE   C1B12073  12.941  18.143   6.726 -0.3720  0.1550  0.0538
  911YOPE   C2B12074  12.703  18.282   7.085  0.0236 -0.0357  0.0807
  911YOPE   D3B12075  12.541  18.488   7.471 -0.0453  0.1642  0.0599
  911YOPE   C4B12076  12.770  18.661   7.708  0.1007 -0.2330 -0.0361
  912YOPE   NH312077   0.646   9.655   6.159 -0.0414 -0.4001 -0.1228
  912YOPE   PO412078   0.311   9.795   6.249 -0.0035 -0.0120  0.2411
  912YOPE   GL112079   0.283   9.940   6.597 -0.0814 -0.0730  0.2783
  912YOPE   GL212080   0.103   9.836   6.757 -0.2219  0.1802  0.1640
  912YOPE   C1A12081   0.123  10.236   6.996  0.0552  0.0157 -0.0759
  912YOPE   D2A12082   0.077  10.095   7.399 -0.0529  0.0192 -0.0797
  912YOPE   C3A12083   0.581  10.019   7.644  0.0370  0.1163 -0.3550
  912YOPE   C4A12084   0.709   9.696   7.835 -0.0777  0.2209 -0.2694
  912YOPE   C1B12085  -0.092   9.667   7.160 -0.1732 -0.2528 -0.1467
  912YOPE   C2B12086  -0.212   9.590   7.524  0.2569  0.3020  0.4925
  912YOPE   D3B12087  -0.521   9.591   7.757  0.0614 -0.0251 -0.2362
  912YOPE   C4B12088  -0.807   9.200   7.911  0.0787 -0.2525 -0.0434
  913YOPE   NH312089   2.100  13.845   6.034 -0.0122 -0.1891  0.1397
  913YOPE   PO412090   1.998  14.151   6.215  0.0794  0.1448  0.0251
  913YOPE   GL112091   1.811  14.210   6.585 -0.1001  0.1408 -0.0358
  913YOPE   GL212092   1.482  14.313   6.539  0.1216 -0.1459  0.2492
  913YOPE   C1A12093   1.795  14.412   6.966 -0.1761 -0.1825  0.2413
  913YOPE   D2A12094   1.832  14.537   7.407  0.0820  0.0614 -0.0127
  913YOPE   C3A12095   1.849  14.983   7.556  0.1509  0.2782  0.0661
  913YOPE   C4A12096   1.716  15.290   7.907 -0.2405  0.1300 -0.0681
  913YOPE   C1B12097   1.266  14.532   6.939 -0.3803  0.6153 -0.0638
  913YOPE   C2B12098   1.271  14.542   7.466 -0.1254  0.1892 -0.2729
  913YOPE   D3B12099   1.512  14.504   7.826 -0.0228  0.1001 -0.1282
  913YOPE   C4B12100   1.823  14.358   7.909  0.2612 -0.1459  0.1293
  914YOPE   NH312101   4.453   9.053   5.704  0.3304  0.0823  0.0700
  914YOPE   PO412102   4.264   9.517   5.689  0.0788 -0.2308 -0.0172
  914YOPE   GL112103   4.245   9.428   6.125  0.1505 -0.2241  0.1003
  914YOPE   GL212104   4.416   9.234   6.175  0.0250  0.0596  0.1295
  914YOPE   C1A12105   4.379   9.647   6.476  0.0757  0.2991  0.2741
  914YOPE   D2A12106   4.354   9.842   6.928  0.3616  0.2162 -0.1276
  914YOPE   C3A12107   4.067   9.865   7.316 -0.3471 -0.0057  0.1263
  914YOPE   C4A12108   4.036  10.176   7.555  0.1922 -0.1334 -0.3482
  914YOPE   C1B12109   4.353   9.109   6.627  0.0289 -0.1741  0.0434
  914YOPE   C2B12110   4.266   9.194   7.040  0.1007  0.0394 -0.2304
  914YOPE   D3B12111   4.076   9.303   7.431 -0.1067 -0.2519  0.2071
  914YOPE   C4B12112   3.902   9.386   7.808 -0.1109 -0.2591  0.1920
  915YOPE   NH312113  14.154  10.615   5.296 -0.1890  0.1487  0.0873
  915YOPE   PO412114  14.522  10.406   5.547  0.3302 -0.4942 -0.0585
  915YOPE   GL112115  14.710  10.623   5.883 -0.1368  0.1578 -0.1368
  915YOPE   GL212116  14.953  10.991   5.868  0.3123  0.0522 -0.0567
  915YOPE   C1A12117  14.880  10.533   6.267 -0.4902  0.1387 -0.0595
  915YOPE   D2A12118  14.979  10.726   6.655  0.0902  0.1380  0.0563
  915YOPE   C3A12119  14.962  10.733   7.016 -0.1548 -0.2456  0.1706
  915YOPE   C4A12120  15.075  10.766   7.425  0.2310  0.1467  0.1842
  915YOPE   C1B12121  15.032  11.021   6.258 -0.1134 -0.1364 -0.2483
  915YOPE   C2B12122  14.978  11.229   6.689  0.1967  0.0049 -0.1315
  915YOPE   D3B12123  15.022  11.281   7.108  0.1692  0.1316 -0.3471
  915YOPE   C4B12124  14.922  11.218   7.530 -0.1005  0.1127  0.1429
  916YOPE   NH312125   0.412   9.152   6.157  0.0081 -0.1509 -0.0960
  916YOPE   PO412126   0.643   8.723   6.296  0.0905  0.0754 -0.3674
  916YOPE   GL112127   0.456   8.887   6.638 -0.0534 -0.0063  0.0046
  916YOPE   GL212128   0.172   8.754   6.641  0.0497  0.1424 -0.2739
  916YOPE   C1A12129   0.521   8.850   7.089 -0.0461 -0.4620 -0.0558
  916YOPE   D2A12130   0.483   8.445   7.261 -0.4703 -0.1050 -0.3166
  916YOPE   C3A12131   0.084   8.280   7.508  0.2503 -0.0305  0.1846
  916YOPE   C4A12132  -0.005   8.134   7.845 -0.1764  0.1040  0.3126
  916YOPE   C1B12133   0.077   8.708   7.041 -0.3321 -0.3575 -0.2971
  916YOPE   C2B12134   0.086   8.743   7.419 -0.1114  0.1725  0.2964
  916YOPE   D3B12135  -0.209   8.592   7.857 -0.0087  0.4037 -0.0485
  916YOPE   C4B12136  -0.438   8.806   8.149  0.0198  0.3040 -0.0406
  917YOPE   NH312137   4.540  14.755   6.250 -0.2262 -0.0119  0.0259
  917YOPE   PO412138   4.347  15.055   6.384  0.0723 -0.2559 -0.0497
  917YOPE   GL112139   4.667  15.097   6.642  0.1063 -0.0815 -0.0331
  917YOPE   GL212140   4.638  14.899   6.746  0.1623  0.2492 -0.0068
  917YOPE   C1A12141   4.595  15.340   7.010 -0.2111 -0.0906 -0.4628
  917YOPE   D2A12142   4.538  15.443   7.450 -0.2678  0.4889  0.1464
  917YOPE   C3A12143   4.794  15.439   7.781  0.1168 -0.0610 -0.2949
  917YOPE   C4A12144   4.978  15.718   7.988  0.0594 -0.0799  0.1300
  917YOPE   C1B12145   4.536  14.834   7.114  0.0940  0.1674  0.1002
  917YOPE   C2B12146   4.526  14.961   7.534  0.1275 -0.0719 -0.0237
  917YOPE   D3B12147   4.869  14.989   7.962 -0.1545 -0.3435 -0.1103
  917YOPE   C4B12148   4.826  15.322   8.284  0.0646  0.1662  0.1737
  918YOPE   NH312149  16.329   4.483   6.060 -0.0967  0.4488 -0.0260
  918YOPE   PO412150  16.362   4.892   6.169  0.2652  0.0688  0.2064
  918YOPE   GL112151  16.449   4.712   6.602  0.2012 -0.0851  0.1461
  918YOPE   GL212152  16.274   4.408   6.568 -0.1194 -0.1010 -0.1108
  918YOPE   C1A12153  16.249   4.702   6.967  0.0877  0.0500 -0.1601
  918YOPE   D2A12154  16.098   4.884   7.394 -0.0060 -0.2650  0.1124
  918YOPE   C3A12155  16.064   4.919   7.752  0.1137  0.4443 -0.1019
  918YOPE   C4A12156  15.875   4.928   8.174 -0.1211 -0.1779 -0.1514
  918YOPE   C1B12157  16.717   4.329   6.768  0.1038  0.0126  0.2390
  918YOPE   C2B12158  16.815   4.243   7.136 -0.0746 -0.0138  0.0847
  918YOPE   D3B12159  17.192   4.205   7.319  0.0480  0.2795  0.0162
  918YOPE   C4B12160  17.432   4.040   7.555 -0.1765  0.1104 -0.2096
  919YOPE   NH312161   6.025   1.595   6.313  0.0394  0.0975 -0.0746
  919YOPE   PO412162   5.590   1.420   6.337 -0.0272  0.1248  0.0714
  919YOPE   GL112163   5.905   1.424   6.736  0.2634 -0.3058  0.1115
  919YOPE   GL212164   5.657   1.449   6.904 -0.0149  0.1766 -0.2234
  919YOPE   C1A12165   6.072   1.228   7.148 -0.0468  0.2505  0.2167
  919YOPE   D2A12166   6.171   1.222   7.593 -0.1346 -0.3025  0.0586
  919YOPE   C3A12167   5.900   1.412   7.917 -0.0829 -0.0251  0.0742
  919YOPE   C4A12168   5.683   1.754   7.848 -0.2049 -0.0018 -0.1933
  919YOPE   C1B12169   5.710   1.502   7.374 -0.2732 -0.0175  0.1681
  919YOPE   C2B12170   5.697   1.104   7.567 -0.0477  0.0423  0.1917
  919YOPE   D3B12171   5.552   0.969   7.846 -0.0219 -0.1395  0.1433
  919YOPE   C4B12172   5.106   1.002   8.066  0.1542 -0.2921  0.1226
  920YOPE   NH312173   0.585  10.201   6.006 -0.1769 -0.0046 -0.0447
  920YOPE   PO412174   0.359  10.381   6.339  0.0841 -0.0756 -0.1271
  920YOPE   GL112175   0.170  10.702   6.531 -0.0992  0.2118 -0.0760
  920YOPE   GL212176   0.342  11.013   6.499  0.0255 -0.0530 -0.1745
  920YOPE   C1A12177   0.124  10.827   6.898 -0.1425 -0.1060  0.3648
  920YOPE   D2A12178   0.243  11.052   7.304 -0.2303  0.0750 -0.3409
  920YOPE   C3A12179   0.288  11.374   7.611  0.0969  0.1876 -0.2707
  920YOPE   C4A12180   0.256  11.750   7.898 -0.0103  0.2228  0.1742
  920YOPE   C1B12181   0.594  10.899   6.889 -0.1256 -0.0158 -0.5975
  920YOPE   C2B12182   0.550  10.680   7.182 -0.0075  0.1578 -0.2250
  920YOPE   D3B12183   0.365  10.465   7.486  0.2533  0.0423 -0.0563
  920YOPE   C4B12184   0.259  10.388   7.963 -0.0268 -0.0045  0.3079
  921YOPE   NH312185  14.885   3.657   5.747  0.0315 -0.0822 -0.3393
  921YOPE   PO412186  14.922   3.676   6.162 -0.1218  0.0299  0.1648
  921YOPE   GL112187  14.774   3.513   6.552 -0.2013 -0.0141 -0.0037
  921YOPE   GL212188  14.437   3.603   6.556 -0.0519  0.1668 -0.1291
  921YOPE   C1A12189  14.766   3.271   6.955  0.1736 -0.2024 -0.0365
  921YOPE   D2A12190  14.727   3.333   7.369 -0.3568 -0.3886  0.2282
  921YOPE   C3A12191  14.726   3.122   7.751 -0.0552  0.0386 -0.1336
  921YOPE   C4A12192  14.845   2.903   8.039  0.0790  0.2420  0.4273
  921YOPE   C1B12193  14.227   3.513   6.963  0.3094 -0.2988  0.2980
  921YOPE   C2B12194  14.290   3.572   7.437  0.0661  0.4350  0.0438
  921YOPE   D3B12195  14.517   3.633   7.800  0.1186  0.1011 -0.3873
  921YOPE   C4B12196  14.848   3.467   8.105 -0.0899  0.0297 -0.4509
  922YOPE   NH312197  14.485  12.686   5.717  0.1633  0.4453 -0.0102
  922YOPE   PO412198  14.197  12.285   5.559  0.0376  0.3039 -0.3346
  922YOPE   GL112199  14.129  12.509   6.007  0.3433  0.1011 -0.1064
  922YOPE   GL212200  13.892  12.353   6.081  0.1950 -0.0497  0.0404
  922YOPE   C1A12201  14.131  12.526   6.541  0.1246  0.0726  0.0812
  922YOPE   D2A12202  14.179  12.709   6.922  0.0883 -0.0205 -0.2364
  922YOPE   C3A12203  13.880  12.718   7.278  0.2564 -0.2527 -0.2123
  922YOPE   C4A12204  13.495  13.028   7.213 -0.3359  0.2356  0.0403
  922YOPE   C1B12205  13.663  12.521   6.392 -0.0073 -0.4253  0.1885
  922YOPE   C2B12206  13.317  12.433   6.680  0.0102  0.3810  0.0466
  922YOPE   D3B12207  12.903  12.678   6.827 -0.0116 -0.0589  0.3323
  922YOPE   C4B12208  12.903  12.552   7.205 -0.2852 -0.0459  0.2024
  923YOPE   NH312209   3.517   7.197   5.286 -0.1263 -0.2173 -0.0058
  923YOPE   PO412210   3.241   7.536   5.425 -0.0521  0.2777 -0.4063
  923YOPE   GL112211   3.273   7.684   5.789  0.0063  0.2027  0.0231
  923YOPE   GL212212   3.338   7.830   5.877  0.1436 -0.0051 -0.0388
  923YOPE   C1A12213   3.502   7.408   6.128 -0.0011 -0.0841 -0.2362
  923YOPE   D2A12214   3.928   7.399   6.230  0.1879  0.0796 -0.0419
  923YOPE   C3A12215   4.109   7.354   6.596  0.0665  0.0181 -0.1758
  923YOPE   C4A12216   4.349   7.290   6.911  0.0023  0.1776 -0.1817
  923YOPE   C1B12217   3.622   7.899   6.264  0.0730 -0.2535 -0.0008
  923YOPE   C2B12218   3.704   7.643   6.633  0.2925  0.2160  0.1440
  923YOPE   D3B12219   3.680   7.774   6.969  0.0746 -0.1776 -0.0857
  923YOPE   C4B12220   3.659   7.813   7.453 -0.1010  0.1436  0.2388
  924YOPE   NH312221   0.187   0.153   6.342 -0.3966 -0.0836  0.1878
  924YOPE   PO412222   0.525   0.092   6.175  0.0862 -0.0740 -0.3346
  924YOPE   GL112223   0.580   0.035   6.630  0.1017  0.0252  0.0974
  924YOPE   GL212224   0.964   0.103   6.596  0.0857  0.0581  0.0957
  924YOPE   C1A12225   0.860   0.038   7.079  0.2480 -0.0318  0.1415
  924YOPE   D2A12226   1.193   0.052   7.363 -0.0952  0.1010 -0.4037
  924YOPE   C3A12227   1.235   0.271   7.724 -0.0383 -0.1109 -0.1139
  924YOPE   C4A12228   1.398   0.334   8.240 -0.2395  0.0317  0.0103
  924YOPE   C1B12229   1.271   0.217   6.842 -0.1192 -0.2044 -0.0764
  924YOPE   C2B12230   1.548   0.327   7.168 -0.2499  0.0794 -0.1217
  924YOPE   D3B12231   1.858   0.374   7.462  0.0196 -0.3166  0.1326
  924YOPE   C4B12232   2.048   0.456   7.804 -0.1822  0.4289  0.0613
  925YOPE   NH312233   3.351   9.341   5.737 -0.1506 -0.3143  0.2670
  925YOPE   PO412234   2.990   9.570   5.855  0.0662 -0.0675  0.0175
  925YOPE   GL112235   3.147   9.559   6.189  0.0453  0.0377  0.5373
  925YOPE   GL212236   3.069   9.256   6.242  0.1082  0.1122  0.2274
  925YOPE   C1A12237   3.185   9.515   6.694 -0.0697 -0.0703  0.3502
  925YOPE   D2A12238   3.214   9.958   6.968 -0.1862  0.0148  0.0228
  925YOPE   C3A12239   3.127   9.781   7.427 -0.3679  0.3474 -0.3369
  925YOPE   C4A12240   3.047   9.641   7.897 -0.0069  0.2446  0.3128
  925YOPE   C1B12241   2.932   9.039   6.563  0.0174 -0.1882 -0.0236
  925YOPE   C2B12242   2.918   8.978   6.923  0.0257 -0.0309  0.1654
  925YOPE   D3B12243   3.022   8.953   7.350 -0.0570 -0.1588  0.2114
  925YOPE   C4B12244   2.883   9.095   7.842 -0.0122 -0.0850 -0.0243
  926YOPE   NH312245  14.246   7.021   5.827  0.0318 -0.2088 -0.1616
  926YOPE   PO412246  13.874   7.233   5.953 -0.0060  0.4914 -0.0282
  926YOPE   GL112247  13.749   7.385   6.349  0.2487  0.0241  0.0577
  926YOPE   GL212248  13.582   7.185   6.387  0.0273  0.1390 -0.1246
  926YOPE   C1A12249  13.697   7.482   6.785  0.3314 -0.1761 -0.4679
  926YOPE   D2A12250  13.695   7.422   7.202  0.2323  0.0045  0.3019
  926YOPE   C3A12251  13.922   7.239   7.512 -0.1145 -0.0230 -0.1082
  926YOPE   C4A12252  13.985   6.829   7.594 -0.0212  0.1536  0.1922
  926YOPE   C1B12253  13.667   7.020   6.747  0.0482  0.0972  0.1429
  926YOPE   C2B12254  13.581   6.783   7.183  0.2424 -0.0678 -0.0374
  926YOPE   D3B12255  13.494   6.987   7.589  0.3589  0.0302 -0.0821
  926YOPE   C4B12256  13.466   7.063   8.005  0.2390  0.1404  0.0760
  927YOPE   NH312257  17.613  14.338   6.158  0.0744 -0.1604  0.0929
  927YOPE   PO412258  17.939  14.031   6.125  0.0572  0.1609  0.5109
  927YOPE   GL112259  17.684  13.881   6.529 -0.1905  0.0233 -0.4880
  927YOPE   GL212260  17.388  14.192   6.572  0.0930  0.0326 -0.0709
  927YOPE   C1A12261  17.652  13.767   6.938  0.1168  0.3360 -0.3139
  927YOPE   D2A12262  17.360  13.631   7.361 -0.1233 -0.1116  0.0658
  927YOPE   C3A12263  17.436  13.452   7.693  0.1276 -0.1414  0.1033
  927YOPE   C4A12264  17.505  13.425   8.148  0.0429 -0.0500  0.1254
  927YOPE   C1B12265  17.153  14.401   6.878 -0.1660 -0.0670 -0.1819
  927YOPE   C2B12266  17.059  14.656   7.293  0.0109  0.2044 -0.1034
  927YOPE   D3B12267  16.922  14.681   7.633  0.1736  0.1165  0.0547
  927YOPE   C4B12268  16.893  14.792   8.082 -0.0642  0.0852  0.0521
  928YOPE   NH312269  16.969  16.861   6.252  0.0258 -0.2381  0.2904
  928YOPE   PO412270  17.090  16.551   5.949  0.1111 -0.2177  0.1865
  928YOPE   GL112271  16.795  16.340   6.240 -0.0191  0.0548 -0.2228
  928YOPE   GL212272  16.584  16.561   6.269 -0.0855 -0.1539  0.2747
  928YOPE   C1A12273  16.725  16.029   6.597  0.0813  0.3018 -0.0847
  928YOPE   D2A12274  16.444  15.868   6.928 -0.2496  0.0011 -0.1486
  928YOPE   C3A12275  16.234  15.796   7.261 -0.1013 -0.1200 -0.2900
  928YOPE   C4A12276  16.141  15.683   7.618 -0.3887 -0.1632 -0.0129
  928YOPE   C1B12277  16.284  16.650   6.596 -0.1167 -0.0961 -0.0098
  928YOPE   C2B12278  16.024  16.821   7.006  0.2109 -0.0109  0.0915
  928YOPE   D3B12279  15.972  16.886   7.448 -0.1384 -0.0427 -0.0677
  928YOPE   C4B12280  15.938  16.779   7.889  0.2293 -0.0307 -0.0257
  929YOPE   NH312281  11.189   3.895   5.846 -0.2060  0.0528 -0.2335
  929YOPE   PO412282  10.735   4.182   5.646 -0.2755 -0.0814 -0.0763
  929YOPE   GL112283  10.765   4.137   6.019 -0.1834  0.3035 -0.1832
  929YOPE   GL212284  10.601   4.027   6.247 -0.1988 -0.0096  0.0637
  929YOPE   C1A12285  11.002   4.034   6.490 -0.4758  0.1008 -0.1019
  929YOPE   D2A12286  11.272   4.316   6.717  0.1942 -0.1803  0.2415
  929YOPE   C3A12287  11.173   4.214   7.144 -0.0822 -0.0457 -0.2105
  929YOPE   C4A12288  11.123   4.197   7.593 -0.3266  0.1499 -0.2378
  929YOPE   C1B12289  10.440   3.941   6.565 -0.1804  0.3941 -0.2159
  929YOPE   C2B12290  10.129   3.766   6.813  0.0631  0.2839  0.0731
  929YOPE   D3B12291   9.760   3.669   7.075  0.0541 -0.0010 -0.0815
  929YOPE   C4B12292   9.491   3.382   6.872  0.0457 -0.0426 -0.1039
  930YOPE   NH312293  13.738  16.790   6.059  0.1669 -0.1471 -0.1192
  930YOPE   PO412294  14.070  16.539   6.018 -0.3317  0.0039  0.0599
  930YOPE   GL112295  14.062  16.739   6.434 -0.1210 -0.1891  0.0286
  930YOPE   GL212296  14.081  17.007   6.350  0.0192 -0.1011 -0.0840
  930YOPE   C1A12297  14.042  16.623   6.890  0.0222  0.0680  0.3546
  930YOPE   D2A12298  14.196  16.901   7.273  0.3355  0.1322 -0.0978
  930YOPE   C3A12299  14.610  16.955   7.362 -0.1589 -0.1342 -0.2791
  930YOPE   C4A12300  14.917  16.836   7.621 -0.1985  0.1289  0.3833
  930YOPE   C1B12301  14.287  17.215   6.695 -0.0541  0.1619  0.1678
  930YOPE   C2B12302  14.438  17.298   7.070  0.1582  0.2044 -0.0992
  930YOPE   D3B12303  14.245  17.345   7.574 -0.0836  0.0131 -0.1363
  930YOPE   C4B12304  14.008  17.224   7.948  0.0372  0.4137  0.3123
  931YOPE   NH312305   5.591   2.247   5.836  0.0989  0.0538 -0.1070
  931YOPE   PO412306   5.327   2.648   5.939 -0.1084 -0.0102  0.1100
  931YOPE   GL112307   5.405   2.892   6.264 -0.4140  0.1265 -0.0557
  931YOPE   GL212308   5.535   2.786   6.506 -0.1117  0.1922 -0.0536
  931YOPE   C1A12309   5.451   3.243   6.593 -0.1195 -0.2611 -0.0114
  931YOPE   D2A12310   5.517   3.184   7.023 -0.0001  0.1834  0.2016
  931YOPE   C3A12311   5.834   3.454   7.192 -0.2401 -0.1573 -0.0822
  931YOPE   C4A12312   5.921   3.598   7.555  0.0723  0.2639 -0.0531
  931YOPE   C1B12313   5.633   2.517   6.819 -0.0353  0.1883  0.1999
  931YOPE   C2B12314   5.792   2.593   7.209 -0.3332 -0.0256  0.0610
  931YOPE   D3B12315   5.614   2.504   7.543  0.2700  0.0504  0.2062
  931YOPE   C4B12316   5.645   2.667   8.021  0.1263  0.0156  0.1959
  932YOPE   NH312317  14.875  13.426   5.786  0.0227  0.2087  0.0759
  932YOPE   PO412318  14.926  12.960   5.735 -0.1348  0.1804 -0.2385
  932YOPE   GL112319  14.959  12.951   6.183  0.3710  0.1536  0.0973
  932YOPE   GL212320  14.689  12.775   6.193  0.0139 -0.1749 -0.0196
  932YOPE   C1A12321  14.880  13.092   6.570 -0.3340  0.3130  0.3843
  932YOPE   D2A12322  14.680  13.241   6.979  0.1144  0.0814 -0.0539
  932YOPE   C3A12323  14.383  12.992   7.299 -0.1225  0.0152  0.0479
  932YOPE   C4A12324  14.083  13.167   7.686  0.2012  0.0738 -0.0156
  932YOPE   C1B12325  14.602  12.639   6.664 -0.1701 -0.0403 -0.1048
  932YOPE   C2B12326  14.724  12.733   6.966  0.1886 -0.0827 -0.0097
  932YOPE   D3B12327  14.893  12.883   7.322  0.1660  0.0559  0.2348
  932YOPE   C4B12328  15.239  12.928   7.614 -0.3146  0.0594 -0.0034
  933YOPE   NH312329  14.764  16.253   5.775  0.0720  0.2496 -0.2168
  933YOPE   PO412330  14.613  15.889   5.671 -0.1647  0.0883 -0.0948
  933YOPE   GL112331  14.666  15.875   6.158  0.1487 -0.1514 -0.5435
  933YOPE   GL212332  14.438  15.822   6.468 -0.1301  0.1358  0.1899
  933YOPE   C1A12333  14.929  15.716   6.524  0.0770 -0.0869  0.0174
  933YOPE   D2A12334  15.267  15.460   6.554  0.0160 -0.0012 -0.1295
  933YOPE   C3A12335  15.625  15.733   6.637  0.1142  0.1199 -0.0198
  933YOPE   C4A12336  15.916  15.890   6.913  0.1042  0.2849 -0.0752
  933YOPE   C1B12337  14.560  15.871   6.881  0.2493  0.0985  0.1345
  933YOPE   C2B12338  14.795  16.071   7.212 -0.0759  0.1270 -0.0528
  933YOPE   D3B12339  14.859  16.246   7.619 -0.0954 -0.3139  0.0448
  933YOPE   C4B12340  14.725  16.461   7.994 -0.0592 -0.1179  0.0455
  934YOPE   NH312341  16.816  13.607   6.151  0.2350 -0.0469 -0.0373
  934YOPE   PO412342  16.786  13.246   5.922 -0.0708  0.1426  0.2742
  934YOPE   GL112343  16.641  13.150   6.327 -0.2279  0.0949  0.1401
  934YOPE   GL212344  16.852  13.314   6.594  0.0005  0.3077  0.2298
  934YOPE   C1A12345  16.617  12.871   6.672 -0.0564 -0.0283  0.1985
  934YOPE   D2A12346  16.411  12.926   7.067  0.4751 -0.0995 -0.3547
  934YOPE   C3A12347  16.518  13.008   7.464 -0.1517  0.1454 -0.2837
  934YOPE   C4A12348  16.575  13.339   7.713  0.0853  0.0177 -0.1070
  934YOPE   C1B12349  16.797  13.229   6.960  0.0853  0.1042 -0.0957
  934YOPE   C2B12350  17.000  13.286   7.310  0.0249  0.0869 -0.2354
  934YOPE   D3B12351  16.982  13.574   7.720 -0.0128  0.1509 -0.2180
  934YOPE   C4B12352  16.782  13.771   8.107  0.1990  0.2279 -0.2175
  935YOPE   NH312353   2.095   2.088   6.441  0.0226 -0.0258  0.2062
  935YOPE   PO412354   1.819   1.753   6.280  0.0011 -0.1917 -0.0649
  935YOPE   GL112355   1.750   1.796   6.730  0.3339  0.2385  0.2718
  935YOPE   GL212356   1.768   2.094   6.787 -0.3351  0.1304  0.2812
  935YOPE   C1A12357   1.991   1.844   7.181  0.2420  0.3130  0.2373
  935YOPE   D2A12358   2.065   1.841   7.552 -0.2104 -0.4358 -0.0251
  935YOPE   C3A12359   2.077   1.602   7.875 -0.0935 -0.1446 -0.3531
  935YOPE   C4A12360   1.935   1.698   8.377  0.5088  0.2101 -0.0503
  935YOPE   C1B12361   1.854   2.295   7.189 -0.1714  0.1195  0.1392
  935YOPE   C2B12362   1.833   2.247   7.627  0.0021  0.2906  0.2872
  935YOPE   D3B12363   1.776   2.064   8.004 -0.1979  0.1632  0.0820
  935YOPE   C4B12364   1.782   2.153   8.469  0.3751  0.0093 -0.0711
  936YOPE   NH312365   8.127   7.730   5.670 -0.0496  0.0219  0.0178
  936YOPE   PO412366   8.453   7.480   5.714 -0.2011 -0.0781  0.0819
  936YOPE   GL112367   8.569   7.555   6.061 -0.1268 -0.0565  0.1303
  936YOPE   GL212368   8.311   7.436   6.210  0.3168  0.1778  0.3152
  936YOPE   C1A12369   8.671   7.700   6.412  0.0065 -0.1839 -0.0389
  936YOPE   D2A12370   8.645   8.005   6.726  0.2103  0.1253  0.0793
  936YOPE   C3A12371   8.682   7.931   7.102  0.0787 -0.1866  0.0512
  936YOPE   C4A12372   8.911   7.643   7.400 -0.1832  0.2942 -0.0331
  936YOPE   C1B12373   8.243   7.513   6.623 -0.0069  0.1439 -0.0829
  936YOPE   C2B12374   8.216   7.545   7.099 -0.1762 -0.2890  0.2438
  936YOPE   D3B12375   8.324   7.680   7.533 -0.1493 -0.1418  0.0554
  936YOPE   C4B12376   8.030   7.454   7.787 -0.1477  0.1709 -0.0820
  937YOPE   NH312377   0.788   1.432   6.496  0.1787  0.0323 -0.1276
  937YOPE   PO412378   0.758   0.989   6.319  0.0119 -0.2386  0.0392
  937YOPE   GL112379   1.015   0.992   6.663  0.1959  0.0801  0.1792
  937YOPE   GL212380   1.228   1.135   6.508 -0.0678 -0.0885  0.0971
  937YOPE   C1A12381   1.008   1.140   7.040  0.0576 -0.0730  0.0754
  937YOPE   D2A12382   0.732   1.174   7.401  0.1588  0.1613  0.2358
  937YOPE   C3A12383   0.787   1.317   7.769  0.3557 -0.1571 -0.3905
  937YOPE   C4A12384   1.175   1.251   7.940 -0.0573 -0.0459 -0.0949
  937YOPE   C1B12385   1.568   1.143   6.606  0.1811 -0.0113  0.3054
  937YOPE   C2B12386   1.991   1.170   6.460 -0.2421  0.1194 -0.1484
  937YOPE   D3B12387   2.344   0.996   6.773  0.1506  0.3182 -0.2678
  937YOPE   C4B12388   2.593   0.608   6.769 -0.1984 -0.0212 -0.0344
  938YOPE   NH312389   6.293   6.249   5.902  0.1907 -0.0048  0.0190
  938YOPE   PO412390   5.934   6.088   6.026  0.1958  0.0769 -0.2089
  938YOPE   GL112391   5.893   6.271   6.381 -0.2590 -0.1058 -0.4744
  938YOPE   GL212392   6.266   6.253   6.384  0.0364 -0.3888  0.0392
  938YOPE   C1A12393   5.940   6.548   6.800  0.0354 -0.0189 -0.2323
  938YOPE   D2A12394   5.932   6.482   7.207 -0.2463  0.1640  0.2118
  938YOPE   C3A12395   5.565   6.521   7.367  0.0095 -0.2079  0.1285
  938YOPE   C4A12396   5.251   6.843   7.471  0.1335 -0.0076  0.1084
  938YOPE   C1B12397   6.401   6.310   6.811 -0.1115  0.0301  0.3255
  938YOPE   C2B12398   6.408   6.246   7.314 -0.0181  0.0974  0.0204
  938YOPE   D3B12399   6.678   6.115   7.578  0.0562 -0.0912  0.4260
  938YOPE   C4B12400   6.616   6.134   7.995 -0.0367  0.0732 -0.0020
  939YOPE   NH312401   1.334  10.798   5.951  0.1207  0.0392  0.2013
  939YOPE   PO412402   1.460  11.090   6.214  0.0293  0.0500  0.1845
  939YOPE   GL112403   1.677  11.416   6.540 -0.1195  0.1245 -0.0249
  939YOPE   GL212404   1.413  11.694   6.659  0.1482  0.2197 -0.0878
  939YOPE   C1A12405   1.780  11.415   6.924  0.0385  0.4902  0.3620
  939YOPE   D2A12406   1.719  11.505   7.278 -0.0637 -0.1358  0.0760
  939YOPE   C3A12407   1.971  11.289   7.639  0.1729  0.1141 -0.1877
  939YOPE   C4A12408   2.341  10.990   7.748 -0.1816 -0.0663 -0.2258
  939YOPE   C1B12409   1.340  11.958   7.024 -0.0239  0.0705 -0.1816
  939YOPE   C2B12410   1.498  12.209   7.307  0.0265  0.0372 -0.0991
  939YOPE   D3B12411   1.578  12.110   7.638  0.1534  0.0168  0.0150
  939YOPE   C4B12412   1.686  11.670   7.791 -0.0209 -0.1044 -0.0302
  940YOPE   NH312413   4.931  12.622   5.760 -0.1121 -0.1038 -0.0511
  940YOPE   PO412414   5.266  12.452   5.846 -0.0398  0.1665 -0.0439
  940YOPE   GL112415   5.174  12.262   6.189  0.0419 -0.1244 -0.1279
  940YOPE   GL212416   4.964  12.623   6.245  0.0317 -0.1479 -0.2648
  940YOPE   C1A12417   5.308  11.946   6.562  0.1284 -0.0931 -0.1088
  940YOPE   D2A12418   5.427  12.073   6.924 -0.0284 -0.0252 -0.0423
  940YOPE   C3A12419   5.247  12.044   7.327 -0.1106  0.2451 -0.1207
  940YOPE   C4A12420   5.054  12.201   7.543 -0.0303  0.0565 -0.1377
  940YOPE   C1B12421   5.249  12.519   6.588  0.1388 -0.4520  0.0662
  940YOPE   C2B12422   5.187  12.471   7.062  0.3885  0.0698  0.2543
  940YOPE   D3B12423   5.421  12.518   7.428 -0.0224  0.1483 -0.1967
  940YOPE   C4B12424   5.501  12.253   7.815 -0.2871  0.1779  0.0544
  941YOPE   NH312425   9.772  10.464   5.707  0.0472  0.0313  0.2001
  941YOPE   PO412426   9.440  10.655   5.889  0.2260  0.1002  0.0230
  941YOPE   GL112427   9.426  10.648   6.262 -0.1394 -0.1972  0.0145
  941YOPE   GL212428   9.693  10.699   6.361 -0.2816 -0.1337  0.0534
  941YOPE   C1A12429   9.410  10.697   6.795  0.1609 -0.5355 -0.0786
  941YOPE   D2A12430   9.483  10.843   7.196 -0.2641 -0.0240 -0.0705
  941YOPE   C3A12431   9.215  10.522   7.408  0.2203  0.0330  0.0840
  941YOPE   C4A12432   8.973  10.104   7.380  0.1529  0.0998 -0.1535
  941YOPE   C1B12433   9.832  10.957   6.648  0.0287 -0.0657 -0.1807
  941YOPE   C2B12434   9.983  10.847   7.082  0.1004  0.0707 -0.3679
  941YOPE   D3B12435  10.116  10.746   7.497  0.1867 -0.0218 -0.0892
  941YOPE   C4B12436  10.423  10.613   7.835 -0.0878 -0.2060 -0.6302
  942POPC   NC312437   0.932   3.157   5.641  0.0103  0.3384  0.0577
  942POPC   PO412438   1.225   3.122   6.024  0.1108  0.0583  0.0285
  942POPC   GL112439   1.302   3.210   6.405  0.1670 -0.1011  0.0420
  942POPC   GL212440   1.561   3.060   6.546 -0.1290  0.3018  0.0470
  942POPC   C1A12441   1.374   3.522   6.680  0.1103  0.1570  0.0979
  942POPC   D2A12442   1.328   3.734   7.079  0.2159  0.0296  0.1401
  942POPC   C3A12443   1.538   3.664   7.496 -0.0064 -0.1396 -0.2491
  942POPC   C4A12444   1.709   3.393   7.791 -0.0742 -0.0395 -0.3025
  942POPC   C1B12445   1.375   3.156   6.942 -0.2354 -0.0647  0.1350
  942POPC   C2B12446   1.267   3.312   7.374 -0.0475  0.0012 -0.2117
  942POPC   C3B12447   1.203   3.151   7.708 -0.1093  0.0940  0.0970
  942POPC   C4B12448   1.380   3.145   8.023 -0.0122 -0.1496  0.0020
  943POPC   NC312449  11.805   2.453   5.732 -0.2364  0.1882 -0.0604
  943POPC   PO412450  11.681   2.894   5.736  0.0948  0.0286  0.4225
  943POPC   GL112451  11.463   2.758   6.164  0.2390  0.2494  0.1354
  943POPC   GL212452  11.189   2.649   6.211 -0.1015  0.2187  0.1334
  943POPC   C1A12453  11.431   2.809   6.633 -0.0466 -0.1790 -0.1042
  943POPC   D2A12454  11.448   2.753   6.953  0.3088  0.3440  0.0664
  943POPC   C3A12455  11.608   2.997   7.158 -0.0862 -0.3344  0.1101
  943POPC   C4A12456  11.724   3.270   7.231  0.1104  0.3704 -0.1115
  943POPC   C1B12457  10.997   2.593   6.548  0.2540 -0.1302 -0.2698
  943POPC   C2B12458  11.054   2.477   6.873 -0.0819  0.2147 -0.2376
  943POPC   C3B12459  11.197   2.357   7.292 -0.0392  0.0085  0.3051
  943POPC   C4B12460  11.246   2.379   7.776  0.0791  0.0211 -0.1402
  944POPC   NC312461   8.517   5.953   5.751 -0.0033  0.2043 -0.2802
  944POPC   PO412462   8.359   6.229   5.874 -0.0464  0.0975 -0.2847
  944POPC   GL112463   8.551   6.539   6.143 -0.1378  0.0517  0.3424
  944POPC   GL212464   8.302   6.681   6.273 -0.2692  0.4303  0.3666
  944POPC   C1A12465   8.788   6.663   6.577  0.1868  0.2693  0.1681
  944POPC   D2A12466   9.082   6.594   6.883  0.0630  0.1920 -0.3996
  944POPC   C3A12467   9.088   6.782   7.281 -0.1300  0.2605  0.0835
  944POPC   C4A12468   8.991   7.168   7.465 -0.3149  0.3040  0.1422
  944POPC   C1B12469   8.348   6.484   6.639  0.0055  0.0036  0.3660
  944POPC   C2B12470   8.440   6.628   7.020  0.1720  0.1489 -0.0171
  944POPC   C3B12471   8.613   6.911   7.097 -0.0487  0.2484  0.0214
  944POPC   C4B12472   8.535   7.206   7.338  0.2954 -0.0590 -0.1900
  945POPC   NC312473  14.172  11.395   5.674 -0.1097  0.1732  0.2694
  945POPC   PO412474  13.782  11.506   5.679  0.1363  0.1279  0.3040
  945POPC   GL112475  13.710  11.652   6.035 -0.0018  0.2756 -0.0697
  945POPC   GL212476  13.649  11.960   6.147 -0.1069 -0.0508  0.3662
  945POPC   C1A12477  13.971  11.717   6.420  0.1845 -0.2626 -0.1986
  945POPC   D2A12478  14.174  11.527   6.786 -0.0522  0.1838 -0.0391
  945POPC   C3A12479  13.953  11.727   7.114 -0.2588  0.3296 -0.1479
  945POPC   C4A12480  13.757  12.066   7.439 -0.3524 -0.0916  0.2064
  945POPC   C1B12481  13.726  12.130   6.605  0.0265 -0.0953  0.0019
  945POPC   C2B12482  13.926  12.296   6.974 -0.1449  0.2472  0.3697
  945POPC   C3B12483  14.230  12.377   7.339 -0.0830  0.1961  0.0416
  945POPC   C4B12484  14.227  12.649   7.603  0.4074 -0.1747 -0.2808
  946POPC   NC312485  17.603   7.199   5.919 -0.2436 -0.4347 -0.1204
  946POPC   PO412486  17.301   7.034   5.704  0.2960  0.1875 -0.1095
  946POPC   GL112487  16.953   7.006   6.017 -0.1113 -0.0697  0.5199
  946POPC   GL212488  17.053   7.077   6.272 -0.2186  0.0697 -0.1023
  946POPC   C1A12489  16.489   6.975   6.070 -0.2145 -0.0110 -0.0165
  946POPC   D2A12490  16.195   7.258   6.159  0.0533 -0.2369  0.2960
  946POPC   C3A12491  15.900   7.416   6.524 -0.0250  0.1322 -0.1869
  946POPC   C4A12492  16.051   7.413   6.974  0.1402 -0.0793  0.1367
  946POPC   C1B12493  16.791   7.169   6.513  0.0919 -0.0313 -0.1835
  946POPC   C2B12494  16.547   7.322   7.021  0.1164  0.0251 -0.0349
  946POPC   C3B12495  16.278   7.263   7.416 -0.0136 -0.1168 -0.2625
  946POPC   C4B12496  16.265   6.988   7.652 -0.1278 -0.4460  0.0940
  947POPC   NC312497   2.140   4.058   5.829 -0.0961 -0.1449  0.1196
  947POPC   PO412498   2.250   4.219   6.227 -0.2237 -0.1520 -0.1026
  947POPC   GL112499   2.001   4.419   6.323 -0.2445  0.3308 -0.2612
  947POPC   GL212500   2.108   4.703   6.223  0.1682 -0.1804  0.0047
  947POPC   C1A12501   1.838   4.415   6.737  0.4471 -0.1148  0.1619
  947POPC   D2A12502   1.505   4.632   6.967  0.0397 -0.0341 -0.1389
  947POPC   C3A12503   1.548   4.682   7.450 -0.5176  0.1218 -0.1516
  947POPC   C4A12504   1.440   4.443   7.791 -0.0652 -0.1996 -0.1060
  947POPC   C1B12505   2.330   4.930   6.604  0.2728 -0.3570  0.0279
  947POPC   C2B12506   2.364   5.234   6.908 -0.0769  0.3829 -0.1683
  947POPC   C3B12507   2.581   5.543   7.262 -0.1507  0.2710 -0.1783
  947POPC   C4B12508   2.383   5.702   7.725 -0.3489 -0.0958 -0.0334
  948POPC   NC312509   3.245   2.371   6.150 -0.0906  0.0762 -0.0550
  948POPC   PO412510   3.082   2.735   6.269 -0.0726  0.3284 -0.1862
  948POPC   GL112511   3.215   2.752   6.702  0.0193  0.3161 -0.0385
  948POPC   GL212512   3.289   3.027   6.687 -0.2191  0.0519 -0.1970
  948POPC   C1A12513   3.198   2.599   7.205 -0.2835 -0.0321  0.0451
  948POPC   D2A12514   3.103   2.516   7.591  0.1250  0.3252  0.0397
  948POPC   C3A12515   3.043   2.904   7.963 -0.2620 -0.0297  0.3158
  948POPC   C4A12516   3.225   3.123   8.350  0.0267 -0.4412  0.2429
  948POPC   C1B12517   3.431   3.077   7.121 -0.1475  0.3059  0.2589
  948POPC   C2B12518   3.739   3.242   7.488  0.2785  0.1397 -0.0837
  948POPC   C3B12519   4.074   3.435   7.600  0.0914 -0.3327 -0.0852
  948POPC   C4B12520   4.264   3.788   7.862 -0.1462 -0.2231 -0.1420
  949POPC   NC312521   9.128   6.988   5.491 -0.0372  0.3069 -0.0757
  949POPC   PO412522   9.243   6.555   5.556  0.0613  0.1778 -0.1949
  949POPC   GL112523   9.375   6.466   6.039 -0.2623  0.1889  0.0096
  949POPC   GL212524   9.161   6.334   6.257 -0.2169  0.2146 -0.3003
  949POPC   C1A12525   9.534   6.686   6.433 -0.3054  0.1012  0.1766
  949POPC   D2A12526   9.638   6.638   6.825 -0.1142 -0.0866 -0.2246
  949POPC   C3A12527   9.464   6.985   7.056 -0.0110  0.2255  0.1442
  949POPC   C4A12528   9.277   7.438   7.077  0.1707 -0.0049 -0.0087
  949POPC   C1B12529   9.335   6.234   6.614 -0.1393 -0.2703 -0.1234
  949POPC   C2B12530   9.376   6.185   7.026  0.0232  0.0798 -0.0071
  949POPC   C3B12531   9.592   6.340   7.351  0.2832  0.0535  0.0854
  949POPC   C4B12532   9.698   6.344   7.819  0.0893 -0.2120  0.0138
  950POPC   NC312533   6.250   5.361   5.740  0.3176  0.1584 -0.0428
  950POPC   PO412534   6.275   5.764   5.801 -0.5663 -0.1439  0.0263
  950POPC   GL112535   6.430   5.812   6.164 -0.1004  0.2222 -0.0444
  950POPC   GL212536   6.704   6.051   6.269 -0.0160  0.0213 -0.1085
  950POPC   C1A12537   6.526   5.818   6.657 -0.0078 -0.1009  0.0151
  950POPC   D2A12538   6.637   5.975   7.022 -0.2278  0.2440  0.0428
  950POPC   C3A12539   6.574   5.672   7.418 -0.1878  0.1415 -0.2243
  950POPC   C4A12540   6.649   5.668   7.824  0.0361  0.1439  0.2793
  950POPC   C1B12541   6.926   6.155   6.659 -0.2843  0.0494 -0.2750
  950POPC   C2B12542   7.073   6.118   7.115 -0.0673  0.2030  0.1293
  950POPC   C3B12543   7.133   6.147   7.592 -0.0085  0.2320  0.0228
  950POPC   C4B12544   7.154   6.210   7.998 -0.0575  0.0521  0.1608
  951POPC   NC312545   1.620   4.832   5.674  0.1546 -0.1597  0.2812
  951POPC   PO412546   1.324   5.118   5.836  0.0819 -0.2094 -0.0024
  951POPC   GL112547   1.625   4.898   6.226  0.0669 -0.0069  0.1180
  951POPC   GL212548   1.547   4.609   6.346 -0.2432 -0.1821  0.1158
  951POPC   C1A12549   1.818   4.917   6.665 -0.0989 -0.2480  0.0664
  951POPC   D2A12550   1.792   5.196   6.978  0.0907 -0.0737  0.1207
  951POPC   C3A12551   1.544   5.122   7.298  0.0533 -0.2340 -0.0882
  951POPC   C4A12552   1.321   5.017   7.735 -0.3307  0.2643 -0.1539
  951POPC   C1B12553   1.121   4.631   6.586  0.1562 -0.0899 -0.2288
  951POPC   C2B12554   0.786   4.980   6.649  0.0619  0.2876  0.0503
  951POPC   C3B12555   0.817   5.050   7.046  0.1604  0.0070  0.0315
  951POPC   C4B12556   0.879   5.065   7.513 -0.1981  0.2770 -0.0092
  952POPC   NC312557   8.741  11.338   5.246 -0.0673 -0.0995 -0.2219
  952POPC   PO412558   8.760  11.375   5.619  0.0203  0.0680 -0.1315
  952POPC   GL112559   8.800  11.281   6.063 -0.4453 -0.1825 -0.1367
  952POPC   GL212560   8.563  11.115   6.301  0.4521 -0.0732 -0.4050
  952POPC   C1A12561   8.978  11.400   6.378  0.3178  0.0431  0.2147
  952POPC   D2A12562   8.905  11.642   6.698 -0.1510 -0.3447 -0.1351
  952POPC   C3A12563   8.951  11.539   7.117 -0.0793 -0.4293 -0.2239
  952POPC   C4A12564   8.882  11.509   7.558  0.2076 -0.0321 -0.2529
  952POPC   C1B12565   8.632  11.209   6.693 -0.0897 -0.2043 -0.5305
  952POPC   C2B12566   8.589  11.232   7.116 -0.1765 -0.0080 -0.3093
  952POPC   C3B12567   8.643  11.061   7.634 -0.1384  0.2261 -0.0716
  952POPC   C4B12568   8.712  10.682   7.886  0.0349  0.2189 -0.1096
  953POPC   NC312569  13.813  17.693   5.998  0.3265  0.1143 -0.3634
  953POPC   PO412570  13.624  17.251   5.968  0.1910  0.1834 -0.0001
  953POPC   GL112571  13.647  17.274   6.388 -0.1766 -0.0091 -0.1739
  953POPC   GL212572  13.279  17.276   6.528  0.0622 -0.0959  0.0565
  953POPC   C1A12573  13.692  17.251   6.889 -0.0148  0.1134 -0.1504
  953POPC   D2A12574  13.860  17.301   7.275 -0.0264 -0.2821 -0.0070
  953POPC   C3A12575  13.762  17.574   7.652 -0.0898  0.2299 -0.0107
  953POPC   C4A12576  13.480  17.839   7.808 -0.0129  0.2316  0.0069
  953POPC   C1B12577  13.245  17.228   6.968 -0.1208  0.1982 -0.0961
  953POPC   C2B12578  13.407  17.309   7.402  0.0221  0.1290 -0.2026
  953POPC   C3B12579  13.586  17.014   7.738  0.1734 -0.1240  0.1645
  953POPC   C4B12580  13.755  16.849   8.149  0.1412 -0.1428  0.0167
  954POPC   NC312581   2.340  12.784   5.335  0.0448 -0.0634 -0.0629
  954POPC   PO412582   2.625  12.635   5.674  0.3239  0.1795 -0.0986
  954POPC   GL112583   2.480  12.384   6.158 -0.1599  0.0072  0.1438
  954POPC   GL212584   2.463  11.981   6.236  0.3101  0.2035 -0.4317
  954POPC   C1A12585   2.554  12.514   6.571  0.0416 -0.1706 -0.0496
  954POPC   D2A12586   2.858  12.770   6.856 -0.2309 -0.0367  0.4855
  954POPC   C3A12587   2.853  12.708   7.297  0.0142 -0.1502  0.0222
  954POPC   C4A12588   2.875  12.384   7.613 -0.1775  0.0055  0.3825
  954POPC   C1B12589   2.472  12.050   6.548 -0.2845 -0.0781  0.1582
  954POPC   C2B12590   2.524  11.800   6.960 -0.0794 -0.1688 -0.1401
  954POPC   C3B12591   2.553  11.863   7.393  0.0726 -0.0525  0.0220
  954POPC   C4B12592   2.900  11.823   7.786 -0.0656  0.3456 -0.0723
  955POPC   NC312593   9.735   8.872   5.597 -0.0161  0.2947 -0.1078
  955POPC   PO412594   9.377   9.263   5.537 -0.0927 -0.0604  0.1428
  955POPC   GL112595   9.400   9.385   5.897  0.0167  0.1098  0.0266
  955POPC   GL212596   9.129   9.581   5.873 -0.0029 -0.2150  0.0253
  955POPC   C1A12597   9.576   9.352   6.287 -0.1435  0.3198  0.0529
  955POPC   D2A12598  10.030   9.332   6.519  0.1129  0.1284 -0.1953
  955POPC   C3A12599  10.139   9.342   6.972  0.2442 -0.0035  0.0909
  955POPC   C4A12600  10.231   9.143   7.326  0.2276  0.2586  0.1478
  955POPC   C1B12601   9.051   9.289   6.222  0.1308 -0.3759 -0.1027
  955POPC   C2B12602   9.177   9.247   6.620 -0.1297  0.1973  0.0647
  955POPC   C3B12603   9.035   9.447   7.032 -0.1127  0.2059  0.0149
  955POPC   C4B12604   9.284   9.472   7.432  0.0010 -0.0226 -0.2906
  956POPC   NC312605   8.711   2.161   5.601 -0.0076  0.0498 -0.0209
  956POPC   PO412606   9.098   2.232   5.803 -0.1761 -0.1265 -0.0940
  956POPC   GL112607   9.330   2.348   6.102 -0.0191  0.0081  0.3995
  956POPC   GL212608   9.694   2.542   6.166  0.0173 -0.3696  0.1693
  956POPC   C1A12609   9.457   2.285   6.468  0.0102  0.2351  0.4010
  956POPC   D2A12610   9.499   2.343   6.811  0.0010  0.1519 -0.1502
  956POPC   C3A12611   9.739   2.335   7.139  0.3173  0.6456  0.2593
  956POPC   C4A12612  10.190   2.145   7.355 -0.1251 -0.3711  0.0776
  956POPC   C1B12613   9.780   2.734   6.490  0.0012 -0.0241 -0.0772
  956POPC   C2B12614   9.813   2.827   6.826  0.2989 -0.1158 -0.0067
  956POPC   C3B12615   9.874   2.853   7.271  0.1179 -0.1123 -0.0187
  956POPC   C4B12616   9.586   2.863   7.649 -0.0247  0.2817  0.2240
  957POPC   NC312617   4.020  12.532   5.861 -0.1922  0.1353 -0.1582
  957POPC   PO412618   4.376  12.284   5.830  0.1711  0.2082  0.0665
  957POPC   GL112619   4.228  12.116   6.274 -0.2208  0.1773 -0.3242
  957POPC   GL212620   4.338  11.755   6.249  0.1790  0.0044  0.0217
  957POPC   C1A12621   4.228  12.152   6.703 -0.0473  0.5283  0.1523
  957POPC   D2A12622   4.244  12.142   7.055 -0.3364 -0.2392 -0.3308
  957POPC   C3A12623   4.587  12.114   7.282  0.0621 -0.3851 -0.0483
  957POPC   C4A12624   4.703  11.879   7.677  0.0660 -0.1871 -0.0519
  957POPC   C1B12625   4.441  11.633   6.597 -0.3171 -0.3641 -0.3217
  957POPC   C2B12626   4.415  11.665   7.080 -0.0530 -0.3654 -0.1553
  957POPC   C3B12627   4.371  11.553   7.462  0.0554 -0.1976  0.0332
  957POPC   C4B12628   4.519  11.404   7.881  0.0595  0.1585 -0.1083
  958POPC   NC312629   7.219   1.771   5.803  0.1398  0.1197  0.2097
  958POPC   PO412630   7.187   1.654   6.221 -0.0428  0.0703  0.1717
  958POPC   GL112631   7.170   1.851   6.568  0.0975 -0.2172  0.0719
  958POPC   GL212632   6.894   1.871   6.726  0.0684  0.0139 -0.2441
  958POPC   C1A12633   7.594   2.068   6.807  0.0867 -0.2045  0.3015
  958POPC   D2A12634   7.650   2.462   7.063 -0.2513  0.3190 -0.1645
  958POPC   C3A12635   7.432   2.655   7.477 -0.1618 -0.2532 -0.0967
  958POPC   C4A12636   7.126   2.918   7.580  0.1476 -0.0368 -0.3172
  958POPC   C1B12637   6.832   2.078   7.067  0.0452 -0.0721 -0.1179
  958POPC   C2B12638   6.930   2.303   7.491 -0.1953  0.3240  0.1446
  958POPC   C3B12639   7.050   2.517   7.917  0.3617 -0.1470  0.0761
  958POPC   C4B12640   7.100   2.391   8.356  0.0528  0.0601  0.3992
  959POPC   NC312641   7.075   3.725   5.995  0.0061 -0.0301 -0.3014
  959POPC   PO412642   7.219   3.303   6.083  0.0502  0.0211 -0.1952
  959POPC   GL112643   7.064   3.420   6.365 -0.1393  0.1342  0.1474
  959POPC   GL212644   6.629   3.481   6.287 -0.5591  0.3304  0.3368
  959POPC   C1A12645   7.131   3.700   6.714 -0.4210  0.1378 -0.0066
  959POPC   D2A12646   7.266   3.917   7.090  0.0781 -0.1067  0.2229
  959POPC   C3A12647   7.555   3.704   7.503  0.2633  0.3117 -0.1633
  959POPC   C4A12648   7.577   3.721   7.936 -0.0957  0.0457  0.3517
  959POPC   C1B12649   6.641   3.556   6.718 -0.2393  0.0157  0.0286
  959POPC   C2B12650   6.760   3.578   7.120  0.1348  0.2036 -0.1431
  959POPC   C3B12651   6.943   3.719   7.439  0.0569  0.0744 -0.0668
  959POPC   C4B12652   7.137   3.505   7.762 -0.1617 -0.0363 -0.1989
  960POPC   NC312653   3.065   7.149   5.012 -0.1762  0.0108  0.1279
  960POPC   PO412654   2.621   7.164   5.260  0.2641  0.0057 -0.1486
  960POPC   GL112655   2.777   7.044   5.677 -0.0449 -0.2203  0.2406
  960POPC   GL212656   2.557   7.143   5.923 -0.0301 -0.0214  0.1168
  960POPC   C1A12657   3.089   6.931   6.084  0.1275  0.4661 -0.2980
  960POPC   D2A12658   3.451   6.914   6.264 -0.1350 -0.0486 -0.3006
  960POPC   C3A12659   3.657   7.109   6.578  0.0068 -0.0207  0.3081
  960POPC   C4A12660   3.775   7.193   7.049  0.0611  0.0184  0.0633
  960POPC   C1B12661   2.966   7.376   6.029  0.2407  0.2652 -0.2464
  960POPC   C2B12662   3.119   7.412   6.447  0.2001  0.0936 -0.1030
  960POPC   C3B12663   3.237   7.384   6.803 -0.3256  0.2663 -0.0149
  960POPC   C4B12664   3.252   7.628   7.212 -0.2058 -0.0322  0.1196
  961POPC   NC312665   4.967  15.750   5.698  0.0257 -0.3661 -0.1209
  961POPC   PO412666   5.192  15.709   6.108  0.0136  0.5039  0.0341
  961POPC   GL112667   5.188  15.799   6.539  0.1451 -0.0821 -0.2538
  961POPC   GL212668   5.447  16.124   6.695  0.0789  0.0202 -0.1649
  961POPC   C1A12669   4.864  15.865   6.811  0.2129  0.0665 -0.0512
  961POPC   D2A12670   4.836  15.934   7.275  0.4147  0.3674  0.1278
  961POPC   C3A12671   4.592  15.927   7.677  0.0660  0.0979  0.0388
  961POPC   C4A12672   4.525  15.934   8.092 -0.0538 -0.2908 -0.0307
  961POPC   C1B12673   5.258  16.266   7.107  0.1192 -0.1181 -0.0360
  961POPC   C2B12674   5.146  16.272   7.533  0.0425 -0.1672 -0.0228
  961POPC   C3B12675   4.965  16.267   7.815  0.1044  0.1640 -0.0388
  961POPC   C4B12676   4.615  16.407   7.927 -0.1079 -0.1953  0.0547
  962POPC   NC312677  10.765  17.813   5.580  0.0267  0.2067 -0.2087
  962POPC   PO412678  10.503  17.633   5.568  0.1606 -0.2323  0.1467
  962POPC   GL112679  10.395  17.525   5.995  0.2065  0.2417 -0.1454
  962POPC   GL212680  10.084  17.538   6.117 -0.1545  0.1846 -0.0012
  962POPC   C1A12681  10.564  17.411   6.280  0.1492 -0.0978 -0.0448
  962POPC   D2A12682  10.731  17.319   6.691 -0.1467  0.2494  0.1824
  962POPC   C3A12683  10.585  17.378   6.966  0.0476 -0.0039 -0.1146
  962POPC   C4A12684  10.220  17.414   7.193  0.2183  0.4263  0.0050
  962POPC   C1B12685  10.125  17.366   6.558 -0.0525 -0.0059  0.1328
  962POPC   C2B12686   9.959  17.218   6.811 -0.1420 -0.1788 -0.2500
  962POPC   C3B12687   9.751  17.088   7.118  0.0354  0.0668 -0.0552
  962POPC   C4B12688   9.321  17.225   7.343 -0.1401 -0.0052 -0.0000
  963POPC   NC312689   2.643   2.943   6.114  0.0222 -0.0729 -0.0176
  963POPC   PO412690   2.565   3.295   6.343  0.2253  0.1400  0.1680
  963POPC   GL112691   2.659   3.483   6.646 -0.0803  0.1151 -0.3467
  963POPC   GL212692   2.957   3.434   6.767 -0.1201  0.1476 -0.2419
  963POPC   C1A12693   2.582   3.433   7.047 -0.0829 -0.0424  0.0651
  963POPC   D2A12694   2.584   3.706   7.308 -0.0100 -0.0859  0.0967
  963POPC   C3A12695   2.789   3.647   7.675  0.0370 -0.0434 -0.0319
  963POPC   C4A12696   2.989   3.514   8.079  0.1119 -0.1498  0.2828
  963POPC   C1B12697   3.029   3.722   7.060 -0.0335 -0.2772 -0.1023
  963POPC   C2B12698   3.115   3.991   7.424  0.2689 -0.2962  0.0887
  963POPC   C3B12699   3.057   4.365   7.714  0.1378  0.0556 -0.2533
  963POPC   C4B12700   3.395   4.551   7.846 -0.2006  0.0128 -0.0100
  964POPC   NC312701   8.620   7.941   5.651 -0.0054  0.0977  0.1237
  964POPC   PO412702   8.665   8.345   5.395  0.5627  0.2049 -0.0158
  964POPC   GL112703   8.739   8.485   5.736  0.3533 -0.1653  0.1486
  964POPC   GL212704   8.541   8.747   5.760  0.0250 -0.4115  0.0193
  964POPC   C1A12705   9.039   8.473   6.035  0.1451 -0.0795  0.1545
  964POPC   D2A12706   9.211   8.295   6.384  0.0612 -0.2066 -0.0270
  964POPC   C3A12707   9.073   8.318   6.850  0.0122  0.0875  0.3111
  964POPC   C4A12708   9.026   8.396   7.273  0.0873  0.0491  0.0622
  964POPC   C1B12709   8.765   8.884   6.203  0.3755 -0.0319 -0.2085
  964POPC   C2B12710   8.759   8.869   6.676  0.0314 -0.0299 -0.0924
  964POPC   C3B12711   8.878   8.901   7.102  0.0311  0.0712 -0.0829
  964POPC   C4B12712   8.882   9.184   7.533 -0.2053 -0.0877 -0.0630
  965POPC   NC312713  18.179   4.339   5.208 -0.1215  0.0460  0.1106
  965POPC   PO412714  18.353   4.180   5.576  0.0662  0.0385 -0.1858
  965POPC   GL112715  18.299   4.223   6.021  0.0416 -0.1221 -0.0773
  965POPC   GL212716  18.340   4.491   6.133  0.0345 -0.2064  0.2261
  965POPC   C1A12717  18.012   4.112   6.418  0.0174  0.0340 -0.0572
  965POPC   D2A12718  18.203   4.032   6.896  0.2836 -0.3765  0.1731
  965POPC   C3A12719  18.115   4.103   7.326  0.2011  0.1607  0.2571
  965POPC   C4A12720  18.183   3.994   7.697 -0.1477 -0.5434 -0.1819
  965POPC   C1B12721  18.500   4.178   6.503  0.1449 -0.3411 -0.3093
  965POPC   C2B12722  18.665   4.170   6.943  0.1466 -0.1399  0.0168
  965POPC   C3B12723  18.989   4.216   7.196 -0.0077  0.0957  0.0429
  965POPC   C4B12724  19.215   3.802   7.325  0.0181  0.0620  0.0006
  966POPC   NC312725  10.831   7.911   5.284 -0.0543 -0.1350  0.1758
  966POPC   PO412726  10.952   8.252   5.612 -0.2554  0.1765  0.0353
  966POPC   GL112727  11.243   8.040   6.069 -0.0825 -0.1571 -0.2754
  966POPC   GL212728  11.074   8.151   6.235  0.0577 -0.0909  0.0270
  966POPC   C1A12729  11.589   8.063   6.413 -0.1143  0.2666 -0.0579
  966POPC   D2A12730  11.595   8.064   6.744  0.3605  0.1406 -0.2049
  966POPC   C3A12731  11.897   7.951   6.914 -0.2667  0.1061 -0.0086
  966POPC   C4A12732  12.334   7.920   7.136  0.1625  0.0964 -0.3301
  966POPC   C1B12733  11.203   8.318   6.580  0.0404 -0.1036  0.1019
  966POPC   C2B12734  11.231   8.376   7.030 -0.0931 -0.1640  0.4908
  966POPC   C3B12735  11.429   8.087   7.295 -0.0092  0.4304  0.0850
  966POPC   C4B12736  11.709   7.998   7.759  0.0158  0.1695 -0.1307
  967POPC   NC312737   4.832   2.629   5.703  0.0103 -0.3822 -0.1840
  967POPC   PO412738   5.050   2.204   5.909  0.0411  0.0607 -0.1472
  967POPC   GL112739   5.115   2.382   6.309 -0.1237  0.2083 -0.2293
  967POPC   GL212740   5.436   2.341   6.397 -0.0150 -0.1998 -0.1274
  967POPC   C1A12741   5.077   2.718   6.735  0.0068 -0.0233  0.0022
  967POPC   D2A12742   4.987   3.149   6.681 -0.1531  0.1099 -0.3641
  967POPC   C3A12743   4.907   3.284   7.132  0.1671 -0.0034 -0.0342
  967POPC   C4A12744   5.081   3.229   7.498  0.1164  0.0085  0.0111
  967POPC   C1B12745   5.258   2.258   6.792  0.1907 -0.0907 -0.1849
  967POPC   C2B12746   5.189   2.481   7.178  0.0326 -0.1983  0.0475
  967POPC   C3B12747   5.287   2.831   7.268 -0.1444  0.0397  0.0022
  967POPC   C4B12748   5.592   3.020   7.520  0.1536  0.2095  0.1175
  968POPC   NC312749  17.070   9.547   5.730 -0.2174  0.0576  0.0772
  968POPC   PO412750  17.282  10.041   5.641  0.0593  0.0162 -0.4348
  968POPC   GL112751  17.272   9.922   6.086 -0.0259 -0.2525  0.0751
  968POPC   GL212752  16.884  10.028   6.194  0.0934  0.1515 -0.2679
  968POPC   C1A12753  17.163   9.883   6.608  0.1083  0.0546 -0.1125
  968POPC   D2A12754  17.137   9.797   7.009  0.1054 -0.1610  0.1420
  968POPC   C3A12755  16.961  10.015   7.402  0.2576 -0.2126  0.2057
  968POPC   C4A12756  16.892   9.885   7.794  0.0345 -0.1142  0.0203
  968POPC   C1B12757  16.644  10.135   6.513  0.2460 -0.0371  0.0629
  968POPC   C2B12758  16.252  10.205   6.742  0.1832  0.3684  0.2811
  968POPC   C3B12759  15.965  10.147   7.063 -0.1852  0.0605 -0.1577
  968POPC   C4B12760  15.686  10.058   7.424 -0.0397 -0.1049 -0.2578
  969POPC   NC312761  11.904  11.490   5.689  0.0322  0.2962  0.1566
  969POPC   PO412762  11.491  11.335   5.721 -0.0046  0.1381 -0.0015
  969POPC   GL112763  11.350  11.393   6.235 -0.0444  0.1777  0.0708
  969POPC   GL212764  11.196  11.629   6.344  0.1262 -0.2063 -0.2461
  969POPC   C1A12765  11.377  11.377   6.713  0.0593  0.0124  0.0612
  969POPC   D2A12766  11.174  11.356   7.110  0.2981  0.0842 -0.0965
  969POPC   C3A12767  10.814  11.626   7.155  0.0497 -0.2080  0.0450
  969POPC   C4A12768  10.748  12.003   6.929  0.0621 -0.0012 -0.1610
  969POPC   C1B12769  10.836  11.526   6.634 -0.2744  0.2329 -0.1212
  969POPC   C2B12770  10.434  11.640   6.790  0.1138 -0.0876  0.2768
  969POPC   C3B12771  10.289  11.818   7.100  0.1198  0.0641  0.1078
  969POPC   C4B12772  10.383  11.788   7.572  0.1306 -0.1599  0.0296
  970POPC   NC312773  13.184   4.814   5.618  0.1172 -0.0314  0.3426
  970POPC   PO412774  12.923   5.151   5.593 -0.2436 -0.0041 -0.3267
  970POPC   GL112775  12.875   5.072   5.983  0.0749  0.2194  0.1974
  970POPC   GL212776  12.523   5.015   6.125 -0.1833  0.1574  0.0380
  970POPC   C1A12777  12.927   5.055   6.388  0.1766 -0.0173  0.0178
  970POPC   D2A12778  13.033   4.955   6.822  0.1409  0.2978  0.1598
  970POPC   C3A12779  12.963   4.701   7.125 -0.0895 -0.0281 -0.1542
  970POPC   C4A12780  12.939   4.674   7.489 -0.2112  0.2143 -0.1829
  970POPC   C1B12781  12.407   5.014   6.465 -0.0275  0.1599  0.0267
  970POPC   C2B12782  12.496   4.810   6.900  0.0043 -0.0844  0.1949
  970POPC   C3B12783  12.430   4.970   7.306  0.2442  0.1835 -0.0109
  970POPC   C4B12784  12.171   5.149   7.522  0.1659 -0.0137  0.2115
  971POPC   NC312785  11.303   9.104   5.237 -0.2854  0.0731 -0.1006
  971POPC   PO412786  11.472   8.828   5.622 -0.2649  0.0469  0.2113
  971POPC   GL112787  11.595   8.827   5.986 -0.3872  0.1605 -0.3745
  971POPC   GL212788  11.354   9.010   6.114  0.1360  0.1627  0.3461
  971POPC   C1A12789  11.615   8.572   6.326  0.0283  0.2111 -0.4492
  971POPC   D2A12790  11.640   8.571   6.717  0.2655  0.1433  0.3441
  971POPC   C3A12791  11.731   8.449   7.097  0.0213  0.1649 -0.1464
  971POPC   C4A12792  11.956   8.245   7.348 -0.2452  0.3241  0.2273
  971POPC   C1B12793  11.232   8.828   6.429 -0.1425  0.0447  0.0738
  971POPC   C2B12794  10.955   8.736   6.731 -0.1306  0.1476 -0.1933
  971POPC   C3B12795  10.869   8.812   7.170  0.0559  0.1434 -0.2611
  971POPC   C4B12796  10.767   9.115   7.447 -0.0444  0.1791 -0.1166
  972POPC   NC312797  15.610  10.985   5.221 -0.2056  0.0288  0.0428
  972POPC   PO412798  15.449  11.127   5.667 -0.1994 -0.1151 -0.0447
  972POPC   GL112799  15.449  10.834   5.973  0.1073  0.2322 -0.3735
  972POPC   GL212800  15.266  10.597   6.006 -0.1183  0.2772  0.1542
  972POPC   C1A12801  15.789  10.572   6.214  0.0501  0.4712  0.1577
  972POPC   D2A12802  15.880  10.495   6.656  0.1639 -0.0057  0.0227
  972POPC   C3A12803  15.805  10.631   6.967 -0.0708  0.1165 -0.0738
  972POPC   C4A12804  15.868  10.863   7.410 -0.3304 -0.2920 -0.1524
  972POPC   C1B12805  15.341  10.517   6.472  0.4359  0.1077  0.2496
  972POPC   C2B12806  15.385  10.224   6.862 -0.0554 -0.0589 -0.0811
  972POPC   C3B12807  15.416  10.386   7.172  0.1504  0.4387  0.1550
  972POPC   C4B12808  15.535  10.546   7.441  0.4514  0.0592 -0.1361
  973POPC   NC312809   9.544   2.438   5.679 -0.2714  0.1512  0.0787
  973POPC   PO412810   9.732   2.828   5.744  0.0017  0.1376  0.0458
  973POPC   GL112811   9.940   3.051   6.101  0.1271  0.1594  0.0209
  973POPC   GL212812  10.259   3.041   6.124 -0.1231  0.2431 -0.0699
  973POPC   C1A12813   9.783   3.470   6.453  0.0090 -0.1221  0.0999
  973POPC   D2A12814   9.635   3.836   6.531 -0.0836  0.2339  0.3325
  973POPC   C3A12815   9.396   3.927   6.840 -0.4828  0.3133  0.3602
  973POPC   C4A12816   9.351   4.088   7.351 -0.1310  0.0351 -0.1060
  973POPC   C1B12817  10.293   3.499   6.428  0.0052  0.1108  0.0644
  973POPC   C2B12818  10.488   3.447   6.773 -0.2753 -0.0645  0.0070
  973POPC   C3B12819  10.551   3.255   7.120 -0.0753  0.1137  0.2754
  973POPC   C4B12820  10.759   3.323   7.528  0.2913 -0.2362 -0.1325
  974POPC   NC312821   2.381  14.509   6.139  0.2294  0.2766  0.1021
  974POPC   PO412822   2.344  14.830   6.368 -0.1795  0.0855  0.2076
  974POPC   GL112823   2.028  14.868   6.701 -0.1627 -0.1644  0.1037
  974POPC   GL212824   1.970  15.197   6.784 -0.0108 -0.2119 -0.3058
  974POPC   C1A12825   1.762  14.911   7.082  0.3859  0.1433 -0.0042
  974POPC   D2A12826   1.379  15.000   7.202 -0.2008  0.2647  0.1656
  974POPC   C3A12827   1.330  15.057   7.654  0.0049  0.0576  0.0557
  974POPC   C4A12828   1.274  15.260   8.133 -0.0821  0.2321 -0.1478
  974POPC   C1B12829   2.160  15.220   7.179  0.0108 -0.0292 -0.2123
  974POPC   C2B12830   2.191  15.301   7.626  0.0312 -0.0696 -0.1908
  974POPC   C3B12831   2.349  15.229   7.970 -0.0395 -0.2032  0.1071
  974POPC   C4B12832   2.275  15.151   8.346  0.0014  0.2552  0.1734
  975POPC   NC312833  11.063   5.169   5.226 -0.1328 -0.1825  0.3725
  975POPC   PO412834  11.482   5.266   5.377 -0.0845  0.3462  0.0739
  975POPC   GL112835  11.462   5.387   5.783  0.1282 -0.1473  0.0414
  975POPC   GL212836  11.437   5.661   6.026  0.1741 -0.3591 -0.2538
  975POPC   C1A12837  11.306   5.208   6.174 -0.1458 -0.0578  0.2322
  975POPC   D2A12838  11.333   5.310   6.613 -0.3288  0.1790  0.0713
  975POPC   C3A12839  11.433   5.238   7.044  0.0228  0.0486  0.0050
  975POPC   C4A12840  11.677   5.275   7.331  0.0505 -0.0619 -0.0180
  975POPC   C1B12841  11.493   5.920   6.394  0.1952 -0.0992  0.1634
  975POPC   C2B12842  11.346   5.983   6.709  0.2564 -0.2273 -0.0745
  975POPC   C3B12843  11.452   6.032   7.077 -0.0744 -0.1765  0.1276
  975POPC   C4B12844  11.443   5.793   7.388 -0.3689 -0.0422 -0.2140
  976POPC   NC312845   1.919  16.611   6.637  0.0147  0.2370  0.1083
  976POPC   PO412846   1.483  16.801   6.497  0.0711 -0.0172  0.0713
  976POPC   GL112847   1.544  16.765   6.938 -0.1409 -0.0666 -0.0739
  976POPC   GL212848   1.589  16.523   7.010 -0.0774 -0.2103  0.0096
  976POPC   C1A12849   1.569  17.010   7.181 -0.0184 -0.1829  0.2046
  976POPC   D2A12850   1.170  17.179   7.396 -0.1872  0.0658 -0.0896
  976POPC   C3A12851   1.079  17.527   7.657  0.0078 -0.0100 -0.3286
  976POPC   C4A12852   1.288  17.908   7.654 -0.3125 -0.2233 -0.2608
  976POPC   C1B12853   1.819  16.610   7.453 -0.0227 -0.0760 -0.1019
  976POPC   C2B12854   1.819  16.709   7.949 -0.0859 -0.0385  0.0025
  976POPC   C3B12855   1.495  16.814   8.280 -0.1120 -0.2540  0.0277
  976POPC   C4B12856   1.443  17.172   8.484 -0.0661  0.0407  0.3902
  977POPC   NC312857  15.676   6.546   5.537 -0.1994 -0.0801  0.0490
  977POPC   PO412858  15.808   6.191   5.621  0.0173  0.1277  0.0209
  977POPC   GL112859  15.803   6.362   5.995 -0.1654  0.0624 -0.3699
  977POPC   GL212860  15.642   6.587   6.018  0.1485 -0.3545  0.0896
  977POPC   C1A12861  16.165   6.546   6.234  0.3005 -0.0955  0.0351
  977POPC   D2A12862  16.249   6.867   6.497  0.2033 -0.0980 -0.4801
  977POPC   C3A12863  16.360   6.852   6.858  0.1419 -0.0951  0.3534
  977POPC   C4A12864  16.438   6.718   7.248  0.1186 -0.0602 -0.2719
  977POPC   C1B12865  15.632   6.546   6.419 -0.0853 -0.0670 -0.2081
  977POPC   C2B12866  15.459   6.609   6.885 -0.0181 -0.4018  0.0645
  977POPC   C3B12867  15.462   6.549   7.330 -0.0822 -0.3081 -0.0353
  977POPC   C4B12868  15.824   6.633   7.628 -0.2855 -0.3373 -0.0215
  978POPC   NC312869   3.536  15.790   6.030 -0.2794  0.1490 -0.0200
  978POPC   PO412870   3.470  15.574   6.357  0.0375 -0.0517 -0.2163
  978POPC   GL112871   3.489  15.245   6.692  0.1228  0.1427 -0.0740
  978POPC   GL212872   3.236  15.402   6.909  0.1780 -0.1125  0.0245
  978POPC   C1A12873   3.682  15.173   7.080  0.4714  0.6850  0.0630
  978POPC   D2A12874   3.637  15.027   7.413 -0.1034 -0.0936 -0.0478
  978POPC   C3A12875   3.751  14.956   7.941 -0.1095 -0.2299  0.3023
  978POPC   C4A12876   3.937  14.673   8.161 -0.1441  0.2541  0.0557
  978POPC   C1B12877   3.147  15.151   7.210  0.0108 -0.1484  0.0226
  978POPC   C2B12878   3.182  15.068   7.625 -0.1334 -0.1985 -0.1996
  978POPC   C3B12879   3.335  15.187   8.073  0.0759  0.0649  0.2298
  978POPC   C4B12880   3.201  15.322   8.480  0.2395 -0.1435  0.3018
  979POPC   NC312881  17.765   5.066   5.618  0.1913 -0.2942 -0.1315
  979POPC   PO412882  17.467   4.744   5.849  0.0400 -0.1744  0.3164
  979POPC   GL112883  17.191   4.753   6.259  0.2040  0.1889 -0.1647
  979POPC   GL212884  16.868   4.772   6.256 -0.0707  0.2535  0.0158
  979POPC   C1A12885  17.172   4.620   6.712  0.1160  0.1143  0.1732
  979POPC   D2A12886  17.330   4.510   6.990  0.0528  0.0222  0.0352
  979POPC   C3A12887  17.376   4.699   7.439 -0.1291 -0.1174 -0.0356
  979POPC   C4A12888  17.540   4.749   7.857  0.2670  0.2267  0.3289
  979POPC   C1B12889  16.821   4.981   6.632  0.0769 -0.2568 -0.0405
  979POPC   C2B12890  16.730   4.816   7.016 -0.0556 -0.0257 -0.2111
  979POPC   C3B12891  16.910   4.617   7.495 -0.1240  0.0925  0.0725
  979POPC   C4B12892  17.065   4.609   7.865  0.0325  0.2200 -0.3977
  980POPC   NC312893   6.297  11.842   5.655 -0.0586 -0.0833  0.2001
  980POPC   PO412894   6.382  12.317   5.894  0.0458 -0.0715  0.1566
  980POPC   GL112895   6.151  12.044   6.182  0.1694 -0.2122 -0.1500
  980POPC   GL212896   6.162  12.334   6.347 -0.1196 -0.4219  0.1446
  980POPC   C1A12897   5.995  11.937   6.617  0.0891  0.0839 -0.3797
  980POPC   D2A12898   6.105  12.139   7.020  0.1866  0.2263 -0.0089
  980POPC   C3A12899   6.304  12.065   7.399 -0.0730 -0.1511  0.1756
  980POPC   C4A12900   6.307  12.087   7.861  0.0426  0.0227 -0.0343
  980POPC   C1B12901   6.286  12.527   6.727  0.4006  0.0928 -0.3046
  980POPC   C2B12902   6.402  12.569   7.192  0.1080 -0.0100 -0.1372
  980POPC   C3B12903   6.489  12.526   7.583  0.1127  0.0071 -0.3529
  980POPC   C4B12904   6.588  12.969   7.880  0.1679 -0.0722 -0.2414
  981POPC   NC312905   9.835   4.824   5.594  0.2631  0.1699  0.0598
  981POPC   PO412906   9.987   4.684   5.967  0.1261 -0.6309  0.2160
  981POPC   GL112907   9.822   4.930   6.272  0.0545 -0.3860 -0.2669
  981POPC   GL212908   9.740   4.735   6.412  0.2889  0.0904  0.1184
  981POPC   C1A12909  10.113   5.034   6.632  0.3097  0.2239 -0.0714
  981POPC   D2A12910  10.055   5.069   7.028 -0.1756 -0.1707  0.0672
  981POPC   C3A12911   9.908   4.665   7.250 -0.0240  0.1182 -0.0913
  981POPC   C4A12912   9.828   4.360   7.629  0.2968  0.0400 -0.0323
  981POPC   C1B12913   9.657   4.805   6.814  0.1912  0.0672 -0.1857
  981POPC   C2B12914   9.473   4.536   7.066  0.1217  0.1981  0.1015
  981POPC   C3B12915   9.031   4.495   7.373  0.0396 -0.0818  0.0884
  981POPC   C4B12916   9.009   4.297   7.742 -0.1750 -0.2282  0.1416
  982YOPC   NC312917  16.140  17.768   5.877 -0.1202  0.0951 -0.0696
  982YOPC   PO412918  15.950  17.945   6.196 -0.0912  0.2124 -0.2990
  982YOPC   GL112919  15.609  17.677   6.353 -0.2350  0.0945 -0.0654
  982YOPC   GL212920  15.451  17.558   6.234  0.0291 -0.0871  0.1009
  982YOPC   C1A12921  15.456  17.520   6.819 -0.3650 -0.0228  0.0348
  982YOPC   D2A12922  15.625  17.366   7.196  0.1354 -0.2072 -0.0925
  982YOPC   C3A12923  16.008  17.369   7.362  0.3755 -0.3623 -0.1070
  982YOPC   C4A12924  16.131  17.572   7.739 -0.2426 -0.0211  0.3127
  982YOPC   C1B12925  15.511  17.129   6.395  0.3055 -0.1889  0.0897
  982YOPC   C2B12926  15.580  16.961   6.734  0.1509  0.1949  0.0857
  982YOPC   D3B12927  15.575  16.784   7.197  0.0057  0.0038 -0.1100
  982YOPC   C4B12928  15.544  16.518   7.557  0.0010 -0.2303 -0.0018
  983YOPC   NC312929  13.806  15.385   5.955 -0.0434 -0.3232  0.0199
  983YOPC   PO412930  13.667  15.728   6.136  0.1133 -0.1840  0.1858
  983YOPC   GL112931  13.844  15.797   6.492  0.1508  0.0058  0.0737
  983YOPC   GL212932  14.020  16.082   6.594 -0.2277 -0.0270 -0.2327
  983YOPC   C1A12933  13.678  15.684   6.941  0.1202 -0.0281  0.0840
  983YOPC   D2A12934  13.452  15.640   7.314  0.3285  0.0854  0.1672
  983YOPC   C3A12935  13.357  15.148   7.556 -0.0470  0.2222 -0.0825
  983YOPC   C4A12936  13.147  14.838   7.851 -0.0680  0.1885  0.0754
  983YOPC   C1B12937  14.027  16.039   7.011  0.1238  0.0500  0.0381
  983YOPC   C2B12938  14.252  15.924   7.236 -0.2689  0.0830 -0.1918
  983YOPC   D3B12939  14.020  15.622   7.525  0.2329 -0.3683  0.0006
  983YOPC   C4B12940  13.673  15.529   7.748 -0.0525  0.0955 -0.0555
  984YOPC   NC312941   7.367   8.411   5.217 -0.0007  0.1552 -0.0553
  984YOPC   PO412942   7.664   8.540   5.472  0.0128 -0.1006  0.0758
  984YOPC   GL112943   7.466   8.802   5.691 -0.0249 -0.1910  0.1113
  984YOPC   GL212944   7.490   9.133   5.708 -0.0490 -0.0177 -0.0651
  984YOPC   C1A12945   7.063   8.903   5.998  0.0294 -0.2116  0.5073
  984YOPC   D2A12946   6.659   9.013   6.202 -0.4135  0.2107 -0.1354
  984YOPC   C3A12947   6.262   9.164   6.079  0.0410  0.2207  0.0149
  984YOPC   C4A12948   6.068   9.403   6.343  0.3991  0.1427  0.0234
  984YOPC   C1B12949   7.266   9.394   5.916  0.2817  0.1210 -0.0058
  984YOPC   C2B12950   7.321   9.864   6.078  0.0569 -0.4550 -0.1308
  984YOPC   D3B12951   7.289   9.952   6.563  0.1572  0.0396 -0.3054
  984YOPC   C4B12952   7.244   9.837   6.982  0.3602  0.1496  0.0253
  985YOPC   NC312953  18.137   9.894   6.316 -0.0367 -0.1253 -0.0718
  985YOPC   PO412954  18.283  10.192   5.986  0.2406  0.2095  0.2274
  985YOPC   GL112955  18.100  10.420   6.412 -0.1241 -0.0567  0.1970
  985YOPC   GL212956  17.691  10.493   6.492  0.0123 -0.0735 -0.3093
  985YOPC   C1A12957  18.016  10.585   6.842 -0.0005  0.1576 -0.0368
  985YOPC   D2A12958  17.741  10.694   7.104 -0.0853 -0.1282  0.2018
  985YOPC   C3A12959  17.803  10.694   7.587 -0.1216 -0.0995 -0.1739
  985YOPC   C4A12960  17.836  10.887   7.927 -0.1648 -0.3548  0.1096
  985YOPC   C1B12961  17.324  10.407   6.656 -0.3702 -0.2541  0.3209
  985YOPC   C2B12962  16.959  10.233   6.963  0.1646  0.3159 -0.0595
  985YOPC   D3B12963  16.851  10.544   7.396 -0.0488 -0.2263  0.3035
  985YOPC   C4B12964  16.855  10.875   7.659 -0.0509 -0.0816  0.0662
  986YOPC   NC312965   4.595  16.311   6.060  0.0083 -0.2381  0.1080
  986YOPC   PO412966   4.879  16.062   6.175 -0.3966 -0.2918 -0.1823
  986YOPC   GL112967   4.918  16.423   6.518 -0.2486  0.1165  0.0661
  986YOPC   GL212968   4.675  16.535   6.505 -0.0198  0.2142  0.2185
  986YOPC   C1A12969   4.714  16.331   6.989 -0.0079 -0.0728  0.3670
  986YOPC   D2A12970   4.779  16.561   7.461 -0.3528  0.0523  0.0221
  986YOPC   C3A12971   4.448  16.855   7.681 -0.1034 -0.1021  0.0270
  986YOPC   C4A12972   4.294  16.870   8.043 -0.2987 -0.0745  0.0189
  986YOPC   C1B12973   4.342  16.712   6.762 -0.1463  0.3251 -0.0270
  986YOPC   C2B12974   4.190  16.629   7.165  0.1151  0.0455  0.0367
  986YOPC   D3B12975   4.330  16.305   7.459  0.0349 -0.0186  0.4450
  986YOPC   C4B12976   4.182  16.214   7.839 -0.2232 -0.3701 -0.1094
  987YOPC   NC312977   8.195  16.274   5.230  0.1449 -0.1232 -0.0042
  987YOPC   PO412978   8.056  16.492   5.616  0.2698  0.0528 -0.0110
  987YOPC   GL112979   7.803  16.180   5.926  0.1257 -0.1261  0.2966
  987YOPC   GL212980   7.930  16.029   6.145  0.1695  0.0007  0.1137
  987YOPC   C1A12981   7.568  16.377   6.331  0.2635  0.4675  0.0125
  987YOPC   D2A12982   7.204  16.424   6.527  0.2833  0.0558  0.0589
  987YOPC   C3A12983   6.931  16.230   6.874  0.2844 -0.2958  0.0838
  987YOPC   C4A12984   6.864  16.105   7.321 -0.3353 -0.0029  0.4583
  987YOPC   C1B12985   8.022  16.241   6.556 -0.0242  0.0925  0.2734
  987YOPC   C2B12986   7.973  16.148   6.976 -0.1552 -0.0469  0.1292
  987YOPC   D3B12987   8.203  16.436   7.217  0.0747 -0.1033 -0.1393
  987YOPC   C4B12988   8.415  16.440   7.553 -0.0644  0.1550 -0.0811
  988YOPC   NC312989  15.195   0.579   5.847  0.1649  0.0486 -0.3397
  988YOPC   PO412990  15.140   0.202   5.851 -0.0772 -0.1693 -0.1255
  988YOPC   GL112991  14.965   0.342   6.289  0.0933  0.2058 -0.0373
  988YOPC   GL212992  15.251   0.214   6.433 -0.3020  0.1137 -0.1225
  988YOPC   C1A12993  14.792   0.569   6.656  0.2040  0.1453 -0.3350
  988YOPC   D2A12994  14.577   0.798   6.793 -0.2724 -0.0103  0.1517
  988YOPC   C3A12995  14.648   1.151   7.053 -0.1623  0.0286  0.0083
  988YOPC   C4A12996  14.830   1.546   7.205 -0.2377  0.0730 -0.2034
  988YOPC   C1B12997  15.180   0.233   6.899  0.0763 -0.1664 -0.1749
  988YOPC   C2B12998  15.202   0.100   7.343  0.0038 -0.0060 -0.0908
  988YOPC   D3B12999  15.212  -0.303   7.490  0.0234  0.3065 -0.2908
  988YOPC   C4B13000  15.252  -0.658   7.280  0.0567  0.1289 -0.1350
  989YOPC   NC313001   3.601  10.487   5.453  0.0292 -0.1215 -0.1502
  989YOPC   PO413002   3.970  10.317   5.415  0.1186  0.1512 -0.3185
  989YOPC   GL113003   4.251  10.166   5.731 -0.0722  0.0578 -0.0292
  989YOPC   GL213004   4.210  10.538   5.876 -0.1145 -0.0844  0.2230
  989YOPC   C1A13005   4.219  10.142   6.192  0.0789 -0.3129 -0.1777
  989YOPC   D2A13006   4.007   9.953   6.547 -0.1264  0.0909  0.0100
  989YOPC   C3A13007   3.591   9.935   6.559 -0.1271  0.2616  0.1490
  989YOPC   C4A13008   3.217  10.038   6.379  0.1598 -0.4024  0.1707
  989YOPC   C1B13009   3.967  10.627   6.283  0.3296 -0.2749  0.1042
  989YOPC   C2B13010   3.995  10.624   6.694  0.4419  0.3331  0.2058
  989YOPC   D3B13011   4.134  10.929   6.962 -0.1727 -0.0369 -0.0901
  989YOPC   C4B13012   4.398  11.118   7.104  0.2468  0.2383  0.0990
  990YOPC   NC313013   3.723   8.456   5.847 -0.1010  0.1590  0.0620
  990YOPC   PO413014   3.462   8.790   5.675 -0.1632  0.1963 -0.3896
  990YOPC   GL113015   3.529   8.904   6.077 -0.1117 -0.2478  0.0756
  990YOPC   GL213016   3.760   8.805   6.251 -0.3464  0.0277  0.0680
  990YOPC   C1A13017   3.398   8.986   6.561 -0.2627 -0.0287  0.1233
  990YOPC   D2A13018   3.381   9.096   6.984  0.4677 -0.2327 -0.1881
  990YOPC   C3A13019   3.043   9.416   7.160  0.0471 -0.0593  0.2171
  990YOPC   C4A13020   2.649   9.342   7.324 -0.2370 -0.1215  0.0537
  990YOPC   C1B13021   3.895   8.906   6.769 -0.3118 -0.1989 -0.0113
  990YOPC   C2B13022   3.876   8.885   7.106 -0.2241 -0.0724  0.2310
  990YOPC   D3B13023   3.637   9.078   7.418 -0.1355 -0.2566 -0.1143
  990YOPC   C4B13024   3.317   9.307   7.597 -0.1406 -0.1512  0.2003
  991YOPC   NC313025   8.211   8.665   5.388  0.0547 -0.2562  0.2132
  991YOPC   PO413026   8.186   8.236   5.315 -0.0429  0.2730 -0.0597
  991YOPC   GL113027   8.160   8.254   5.755 -0.1152  0.0492  0.2258
  991YOPC   GL213028   7.849   8.209   5.903 -0.0270  0.0246 -0.1921
  991YOPC   C1A13029   8.238   8.469   6.118 -0.2648 -0.0774 -0.0034
  991YOPC   D2A13030   8.257   8.743   6.417 -0.2623  0.2309  0.0821
  991YOPC   C3A13031   8.314   8.618   6.795  0.0194 -0.0437 -0.0339
  991YOPC   C4A13032   8.582   8.452   7.016  0.0400  0.1536 -0.0139
  991YOPC   C1B13033   7.594   8.394   6.190  0.1592  0.0675 -0.0238
  991YOPC   C2B13034   7.776   8.581   6.625 -0.0506 -0.3081  0.1035
  991YOPC   D3B13035   7.922   8.961   6.654 -0.1470 -0.0402  0.1877
  991YOPC   C4B13036   8.108   9.251   6.472  0.2594  0.3494 -0.2834
  992YOPC   NC313037  14.210   7.863   5.291 -0.0521 -0.4548 -0.0519
  992YOPC   PO413038  13.872   8.083   5.452 -0.3276  0.2010  0.0500
  992YOPC   GL113039  13.761   8.130   5.878 -0.2420 -0.2123 -0.1154
  992YOPC   GL213040  13.987   8.344   6.013  0.1253 -0.4962  0.1680
  992YOPC   C1A13041  13.593   8.227   6.324  0.3330 -0.1190  0.1966
  992YOPC   D2A13042  13.232   8.439   6.511 -0.1220  0.0141 -0.1300
  992YOPC   C3A13043  13.272   8.269   6.922  0.2077  0.0600  0.2616
  992YOPC   C4A13044  13.236   8.223   7.456  0.1595 -0.1216 -0.1159
  992YOPC   C1B13045  14.047   8.634   6.315 -0.3838 -0.1035  0.2419
  992YOPC   C2B13046  14.064   8.905   6.725  0.0276  0.0899  0.0097
  992YOPC   D3B13047  14.410   8.936   7.028  0.2484  0.1859 -0.0297
  992YOPC   C4B13048  14.662   8.912   7.230 -0.0397  0.3158  0.1377
  993YOPC   NC313049  16.132  13.595   5.510  0.1070  0.0690  0.0557
  993YOPC   PO413050  16.342  13.559   5.896 -0.0453  0.0554 -0.0416
  993YOPC   GL113051  16.246  13.577   6.338 -0.2778 -0.0132  0.1450
  993YOPC   GL213052  16.048  13.809   6.351  0.1052  0.0089  0.5161
  993YOPC   C1A13053  16.194  13.509   6.761  0.2693 -0.5085 -0.0089
  993YOPC   D2A13054  16.386  13.444   7.145 -0.0490 -0.0771  0.2908
  993YOPC   C3A13055  16.145  13.326   7.460 -0.0283 -0.1043  0.1227
  993YOPC   C4A13056  16.090  13.259   7.753  0.2262  0.0985 -0.4266
  993YOPC   C1B13057  15.697  13.487   6.355 -0.0323 -0.0600 -0.2910
  993YOPC   C2B13058  15.721  13.592   6.775 -0.1813 -0.1198  0.3379
  993YOPC   D3B13059  15.742  13.499   7.193  0.0140  0.1819 -0.0594
  993YOPC   C4B13060  15.636  13.346   7.510 -0.0917 -0.1700  0.1599
  994YOPC   NC313061  12.302  16.046   5.599  0.3229 -0.2849  0.2967
  994YOPC   PO413062  12.201  15.690   5.826 -0.0813  0.0297  0.0717
  994YOPC   GL113063  12.287  15.723   6.205 -0.0417  0.2811 -0.2495
  994YOPC   GL213064  12.239  15.427   6.410 -0.1435 -0.1220  0.0487
  994YOPC   C1A13065  12.456  15.915   6.615  0.1740  0.1758 -0.0255
  994YOPC   D2A13066  12.318  15.988   7.074  0.0058 -0.0181  0.0571
  994YOPC   C3A13067  12.189  15.681   7.337  0.0269  0.2749 -0.0963
  994YOPC   C4A13068  11.893  15.400   7.564  0.2526  0.1234  0.0823
  994YOPC   C1B13069  12.218  15.500   6.850 -0.3669  0.1825 -0.2082
  994YOPC   C2B13070  12.107  15.211   7.142  0.0297 -0.2683 -0.0954
  994YOPC   D3B13071  12.278  15.080   7.581  0.0105 -0.0673 -0.1756
  994YOPC   C4B13072  12.714  14.985   7.660  0.1753  0.0574  0.0112
  995YOPC   NC313073   7.178  14.318   5.661  0.0583  0.1320 -0.2026
  995YOPC   PO413074   7.364  14.414   6.064  0.0017 -0.0051  0.3000
  995YOPC   GL113075   7.304  14.515   6.497 -0.2024 -0.0715 -0.0552
  995YOPC   GL213076   7.111  14.298   6.754 -0.3412 -0.1271  0.2835
  995YOPC   C1A13077   7.406  14.833   6.802  0.1530  0.1359  0.0595
  995YOPC   D2A13078   7.553  14.888   7.308 -0.2549 -0.0164 -0.0985
  995YOPC   C3A13079   7.504  15.329   7.521 -0.1363  0.0239  0.1644
  995YOPC   C4A13080   7.473  15.412   7.983 -0.0080  0.0371 -0.0537
  995YOPC   C1B13081   7.197  14.468   7.094 -0.0345 -0.2194 -0.0295
  995YOPC   C2B13082   7.227  14.622   7.556 -0.1770 -0.0312  0.1500
  995YOPC   D3B13083   7.192  14.963   7.728  0.1649  0.0591  0.0004
  995YOPC   C4B13084   7.093  15.147   8.194 -0.1365  0.1504  0.3938
  996YOPC   NC313085   3.981  11.593   5.721 -0.4742 -0.1237 -0.0268
  996YOPC   PO413086   3.584  11.313   5.677 -0.1032  0.1326  0.0089
  996YOPC   GL113087   3.755  11.178   5.997 -0.0205  0.3462  0.0118
  996YOPC   GL213088   3.599  10.887   6.078 -0.2310 -0.2185  0.0772
  996YOPC   C1A13089   4.121  11.144   6.252  0.2857  0.0140  0.0504
  996YOPC   D2A13090   4.316  11.040   6.558  0.0588 -0.0247  0.1648
  996YOPC   C3A13091   4.447  10.601   6.473 -0.0045 -0.2463  0.1774
  996YOPC   C4A13092   4.476  10.253   6.643 -0.0774  0.3958  0.1990
  996YOPC   C1B13093   3.655  10.950   6.519 -0.0882  0.2979  0.2171
  996YOPC   C2B13094   3.647  11.125   6.887  0.1079 -0.3086 -0.1637
  996YOPC   D3B13095   3.299  11.174   7.143 -0.0886  0.1467  0.0616
  996YOPC   C4B13096   3.468  11.312   7.539  0.0923 -0.0505 -0.3068
  997YOPC   NC313097   6.089   0.327   5.923  0.1476 -0.0027 -0.3941
  997YOPC   PO413098   6.384   0.087   6.317  0.2589 -0.0395  0.3024
  997YOPC   GL113099   6.210   0.112   6.711  0.1819 -0.0544  0.2841
  997YOPC   GL213100   5.928  -0.020   6.748 -0.2245 -0.2752 -0.1585
  997YOPC   C1A13101   6.199   0.502   7.031 -0.1217  0.4855 -0.1866
  997YOPC   D2A13102   6.156   0.767   7.355 -0.1740 -0.4369  0.1355
  997YOPC   C3A13103   6.044   0.689   7.841  0.2735  0.0390  0.2355
  997YOPC   C4A13104   5.898   0.994   8.228  0.0838  0.3265 -0.2379
  997YOPC   C1B13105   5.712   0.245   6.952 -0.4611 -0.0485 -0.0618
  997YOPC   C2B13106   5.360   0.179   7.116 -0.0516 -0.3293  0.3329
  997YOPC   D3B13107   5.223   0.422   7.445 -0.0550 -0.0459 -0.2432
  997YOPC   C4B13108   4.753   0.489   7.465  0.1469 -0.1288  0.0764
  998YOPC   NC313109   9.395   1.224   5.681  0.1792 -0.2393 -0.0542
  998YOPC   PO413110   9.658   1.553   5.628 -0.1523  0.5455  0.1831
  998YOPC   GL113111   9.862   1.235   5.868 -0.1982  0.0419  0.1162
  998YOPC   GL213112   9.710   0.854   5.755  0.0570 -0.1956  0.1792
  998YOPC   C1A13113  10.058   1.353   6.200 -0.1425 -0.3886 -0.1048
  998YOPC   D2A13114  10.487   1.415   6.415 -0.0706 -0.1154  0.1168
  998YOPC   C3A13115  10.624   1.909   6.545  0.4147 -0.0570  0.0880
  998YOPC   C4A13116  10.642   2.280   6.701 -0.1155  0.1994  0.1694
  998YOPC   C1B13117   9.732   0.770   6.235  0.0821  0.0286  0.2033
  998YOPC   C2B13118   9.809   0.738   6.627  0.0531 -0.0616 -0.0681
  998YOPC   D3B13119   9.694   1.077   6.894  0.0812  0.1325 -0.0572
  998YOPC   C4B13120   9.678   1.301   7.283 -0.2906 -0.1036 -0.0294
  999YOPC   NC313121   8.345  13.712   6.177  0.0737  0.3211 -0.0930
  999YOPC   PO413122   8.025  13.776   6.469  0.2210  0.0678  0.2004
  999YOPC   GL113123   8.276  13.696   6.824 -0.2941  0.0666  0.0926
  999YOPC   GL213124   8.495  13.419   6.703 -0.0859 -0.1807 -0.2749
  999YOPC   C1A13125   8.420  13.631   7.200  0.0715  0.5672  0.1676
  999YOPC   D2A13126   8.624  13.591   7.598  0.0234  0.1867 -0.1672
  999YOPC   C3A13127   9.054  13.754   7.795 -0.0411  0.1011 -0.2462
  999YOPC   C4A13128   9.511  13.648   7.879  0.0357  0.1524  0.1885
  999YOPC   C1B13129   8.507  13.108   7.019  0.0614 -0.0939 -0.0439
  999YOPC   C2B13130   8.671  13.008   7.431 -0.1668 -0.2609  0.0468
  999YOPC   D3B13131   8.496  13.180   7.901 -0.3360  0.1984 -0.6027
  999YOPC   C4B13132   8.220  12.972   8.273  0.1454  0.1132 -0.2927
 1000YOPC   NC313133  13.351   6.311   5.573  0.1227  0.0457  0.1350
 1000YOPC   PO413134  12.954   6.448   5.710 -0.1452  0.0137 -0.1997
 1000YOPC   GL113135  13.029   6.534   6.149  0.0916 -0.0179  0.2529
 1000YOPC   GL213136  13.221   6.790   6.290 -0.0274  0.0915 -0.1594
 1000YOPC   C1A13137  13.119   6.470   6.651  0.0258  0.0608 -0.2247
 1000YOPC   D2A13138  13.021   6.726   6.956 -0.1787 -0.1981 -0.0899
 1000YOPC   C3A13139  13.093   6.632   7.248 -0.0988 -0.0367  0.1345
 1000YOPC   C4A13140  12.934   6.750   7.524  0.3225 -0.0011 -0.2087
 1000YOPC   C1B13141  13.586   6.571   6.442 -0.1808 -0.2303 -0.1799
 1000YOPC   C2B13142  13.612   6.398   6.854 -0.0204 -0.1906  0.0040
 1000YOPC   D3B13143  13.344   6.255   7.142 -0.2224 -0.2727 -0.0604
 1000YOPC   C4B13144  13.443   6.436   7.608  0.0024 -0.0880 -0.0426
 1001YOPC   NC313145  15.931  10.050   5.455 -0.2015 -0.1999 -0.0262
 1001YOPC   PO413146  15.597   9.709   5.568 -0.2266 -0.0342 -0.0737
 1001YOPC   GL113147  15.772   9.741   5.958 -0.0417 -0.2253  0.2251
 1001YOPC   GL213148  15.544   9.517   6.182 -0.1250 -0.2245 -0.1073
 1001YOPC   C1A13149  16.044   9.563   6.332  0.1719 -0.1331  0.2771
 1001YOPC   D2A13150  16.041   9.725   6.706 -0.1566  0.0238 -0.1604
 1001YOPC   C3A13151  15.812   9.654   7.093 -0.1651 -0.2358  0.1627
 1001YOPC   C4A13152  16.128   9.808   7.445  0.1024 -0.0997 -0.2901
 1001YOPC   C1B13153  15.327   9.124   6.346 -0.0441  0.0838  0.0768
 1001YOPC   C2B13154  15.023   8.870   6.297 -0.1674  0.2713 -0.0555
 1001YOPC   D3B13155  14.997   8.461   6.603 -0.1232  0.0320 -0.1510
 1001YOPC   C4B13156  15.067   8.284   6.984 -0.1708  0.1269 -0.2668
 1002YOPC   NC313157  17.698  12.289   5.546 -0.3221 -0.1447 -0.0951
 1002YOPC   PO413158  17.856  12.462   5.966 -0.2730 -0.1291  0.0623
 1002YOPC   GL113159  17.732  12.128   6.291 -0.2406 -0.0237  0.1131
 1002YOPC   GL213160  17.560  11.919   6.306  0.1413 -0.3119  0.2267
 1002YOPC   C1A13161  17.843  12.078   6.694  0.1381  0.0371  0.2196
 1002YOPC   D2A13162  17.604  12.288   7.033  0.0709 -0.3328 -0.1795
 1002YOPC   C3A13163  17.776  12.630   7.260 -0.0916  0.3300  0.1459
 1002YOPC   C4A13164  18.050  12.596   7.552 -0.0367 -0.0631 -0.3547
 1002YOPC   C1B13165  17.335  12.004   6.669  0.0798 -0.0796 -0.1583
 1002YOPC   C2B13166  17.148  12.053   7.026  0.2871  0.0250 -0.1338
 1002YOPC   D3B13167  17.203  12.236   7.394 -0.0731  0.1201  0.0350
 1002YOPC   C4B13168  17.385  12.400   7.625  0.0402 -0.0781  0.1480
 1003YOPC   NC313169  15.424  15.541   5.689  0.0656 -0.1790  0.3743
 1003YOPC   PO413170  15.688  15.323   5.864  0.3794  0.2690  0.1495
 1003YOPC   GL113171  15.529  15.114   6.256 -0.0895 -0.1794 -0.1266
 1003YOPC   GL213172  15.436  14.766   6.292  0.2110  0.0379 -0.0803
 1003YOPC   C1A13173  15.644  15.160   6.760  0.1397 -0.0953 -0.0641
 1003YOPC   D2A13174  15.646  15.466   7.077  0.0061 -0.0735  0.1615
 1003YOPC   C3A13175  15.705  15.591   7.493 -0.0099 -0.1519 -0.1319
 1003YOPC   C4A13176  15.539  15.878   7.831 -0.0534  0.2952  0.0854
 1003YOPC   C1B13177  15.465  14.722   6.741  0.0766 -0.0738 -0.1227
 1003YOPC   C2B13178  15.610  14.649   7.161 -0.2428 -0.0560 -0.0199
 1003YOPC   D3B13179  15.315  14.709   7.509  0.0191 -0.0538  0.0295
 1003YOPC   C4B13180  14.870  14.650   7.665 -0.0093 -0.0968 -0.1556
 1004YOPC   NC313181  10.457  17.124   5.691 -0.0282  0.0984  0.1544
 1004YOPC   PO413182  10.679  16.728   5.690  0.1574 -0.3080 -0.1395
 1004YOPC   GL113183  10.714  16.523   6.071  0.3535  0.2577 -0.0755
 1004YOPC   GL213184  10.958  16.219   6.072 -0.2402  0.0076  0.2891
 1004YOPC   C1A13185  10.753  16.406   6.448 -0.0513  0.1950  0.0401
 1004YOPC   D2A13186  10.842  16.191   6.768  0.0353  0.0085 -0.2043
 1004YOPC   C3A13187  10.819  16.279   7.203 -0.2043  0.1978  0.2181
 1004YOPC   C4A13188  11.006  16.169   7.675  0.0464  0.1269 -0.1320
 1004YOPC   C1B13189  11.199  16.276   6.458 -0.0157 -0.1608 -0.1551
 1004YOPC   C2B13190  11.499  16.449   6.911  0.1556  0.2636 -0.2627
 1004YOPC   D3B13191  11.369  16.516   7.369 -0.1050  0.0594  0.0338
 1004YOPC   C4B13192  11.548  16.257   7.668  0.4771  0.3230  0.2280
 1005YOPC   NC313193  10.886   4.429   5.189 -0.0865  0.5755 -0.1758
 1005YOPC   PO413194  10.736   4.802   5.342  0.2318 -0.0194  0.0392
 1005YOPC   GL113195  10.791   4.675   5.784  0.1432 -0.0971  0.1054
 1005YOPC   GL213196  10.547   4.561   6.065  0.2440  0.3973 -0.0470
 1005YOPC   C1A13197  11.120   4.704   6.060 -0.1305  0.1428 -0.3564
 1005YOPC   D2A13198  11.418   4.729   6.302 -0.0103  0.1590 -0.0583
 1005YOPC   C3A13199  11.370   4.806   6.758 -0.0275  0.1182  0.2268
 1005YOPC   C4A13200  11.365   4.798   7.228 -0.0340  0.1166  0.2154
 1005YOPC   C1B13201  10.817   4.477   6.394  0.3501 -0.0436  0.2981
 1005YOPC   C2B13202  10.790   4.338   6.825  0.2637 -0.0839  0.0853
 1005YOPC   D3B13203  10.461   4.138   7.055  0.0419 -0.1931 -0.1477
 1005YOPC   C4B13204  10.262   4.402   7.433 -0.0286 -0.1901  0.1380
 1006YOPC   NC313205   8.179   1.766   6.044  0.3043 -0.1102  0.2357
 1006YOPC   PO413206   8.005   2.172   6.080  0.0850 -0.0964  0.0375
 1006YOPC   GL113207   8.027   2.312   6.534 -0.1882 -0.2293 -0.1530
 1006YOPC   GL213208   8.435   2.464   6.600 -0.0243 -0.0005  0.1563
 1006YOPC   C1A13209   8.046   2.240   7.022  0.0819  0.0438  0.0673
 1006YOPC   D2A13210   8.251   2.106   7.377 -0.1113  0.0782 -0.4018
 1006YOPC   C3A13211   8.368   2.453   7.704  0.0770  0.1561 -0.0353
 1006YOPC   C4A13212   8.481   2.740   7.910 -0.0369 -0.1333 -0.2750
 1006YOPC   C1B13213   8.555   2.422   7.115  0.0309 -0.2363 -0.0249
 1006YOPC   C2B13214   8.689   2.653   7.445  0.1338  0.0785  0.1655
 1006YOPC   D3B13215   8.919   2.502   7.804 -0.0613  0.1030  0.2069
 1006YOPC   C4B13216   9.315   2.546   7.976 -0.2033  0.3656 -0.3477
 1007YOPC   NC313217   2.961  14.081   5.708 -0.2536  0.0259 -0.5395
 1007YOPC   PO413218   2.826  14.242   6.124  0.1853 -0.3195  0.3053
 1007YOPC   GL113219   2.653  14.202   6.465 -0.0015 -0.1227  0.1790
 1007YOPC   GL213220   2.768  14.522   6.622 -0.2155 -0.0287  0.1973
 1007YOPC   C1A13221   2.729  14.040   6.917 -0.0091  0.0911  0.0482
 1007YOPC   D2A13222   2.602  14.103   7.373 -0.0048  0.2553 -0.0477
 1007YOPC   C3A13223   2.755  14.332   7.641 -0.0265  0.3011  0.0358
 1007YOPC   C4A13224   2.866  14.294   8.159 -0.1460 -0.2164  0.3336
 1007YOPC   C1B13225   2.829  14.498   7.035 -0.2511  0.2112 -0.0224
 1007YOPC   C2B13226   3.088  14.682   7.337  0.4364  0.1519  0.1794
 1007YOPC   D3B13227   3.476  14.553   7.319 -0.1299  0.1409 -0.1749
 1007YOPC   C4B13228   3.732  14.264   7.302 -0.1082  0.3647 -0.4741
 1008YOPC   NC313229   7.234   2.789   6.217  0.0605 -0.0813 -0.0613
 1008YOPC   PO413230   7.683   2.640   6.310 -0.1313 -0.0616 -0.1385
 1008YOPC   GL113231   7.467   2.828   6.650 -0.1136  0.5381 -0.1718
 1008YOPC   GL213232   7.402   3.155   6.627  0.0434  0.2081  0.0004
 1008YOPC   C1A13233   7.469   2.969   7.085 -0.1743 -0.0312 -0.3749
 1008YOPC   D2A13234   7.660   3.193   7.404 -0.2265  0.0966  0.2669
 1008YOPC   C3A13235   7.540   3.155   7.700  0.2174  0.0082  0.2773
 1008YOPC   C4A13236   7.483   2.917   7.957 -0.0429  0.0167  0.0148
 1008YOPC   C1B13237   6.949   3.182   6.798  0.3117 -0.0745 -0.1548
 1008YOPC   C2B13238   6.571   3.063   6.721 -0.0049 -0.1944 -0.1771
 1008YOPC   D3B13239   6.342   3.250   6.975 -0.1940 -0.0175 -0.2421
 1008YOPC   C4B13240   6.333   3.408   7.323  0.0037 -0.3055 -0.3936
 1009YOPC   NC313241   0.224   8.436   6.174 -0.2977 -0.0899 -0.1034
 1009YOPC   PO413242  -0.043   8.020   6.053  0.0859  0.0329 -0.2209
 1009YOPC   GL113243  -0.219   7.933   6.451 -0.0618  0.0416 -0.2201
 1009YOPC   GL213244  -0.056   7.680   6.617  0.3195 -0.1023 -0.0354
 1009YOPC   C1A13245  -0.513   8.039   6.860 -0.2192  0.0693  0.0181
 1009YOPC   D2A13246  -0.800   8.111   7.230 -0.1951  0.1473 -0.0577
 1009YOPC   C3A13247  -1.061   7.922   7.380 -0.2538 -0.0946  0.1677
 1009YOPC   C4A13248  -1.213   7.629   7.714  0.0450  0.0263 -0.0560
 1009YOPC   C1B13249  -0.151   7.417   6.971  0.2935 -0.3473 -0.0497
 1009YOPC   C2B13250  -0.160   7.351   7.378 -0.0967 -0.1590 -0.0061
 1009YOPC   D3B13251  -0.464   7.190   7.616  0.1594 -0.1121 -0.2535
 1009YOPC   C4B13252  -0.748   6.895   7.811  0.1112 -0.0776  0.0975
 1010YOPC   NC313253   1.949  10.151   6.012 -0.1757  0.4878  0.0856
 1010YOPC   PO413254   1.803  10.661   6.088 -0.1282 -0.0350  0.1989
 1010YOPC   GL113255   1.588  10.742   6.518  0.0125  0.1277 -0.0367
 1010YOPC   GL213256   1.291  10.637   6.479 -0.0570 -0.2248 -0.3119
 1010YOPC   C1A13257   1.552  10.865   6.955 -0.3903  0.1368 -0.1064
 1010YOPC   D2A13258   1.670  11.018   7.293 -0.3364 -0.0399  0.0908
 1010YOPC   C3A13259   1.476  11.226   7.683 -0.0647  0.0997  0.4861
 1010YOPC   C4A13260   1.226  11.514   8.011  0.0337 -0.0873  0.0122
 1010YOPC   C1B13261   0.999  10.589   6.823  0.0830 -0.0227 -0.0401
 1010YOPC   C2B13262   1.096  10.757   7.193  0.0374  0.2675  0.2808
 1010YOPC   D3B13263   1.026  10.912   7.578 -0.2338  0.2940 -0.0879
 1010YOPC   C4B13264   1.082  10.911   8.035  0.0351  0.0459  0.1171
 1011YOPC   NC313265   9.518  16.823   5.409  0.0360  0.1803  0.0835
 1011YOPC   PO413266   9.368  17.211   5.637  0.1648 -0.1560 -0.0152
 1011YOPC   GL113267   9.595  17.240   5.999  0.1170  0.2547  0.1543
 1011YOPC   GL213268   9.533  17.123   6.116  0.2780  0.1115 -0.1368
 1011YOPC   C1A13269   9.682  17.463   6.398  0.0423  0.0100 -0.2297
 1011YOPC   D2A13270   9.574  17.557   6.772  0.2447  0.2752 -0.4461
 1011YOPC   C3A13271   9.754  17.603   7.205  0.0037 -0.1927  0.1901
 1011YOPC   C4A13272  10.066  17.988   7.355 -0.0196 -0.0048 -0.1847
 1011YOPC   C1B13273   9.506  17.023   6.596 -0.0408  0.0144  0.3009
 1011YOPC   C2B13274   9.225  16.893   6.960 -0.0748 -0.0604  0.0322
 1011YOPC   D3B13275   8.844  16.729   6.805  0.0048 -0.4123  0.2479
 1011YOPC   C4B13276   8.613  16.547   7.011  0.0767  0.1399  0.2690
 1012YOPC   NC313277   4.692  11.107   5.246 -0.3819 -0.2687  0.2831
 1012YOPC   PO413278   5.120  11.001   5.389 -0.2516  0.0558  0.1433
 1012YOPC   GL113279   5.221  11.074   5.843  0.1187  0.1065 -0.0239
 1012YOPC   GL213280   5.467  10.760   5.962 -0.0268 -0.1225 -0.0028
 1012YOPC   C1A13281   5.211  11.158   6.141 -0.2297  0.2422  0.0291
 1012YOPC   D2A13282   5.296  10.994   6.561  0.0199 -0.4731 -0.0283
 1012YOPC   C3A13283   5.001  10.919   6.944 -0.3284 -0.1570 -0.0228
 1012YOPC   C4A13284   4.949  10.869   7.452  0.1362 -0.0382 -0.2491
 1012YOPC   C1B13285   5.426  10.533   6.359  0.3441 -0.0418  0.0783
 1012YOPC   C2B13286   5.417  10.563   6.747 -0.2552  0.3738  0.3890
 1012YOPC   D3B13287   5.105  10.482   7.117  0.1038 -0.1355  0.1197
 1012YOPC   C4B13288   5.004  10.388   7.568  0.0784  0.1166  0.3072
 1013YOPC   NC313289  18.118   1.157   6.463 -0.0767 -0.1430  0.2379
 1013YOPC   PO413290  18.208   1.637   6.364 -0.1956 -0.0121  0.3360
 1013YOPC   GL113291  18.356   1.552   6.741 -0.2100 -0.1831  0.1169
 1013YOPC   GL213292  18.282   1.283   6.939  0.1028  0.0640  0.3153
 1013YOPC   C1A13293  18.619   1.828   6.990 -0.0369  0.1881 -0.2981
 1013YOPC   D2A13294  18.703   1.919   7.409  0.0272  0.3011 -0.1652
 1013YOPC   C3A13295  18.703   1.630   7.662  0.0185  0.4219  0.2116
 1013YOPC   C4A13296  18.620   1.320   7.971 -0.3064 -0.0232  0.1003
 1013YOPC   C1B13297  18.122   0.887   7.112  0.0867  0.1178 -0.3058
 1013YOPC   C2B13298  18.085   0.814   7.643  0.0690  0.1195  0.4279
 1013YOPC   D3B13299  18.387   0.851   7.830  0.2655  0.2272 -0.2539
 1013YOPC   C4B13300  18.549   0.870   8.176  0.3129  0.2454  0.2454
 1014YOPC   NC313301  10.038   7.794   4.666 -0.3737 -0.1414 -0.0030
 1014YOPC   PO413302   9.839   7.587   5.092 -0.0516  0.0059 -0.0808
 1014YOPC   GL113303   9.754   7.460   5.542  0.3553 -0.1233  0.0412
 1014YOPC   GL213304   9.549   7.702   5.614  0.1062 -0.2117  0.1431
 1014YOPC   C1A13305   9.732   7.598   6.070 -0.2637 -0.1386  0.0713
 1014YOPC   D2A13306   9.877   7.584   6.449 -0.2819 -0.0850  0.2728
 1014YOPC   C3A13307  10.170   7.675   6.807  0.0507  0.2862  0.2572
 1014YOPC   C4A13308  10.475   7.857   7.035  0.0061 -0.2691 -0.2272
 1014YOPC   C1B13309   9.434   7.982   5.936  0.3088 -0.1281 -0.0409
 1014YOPC   C2B13310   8.988   7.948   5.987  0.0283  0.0182 -0.0616
 1014YOPC   D3B13311   8.704   8.129   6.192 -0.0355 -0.2703  0.0381
 1014YOPC   C4B13312   8.691   8.428   6.415  0.1948 -0.0899  0.2503
 1015YOPC   NC313313   7.880   8.997   5.269 -0.0595 -0.0727 -0.3897
 1015YOPC   PO413314   7.936   9.305   5.545 -0.1156  0.0028 -0.1322
 1015YOPC   GL113315   8.096   9.378   5.958 -0.0885  0.3033  0.0843
 1015YOPC   GL213316   8.292   9.173   5.976  0.1805 -0.0546 -0.3123
 1015YOPC   C1A13317   8.197   9.730   6.250  0.0284 -0.1124  0.3121
 1015YOPC   D2A13318   8.307   9.748   6.667  0.1395 -0.1225  0.1393
 1015YOPC   C3A13319   8.146   9.587   7.043 -0.0008 -0.1130  0.0259
 1015YOPC   C4A13320   8.268   9.325   7.445 -0.1066 -0.2005  0.1590
 1015YOPC   C1B13321   8.551   9.359   6.190 -0.1892 -0.4009  0.1039
 1015YOPC   C2B13322   8.634   9.357   6.650  0.0867  0.1404  0.0846
 1015YOPC   D3B13323   8.331   9.090   6.912 -0.0134 -0.0523  0.2666
 1015YOPC   C4B13324   8.404   8.781   7.300  0.1078 -0.2761 -0.4008
 1016YOPC   NC313325   6.177   4.712   5.465  0.2607 -0.2116  0.2605
 1016YOPC   PO413326   6.400   4.892   5.760  0.0100 -0.2925  0.1193
 1016YOPC   GL113327   6.585   5.162   6.084  0.4247 -0.0260  0.2001
 1016YOPC   GL213328   6.900   5.103   6.029 -0.0704  0.0957  0.1249
 1016YOPC   C1A13329   6.604   5.382   6.454  0.0310 -0.1633 -0.2578
 1016YOPC   D2A13330   6.639   5.447   6.949  0.0131 -0.2391  0.2968
 1016YOPC   C3A13331   6.882   5.249   7.399  0.0036 -0.1459 -0.1484
 1016YOPC   C4A13332   6.858   5.231   7.866 -0.0755  0.0395 -0.0892
 1016YOPC   C1B13333   7.035   5.123   6.494  0.4093  0.1384  0.1703
 1016YOPC   C2B13334   7.060   5.184   6.943 -0.0048  0.1160 -0.0099
 1016YOPC   D3B13335   7.136   4.815   7.226  0.0933 -0.0265  0.2331
 1016YOPC   C4B13336   7.071   4.543   7.458  0.0098  0.0539 -0.3592
 1017YOPC   NC313337   2.214   7.328   5.536  0.2644  0.2090 -0.0924
 1017YOPC   PO413338   1.849   6.942   5.517  0.0873 -0.2452  0.0983
 1017YOPC   GL113339   2.009   6.881   5.916  0.0234 -0.0840  0.0014
 1017YOPC   GL213340   1.898   6.599   6.061  0.0279  0.4915  0.0087
 1017YOPC   C1A13341   2.166   7.220   6.208  0.0735  0.0654 -0.1002
 1017YOPC   D2A13342   2.543   7.483   6.314 -0.3551  0.3141  0.0719
 1017YOPC   C3A13343   2.668   7.669   6.599 -0.1136  0.2230  0.2497
 1017YOPC   C4A13344   2.740   7.504   6.983 -0.0539  0.0240  0.2582
 1017YOPC   C1B13345   1.879   6.376   6.371  0.0401 -0.0551  0.0347
 1017YOPC   C2B13346   1.884   6.271   6.770 -0.1081 -0.2147 -0.2435
 1017YOPC   D3B13347   1.604   5.972   6.889 -0.0512  0.0815 -0.0809
 1017YOPC   C4B13348   1.621   5.681   7.276 -0.4268 -0.3666  0.0985
 1018YOPC   NC313349   3.307  17.776   6.322  0.1715 -0.1618 -0.1150
 1018YOPC   PO413350   2.832  17.887   6.177  0.2039  0.0027  0.0030
 1018YOPC   GL113351   2.843  17.692   6.547 -0.1463 -0.0520 -0.1033
 1018YOPC   GL213352   3.073  17.416   6.580  0.1809 -0.1143 -0.0922
 1018YOPC   C1A13353   2.756  17.682   7.005  0.0946 -0.1203 -0.3432
 1018YOPC   D2A13354   2.849  17.911   7.394 -0.0504 -0.0474 -0.0855
 1018YOPC   C3A13355   2.496  18.032   7.604 -0.0339  0.3345 -0.1870
 1018YOPC   C4A13356   2.226  18.293   7.868 -0.1412 -0.2442  0.2169
 1018YOPC   C1B13357   3.450  17.271   6.825 -0.0243 -0.1486 -0.0853
 1018YOPC   C2B13358   3.570  17.187   7.318  0.1552 -0.1092 -0.0980
 1018YOPC   D3B13359   3.494  17.516   7.645  0.0298 -0.1393  0.6119
 1018YOPC   C4B13360   3.301  17.514   7.954  0.1620  0.1443  0.3821
 1019YOPC   NC313361  16.655  10.522   5.831  0.1098  0.3604  0.1646
 1019YOPC   PO413362  16.354  10.311   5.585  0.0521  0.0423 -0.2489
 1019YOPC   GL113363  16.151  10.218   5.928  0.0488 -0.1735 -0.1744
 1019YOPC   GL213364  16.394  10.033   6.091  0.0466 -0.0347 -0.0031
 1019YOPC   C1A13365  15.957  10.062   6.361 -0.0780 -0.2016  0.1888
 1019YOPC   D2A13366  15.562   9.848   6.566 -0.1698 -0.0039  0.2077
 1019YOPC   C3A13367  15.584   9.440   6.717 -0.1318  0.4002  0.1340
 1019YOPC   C4A13368  15.319   9.201   7.013  0.3079 -0.4479 -0.0303
 1019YOPC   C1B13369  16.289  10.469   6.341  0.0784 -0.2516 -0.0082
 1019YOPC   C2B13370  16.232  10.972   6.431  0.0568  0.1279  0.1448
 1019YOPC   D3B13371  16.148  11.096   6.823  0.2884 -0.0775 -0.0500
 1019YOPC   C4B13372  15.909  11.283   7.177 -0.2714  0.1703 -0.1290
 1020YOPC   NC313373   1.413  13.886   6.216  0.2280 -0.1834  0.1227
 1020YOPC   PO413374   1.690  13.572   6.281  0.1263  0.0303  0.0528
 1020YOPC   GL113375   1.989  13.773   6.506 -0.1672 -0.1151  0.2727
 1020YOPC   GL213376   2.404  13.807   6.506 -0.0611  0.2500  0.1246
 1020YOPC   C1A13377   2.145  13.978   6.873  0.3129 -0.0274  0.1292
 1020YOPC   D2A13378   2.079  14.046   7.225  0.0859 -0.1944 -0.0477
 1020YOPC   C3A13379   2.208  14.175   7.620 -0.1129 -0.0374 -0.2184
 1020YOPC   C4A13380   2.275  14.286   8.043  0.2343 -0.1384  0.2922
 1020YOPC   C1B13381   2.471  13.565   6.891 -0.1363  0.1229  0.1370
 1020YOPC   C2B13382   2.363  13.385   7.312 -0.0524  0.0150 -0.1590
 1020YOPC   D3B13383   2.348  13.711   7.714  0.3430  0.2723 -0.0839
 1020YOPC   C4B13384   1.987  13.774   7.959  0.0450 -0.0834  0.2303
 1021YOPC   NC313385   0.370  11.056   6.008  0.1763  0.1571  0.1552
 1021YOPC   PO413386   0.010  11.256   6.065  0.0303  0.2445 -0.2266
 1021YOPC   GL113387  -0.084  11.277   6.496  0.1095 -0.0005  0.1290
 1021YOPC   GL213388  -0.241  11.030   6.613 -0.1198  0.0899  0.2445
 1021YOPC   C1A13389   0.192  11.303   6.799 -0.1423  0.0461  0.0530
 1021YOPC   D2A13390   0.210  11.530   7.157 -0.1544  0.0776  0.0191
 1021YOPC   C3A13391   0.379  11.798   7.301 -0.1511 -0.3096 -0.0371
 1021YOPC   C4A13392   0.401  12.230   7.497 -0.1825  0.1501  0.1934
 1021YOPC   C1B13393  -0.228  11.291   7.037 -0.2835  0.1342  0.1311
 1021YOPC   C2B13394  -0.190  11.647   7.457  0.3101 -0.1933 -0.2826
 1021YOPC   D3B13395  -0.641  11.683   7.647  0.2686 -0.4336 -0.4267
 1021YOPC   C4B13396  -1.020  11.736   7.477 -0.1408 -0.0189 -0.2369
 1022YOPC   NC313397  11.464  16.433   5.357 -0.1960  0.0552  0.0703
 1022YOPC   PO413398  11.801  16.133   5.433  0.0520 -0.3949  0.0674
 1022YOPC   GL113399  11.939  16.054   5.953  0.1916  0.1400  0.2238
 1022YOPC   GL213400  11.617  16.176   6.031 -0.2388 -0.1401 -0.1278
 1022YOPC   C1A13401  12.137  16.275   6.268  0.1804  0.3174 -0.1078
 1022YOPC   D2A13402  12.043  16.501   6.760  0.2548  0.0773  0.3194
 1022YOPC   C3A13403  12.001  16.813   6.958 -0.0344  0.0637  0.0334
 1022YOPC   C4A13404  11.834  17.019   7.366 -0.0709 -0.1222  0.1513
 1022YOPC   C1B13405  11.716  16.069   6.453  0.0442 -0.1208  0.2105
 1022YOPC   C2B13406  11.937  15.947   6.706 -0.1664 -0.0425  0.1720
 1022YOPC   D3B13407  11.755  15.999   7.097  0.0696 -0.0557  0.0508
 1022YOPC   C4B13408  11.755  15.885   7.467  0.1126 -0.0598 -0.1482
 1023YOPC   NC313409   3.483   5.820   5.401  0.0145 -0.1236  0.2056
 1023YOPC   PO413410   3.796   6.050   5.568  0.3750  0.0593 -0.1923
 1023YOPC   GL113411   3.784   5.963   6.029 -0.1716 -0.1937  0.0842
 1023YOPC   GL213412   3.961   5.615   6.205 -0.2339  0.3551  0.2255
 1023YOPC   C1A13413   3.892   6.098   6.520  0.0142 -0.3717  0.2419
 1023YOPC   D2A13414   4.026   6.338   6.761 -0.0203  0.0737 -0.2636
 1023YOPC   C3A13415   4.334   6.221   7.005  0.1594 -0.0958 -0.4664
 1023YOPC   C4A13416   4.744   6.141   7.100 -0.1664 -0.4631  0.2285
 1023YOPC   C1B13417   3.634   5.627   6.672 -0.0741  0.0647  0.2630
 1023YOPC   C2B13418   3.708   5.458   7.085  0.1867 -0.3133 -0.0054
 1023YOPC   D3B13419   3.903   5.531   7.477  0.0567 -0.0413 -0.2616
 1023YOPC   C4B13420   4.203   5.641   7.867 -0.0608 -0.0921  0.0509
 1024YOPC   NC313421   1.243   7.965   6.290  0.0388  0.2208 -0.0396
 1024YOPC   PO413422   0.813   7.768   6.251  0.0399 -0.0540 -0.2841
 1024YOPC   GL113423   0.783   7.922   6.682 -0.1066 -0.1075 -0.0882
 1024YOPC   GL213424   1.057   8.037   6.732 -0.1619  0.1664  0.0657
 1024YOPC   C1A13425   0.507   8.011   7.015 -0.1165 -0.2054  0.3448
 1024YOPC   D2A13426   0.272   7.702   7.252  0.1807 -0.1605 -0.3988
 1024YOPC   C3A13427   0.354   7.763   7.655  0.0288  0.0096  0.0214
 1024YOPC   C4A13428   0.144   7.655   8.017 -0.2936 -0.3107 -0.1895
 1024YOPC   C1B13429   1.026   7.914   7.105  0.1799  0.0154 -0.0070
 1024YOPC   C2B13430   1.317   7.954   7.514 -0.0888 -0.0530 -0.2859
 1024YOPC   D3B13431   1.188   8.128   7.850  0.1932  0.1554  0.1510
 1024YOPC   C4B13432   0.876   8.282   8.003  0.0499 -0.4235  0.1879
 1025YOPC   NC313433  12.290  14.633   5.176 -0.1610  0.1298 -0.1990
 1025YOPC   PO413434  12.444  14.316   5.482 -0.1365  0.2588 -0.1190
 1025YOPC   GL113435  12.552  14.038   5.791  0.1978 -0.1315  0.0176
 1025YOPC   GL213436  12.374  13.723   5.865  0.0882 -0.1501  0.1210
 1025YOPC   C1A13437  12.663  13.934   6.209  0.3638 -0.0166 -0.0446
 1025YOPC   D2A13438  12.941  14.086   6.517 -0.3266  0.0098  0.0036
 1025YOPC   C3A13439  13.443  14.117   6.644  0.2818 -0.0759  0.1859
 1025YOPC   C4A13440  13.663  14.003   7.057  0.0223  0.0287 -0.1038
 1025YOPC   C1B13441  12.194  13.714   6.252 -0.1366  0.2222 -0.1363
 1025YOPC   C2B13442  12.379  13.577   6.676 -0.2604 -0.0010  0.1608
 1025YOPC   D3B13443  12.737  13.804   6.960 -0.1006  0.1057  0.0776
 1025YOPC   C4B13444  13.179  13.840   7.048  0.1480  0.2962 -0.2847
 1026YOPC   NC313445   2.320   5.120   5.335 -0.0497 -0.2226 -0.1882
 1026YOPC   PO413446   2.218   5.584   5.333 -0.2557  0.0138 -0.1687
 1026YOPC   GL113447   2.244   5.563   5.920  0.1292  0.1027 -0.1363
 1026YOPC   GL213448   2.628   5.746   5.995  0.0130  0.1872  0.2112
 1026YOPC   C1A13449   2.292   5.645   6.417  0.1959 -0.0253  0.3807
 1026YOPC   D2A13450   2.458   5.713   6.755 -0.0242  0.1845  0.1834
 1026YOPC   C3A13451   2.294   5.919   7.119  0.1601  0.0067  0.1881
 1026YOPC   C4A13452   1.943   6.122   7.274  0.0150  0.1435 -0.0074
 1026YOPC   C1B13453   2.767   5.838   6.327  0.0504  0.0457 -0.1452
 1026YOPC   C2B13454   2.860   6.106   6.619  0.1133 -0.1420 -0.4741
 1026YOPC   D3B13455   2.775   6.102   7.083 -0.1762  0.0051 -0.3514
 1026YOPC   C4B13456   2.566   6.100   7.492 -0.2936 -0.0327  0.1592
 1027YOPC   NC313457  16.688   7.416   4.743 -0.0794 -0.0098  0.0834
 1027YOPC   PO413458  16.647   7.557   5.158 -0.0828 -0.0430 -0.1519
 1027YOPC   GL113459  16.416   7.667   5.551  0.0573  0.2425 -0.0462
 1027YOPC   GL213460  16.472   7.926   5.888  0.2412  0.1065  0.2140
 1027YOPC   C1A13461  16.041   7.666   5.954 -0.0476 -0.2661 -0.1063
 1027YOPC   D2A13462  15.726   7.800   6.276 -0.1473  0.1824  0.1442
 1027YOPC   C3A13463  15.796   7.876   6.707  0.0034  0.0479 -0.2021
 1027YOPC   C4A13464  15.811   7.891   7.128 -0.0061 -0.3905 -0.1750
 1027YOPC   C1B13465  16.636   8.101   6.342 -0.2294  0.1557  0.0225
 1027YOPC   C2B13466  16.727   8.241   6.731  0.0133 -0.0929 -0.0481
 1027YOPC   D3B13467  16.990   8.337   7.155  0.0612  0.0251 -0.0078
 1027YOPC   C4B13468  17.135   8.336   7.584 -0.0705 -0.4048 -0.1215
 1028YOPC   NC313469  15.636  16.566   5.242  0.1136  0.1479 -0.1751
 1028YOPC   PO413470  15.702  16.817   5.706 -0.1365  0.2684 -0.0310
 1028YOPC   GL113471  15.854  16.577   6.053  0.1846 -0.3652 -0.0146
 1028YOPC   GL213472  15.903  16.586   6.316  0.2979  0.0444  0.1258
 1028YOPC   C1A13473  16.210  16.208   5.987 -0.1405  0.0058 -0.0183
 1028YOPC   D2A13474  16.488  15.880   6.140  0.1676  0.2028 -0.1511
 1028YOPC   C3A13475  16.434  15.672   6.473  0.1710  0.2837  0.3924
 1028YOPC   C4A13476  16.652  15.477   6.762  0.1188  0.3289  0.2005
 1028YOPC   C1B13477  15.763  16.487   6.724 -0.1641  0.2791  0.2045
 1028YOPC   C2B13478  15.670  16.307   7.000  0.4029  0.0704 -0.0485
 1028YOPC   D3B13479  15.892  16.173   7.367  0.0377  0.2534  0.3802
 1028YOPC   C4B13480  15.955  16.242   7.788 -0.0881  0.1515  0.0752
 1029YOPC   NC313481  17.085  11.121   6.009  0.1802 -0.2663  0.1294
 1029YOPC   PO413482  16.638  10.927   6.093  0.0458  0.0803  0.0754
 1029YOPC   GL113483  16.810  11.115   6.434 -0.1197 -0.2053  0.2620
 1029YOPC   GL213484  17.126  11.375   6.504 -0.2922 -0.1020 -0.4812
 1029YOPC   C1A13485  16.747  11.119   6.895 -0.1426  0.1970  0.0937
 1029YOPC   D2A13486  16.525  11.049   7.305 -0.2306  0.1931  0.2642
 1029YOPC   C3A13487  16.341  10.821   7.579  0.3118  0.1431 -0.0405
 1029YOPC   C4A13488  16.202  10.748   7.956  0.1870  0.2082 -0.0051
 1029YOPC   C1B13489  17.377  11.592   6.906  0.0376 -0.1487 -0.1607
 1029YOPC   C2B13490  17.696  11.861   7.205 -0.0075  0.3848 -0.1362
 1029YOPC   D3B13491  17.781  12.163   7.514 -0.3279 -0.0390 -0.0656
 1029YOPC   C4B13492  17.718  12.171   7.949  0.2562  0.3663 -0.3282
 1030YOPC   NC313493   7.646  15.353   5.404  0.2154  0.1138  0.1056
 1030YOPC   PO413494   7.698  15.168   5.757  0.1910 -0.0109 -0.2133
 1030YOPC   GL113495   7.623  15.358   6.127 -0.1406 -0.2324 -0.0107
 1030YOPC   GL213496   7.623  15.610   6.126 -0.4840  0.1562  0.0750
 1030YOPC   C1A13497   7.508  15.341   6.616  0.1580  0.3462 -0.0607
 1030YOPC   D2A13498   7.512  15.284   7.033 -0.0870 -0.0084  0.0464
 1030YOPC   C3A13499   7.090  15.069   7.206  0.2764 -0.1099 -0.0814
 1030YOPC   C4A13500   6.674  15.144   7.298 -0.0880 -0.0212  0.1113
 1030YOPC   C1B13501   7.458  15.853   6.441 -0.0539  0.3627 -0.1982
 1030YOPC   C2B13502   7.464  16.083   6.788  0.0922 -0.4523 -0.0533
 1030YOPC   D3B13503   7.337  16.115   7.189 -0.1796 -0.1709  0.1319
 1030YOPC   C4B13504   7.264  16.318   7.609 -0.2575  0.0685  0.2532
 1031YOPC   NC313505  14.482   5.566   5.360  0.2362  0.0404 -0.0521
 1031YOPC   PO413506  14.181   5.486   5.010  0.1732 -0.0594  0.0573
 1031YOPC   GL113507  14.188   5.146   5.507 -0.1867  0.0883 -0.2222
 1031YOPC   GL213508  14.452   5.067   5.630  0.1005 -0.0302  0.2828
 1031YOPC   C1A13509  13.891   5.251   5.853 -0.2592 -0.0599 -0.0485
 1031YOPC   D2A13510  13.446   4.997   6.009  0.2177  0.3109  0.1902
 1031YOPC   C3A13511  13.591   5.165   6.264 -0.0143  0.1115 -0.0184
 1031YOPC   C4A13512  13.856   5.254   6.501  0.1639 -0.0118 -0.1131
 1031YOPC   C1B13513  14.432   4.940   6.017  0.0206  0.0260 -0.0137
 1031YOPC   C2B13514  14.731   4.869   6.256 -0.0117  0.0302 -0.0452
 1031YOPC   D3B13515  14.731   4.921   6.724  0.2071  0.1692 -0.0771
 1031YOPC   C4B13516  14.628   5.056   7.135  0.1004 -0.1282 -0.0668
 1032YOPC   NC313517   8.581   0.139   6.096  0.1394  0.1097  0.1585
 1032YOPC   PO413518   8.880   0.431   6.025 -0.1339  0.1219 -0.0991
 1032YOPC   GL113519   9.041   0.191   6.268  0.1174 -0.1490  0.1998
 1032YOPC   GL213520   9.156  -0.148   6.273  0.5176  0.3884  0.1019
 1032YOPC   C1A13521   9.086   0.157   6.694  0.1714  0.0202 -0.1374
 1032YOPC   D2A13522   9.190   0.023   6.995 -0.0059  0.1888  0.0059
 1032YOPC   C3A13523   9.179   0.201   7.385 -0.0956 -0.0876  0.0963
 1032YOPC   C4A13524   9.425   0.463   7.723 -0.2684 -0.1017  0.0418
 1032YOPC   C1B13525   9.226  -0.350   6.619 -0.1967  0.1183  0.0027
 1032YOPC   C2B13526   9.273  -0.485   7.061  0.1303  0.3230 -0.0026
 1032YOPC   D3B13527   9.560  -0.225   7.374  0.2685 -0.0926 -0.2294
 1032YOPC   C4B13528   9.786  -0.098   7.742  0.1521  0.2628  0.1159
 1033YOPC   NC313529   0.873   4.141   5.749 -0.2948 -0.0214 -0.0315
 1033YOPC   PO413530   0.457   4.085   5.838  0.1567 -0.1217 -0.2889
 1033YOPC   GL113531   0.250   3.821   6.162 -0.2004  0.3144  0.2515
 1033YOPC   GL213532   0.041   3.599   6.132 -0.1190  0.1552 -0.5252
 1033YOPC   C1A13533   0.479   3.603   6.471  0.2630  0.0978  0.0974
 1033YOPC   D2A13534   0.421   3.646   6.912  0.1729 -0.3096 -0.2699
 1033YOPC   C3A13535   0.250   3.809   7.312  0.0155 -0.2875 -0.1315
 1033YOPC   C4A13536   0.218   4.277   7.551  0.0543  0.5209  0.1990
 1033YOPC   C1B13537  -0.008   3.574   6.596 -0.4116 -0.0282 -0.2732
 1033YOPC   C2B13538  -0.049   3.477   6.997 -0.5843 -0.0975 -0.0630
 1033YOPC   D3B13539  -0.105   3.483   7.506  0.1803 -0.1693  0.1555
 1033YOPC   C4B13540  -0.158   3.440   7.865 -0.0530  0.1153  0.2493
 1034YOPC   NC313541  13.350  13.728   5.518  0.1876  0.0228 -0.2332
 1034YOPC   PO413542  13.510  13.300   5.704 -0.3215  0.0838  0.0021
 1034YOPC   GL113543  13.629  13.169   6.116 -0.2700  0.3270 -0.1064
 1034YOPC   GL213544  13.730  12.859   5.997  0.0677 -0.0415  0.0175
 1034YOPC   C1A13545  13.743  13.001   6.568  0.1854  0.1066 -0.0605
 1034YOPC   D2A13546  13.608  12.814   6.798 -0.2283  0.2009  0.1105
 1034YOPC   C3A13547  13.176  13.068   6.883 -0.0917 -0.1491 -0.1009
 1034YOPC   C4A13548  12.694  13.164   7.029 -0.1507 -0.1353  0.0853
 1034YOPC   C1B13549  14.085  12.962   6.204 -0.1193 -0.3609  0.2154
 1034YOPC   C2B13550  14.412  13.124   6.437  0.0234 -0.2598 -0.2105
 1034YOPC   D3B13551  14.185  13.173   6.797  0.1122  0.0098 -0.0743
 1034YOPC   C4B13552  13.906  13.199   7.097 -0.0975 -0.0982 -0.1566
 1035YOPC   NC313553   1.408   9.127   6.138  0.1890  0.1431  0.0459
 1035YOPC   PO413554   0.862   9.179   6.260  0.2847  0.1042 -0.0678
 1035YOPC   GL113555   1.052   9.106   6.539 -0.0071 -0.3142  0.1907
 1035YOPC   GL213556   1.367   8.993   6.636 -0.0573  0.2896 -0.0955
 1035YOPC   C1A13557   0.976   9.053   7.019  0.1169  0.2565 -0.2382
 1035YOPC   D2A13558   0.751   9.180   7.339  0.2810  0.3164 -0.0980
 1035YOPC   C3A13559   0.671   8.928   7.522  0.3056  0.1297 -0.3836
 1035YOPC   C4A13560   0.736   8.765   7.973  0.3402  0.1210  0.3248
 1035YOPC   C1B13561   1.414   8.802   6.932 -0.0879  0.1991  0.0163
 1035YOPC   C2B13562   1.496   8.812   7.372 -0.2300 -0.0236  0.1451
 1035YOPC   D3B13563   1.216   9.103   7.503  0.0548  0.0215  0.0231
 1035YOPC   C4B13564   0.988   9.228   7.856  0.0366  0.0099 -0.2293
 1036YOPC   NC313565   1.351   1.990   6.165  0.1459 -0.1329 -0.0789
 1036YOPC   PO413566   1.566   2.321   6.215 -0.2585  0.0026 -0.0154
 1036YOPC   GL113567   1.381   2.586   6.545  0.2395 -0.1014  0.2280
 1036YOPC   GL213568   1.129   2.704   6.332  0.2385  0.3087 -0.1662
 1036YOPC   C1A13569   1.540   2.538   6.949  0.1996  0.1392 -0.1693
 1036YOPC   D2A13570   1.437   2.458   7.381  0.2397 -0.1496  0.2226
 1036YOPC   C3A13571   1.226   2.686   7.659 -0.0034  0.0520 -0.1570
 1036YOPC   C4A13572   1.054   2.793   8.040 -0.2391 -0.2450  0.0227
 1036YOPC   C1B13573   0.969   2.985   6.694 -0.0207  0.0316  0.0798
 1036YOPC   C2B13574   0.931   3.297   6.990 -0.0506 -0.3177  0.0331
 1036YOPC   D3B13575   0.929   3.659   6.777 -0.0055  0.0077 -0.1884
 1036YOPC   C4B13576   0.950   3.802   6.358 -0.1544 -0.0348  0.2393
 1037YOPC   NC313577   4.524   7.274   5.072 -0.0184 -0.1520  0.0285
 1037YOPC   PO413578   4.609   7.165   5.468 -0.2331 -0.1976 -0.3773
 1037YOPC   GL113579   4.716   7.106   5.892  0.1271  0.0771  0.1478
 1037YOPC   GL213580   4.585   6.841   6.115 -0.0357  0.2829  0.1473
 1037YOPC   C1A13581   5.058   7.105   6.313 -0.1250 -0.3726 -0.0964
 1037YOPC   D2A13582   5.158   7.453   6.583  0.4325 -0.2059 -0.1973
 1037YOPC   C3A13583   5.368   7.301   7.058 -0.1916 -0.0053 -0.0090
 1037YOPC   C4A13584   5.690   7.490   7.185 -0.0853  0.1854 -0.2780
 1037YOPC   C1B13585   4.609   7.149   6.481 -0.0795  0.0227 -0.1168
 1037YOPC   C2B13586   4.864   7.062   6.776  0.1579 -0.0015  0.0482
 1037YOPC   D3B13587   4.844   7.336   7.125  0.1388  0.6042 -0.1606
 1037YOPC   C4B13588   5.083   7.307   7.563 -0.2334 -0.0103  0.1768
 1038YOPC   NC313589   1.551  15.888   6.588 -0.1332 -0.4698 -0.1984
 1038YOPC   PO413590   1.509  16.269   6.578  0.1042 -0.0619  0.0071
 1038YOPC   GL113591   1.136  16.403   6.806 -0.4207 -0.0416  0.1242
 1038YOPC   GL213592   1.009  16.669   6.722  0.0502  0.0215  0.0062
 1038YOPC   C1A13593   1.056  16.302   7.221 -0.0236 -0.4290 -0.2699
 1038YOPC   D2A13594   0.951  16.369   7.645 -0.2419 -0.2349 -0.0534
 1038YOPC   C3A13595   1.159  16.083   7.862  0.1617 -0.0229 -0.0097
 1038YOPC   C4A13596   1.085  15.765   8.257  0.0160  0.0643  0.0551
 1038YOPC   C1B13597   1.031  16.768   7.193 -0.3418 -0.0466 -0.2251
 1038YOPC   C2B13598   1.308  16.693   7.486  0.1915  0.0128 -0.0078
 1038YOPC   D3B13599   1.386  17.055   7.809 -0.0387  0.0547  0.1545
 1038YOPC   C4B13600   1.631  17.376   8.075  0.0717 -0.2485  0.0401
 1039YOPC   NC313601   3.334  11.470   5.221  0.2549  0.1613 -0.1710
 1039YOPC   PO413602   3.033  11.317   5.603  0.2798  0.2164 -0.0555
 1039YOPC   GL113603   3.167  11.496   6.008 -0.0189  0.1408 -0.0839
 1039YOPC   GL213604   2.969  11.689   6.277 -0.2345 -0.2224  0.0350
 1039YOPC   C1A13605   3.356  11.380   6.373 -0.0600  0.1481 -0.0146
 1039YOPC   D2A13606   3.205  11.217   6.693  0.2607  0.1925 -0.0895
 1039YOPC   C3A13607   2.935  11.441   6.876 -0.3453  0.1348 -0.1465
 1039YOPC   C4A13608   3.088  11.625   7.256 -0.1362  0.1126  0.0214
 1039YOPC   C1B13609   2.755  11.289   6.430 -0.0317  0.1436 -0.1153
 1039YOPC   C2B13610   2.926  10.911   6.259  0.2388  0.1380 -0.0929
 1039YOPC   D3B13611   3.226  10.632   6.345  0.1151  0.1008  0.1474
 1039YOPC   C4B13612   3.492  10.398   6.580 -0.1492  0.0322  0.0084
 1040YOPC   NC313613  15.937  15.563   5.520 -0.2090 -0.1767  0.0336
 1040YOPC   PO413614  15.617  15.972   5.427  0.1159  0.1406  0.0325
 1040YOPC   GL113615  15.780  15.902   5.841 -0.1048 -0.0931 -0.1397
 1040YOPC   GL213616  15.521  15.868   6.066  0.1158 -0.0959  0.0325
 1040YOPC   C1A13617  15.997  15.828   6.349  0.2517 -0.1304  0.1096
 1040YOPC   D2A13618  16.218  16.145   6.583 -0.0768 -0.2255 -0.0145
 1040YOPC   C3A13619  16.269  16.385   7.016 -0.3068  0.0109  0.2288
 1040YOPC   C4A13620  16.328  16.503   7.464 -0.0128  0.0875  0.0047
 1040YOPC   C1B13621  15.629  16.139   6.295 -0.1514 -0.1526 -0.3457
 1040YOPC   C2B13622  15.399  16.579   6.386  0.3675  0.1781  0.1904
 1040YOPC   D3B13623  15.063  16.571   6.647  0.1731  0.0310  0.0598
 1040YOPC   C4B13624  14.867  16.354   6.760 -0.1323  0.1276 -0.0152
 1041YOPC   NC313625  13.998   3.982   5.731  0.1526  0.2443  0.2776
 1041YOPC   PO413626  13.641   3.823   5.587 -0.1379 -0.1692  0.1371
 1041YOPC   GL113627  13.649   3.954   6.063  0.3230 -0.1488 -0.2995
 1041YOPC   GL213628  13.566   3.639   6.313 -0.2325 -0.0116 -0.1945
 1041YOPC   C1A13629  13.602   4.289   6.328 -0.2991 -0.3917  0.0194
 1041YOPC   D2A13630  13.836   4.665   6.550  0.0225 -0.1213 -0.0070
 1041YOPC   C3A13631  13.631   4.914   6.776  0.0966  0.0782 -0.0544
 1041YOPC   C4A13632  13.414   4.979   7.137 -0.0395  0.0338 -0.1391
 1041YOPC   C1B13633  13.679   3.740   6.811  0.3263  0.1846  0.0322
 1041YOPC   C2B13634  13.892   3.854   7.202  0.2623  0.1796 -0.1433
 1041YOPC   D3B13635  13.790   4.178   7.414 -0.0900  0.0017  0.2315
 1041YOPC   C4B13636  13.777   4.496   7.755  0.4148  0.0261 -0.2086
 1042YOPC   NC313637  12.801  16.660   5.769 -0.1813  0.1477 -0.2467
 1042YOPC   PO413638  12.731  16.176   5.786  0.5248 -0.3751 -0.2532
 1042YOPC   GL113639  12.847  16.000   6.259  0.1389 -0.2656  0.4196
 1042YOPC   GL213640  12.776  15.644   6.330  0.0146 -0.0918 -0.1461
 1042YOPC   C1A13641  12.966  15.986   6.678  0.3478  0.0763 -0.1786
 1042YOPC   D2A13642  13.207  15.988   7.024 -0.2232  0.0986  0.0403
 1042YOPC   C3A13643  13.021  15.996   7.434 -0.1257 -0.0129  0.0187
 1042YOPC   C4A13644  13.119  15.710   7.791 -0.1692 -0.2654  0.3578
 1042YOPC   C1B13645  12.702  15.485   6.666  0.1029 -0.0100 -0.0630
 1042YOPC   C2B13646  12.719  15.682   7.133 -0.0164 -0.0467  0.0503
 1042YOPC   D3B13647  12.628  15.520   7.555  0.0504  0.1389 -0.0350
 1042YOPC   C4B13648  12.820  15.351   7.941  0.0196  0.2311 -0.1324
 1043YOPC   NC313649   2.840   6.053   5.506  0.3654  0.0206  0.0393
 1043YOPC   PO413650   2.670   5.501   5.509  0.1213 -0.0558  0.0828
 1043YOPC   GL113651   2.955   5.385   5.948 -0.1955 -0.0975 -0.2711
 1043YOPC   GL213652   2.995   5.063   6.120  0.0061 -0.0420 -0.2693
 1043YOPC   C1A13653   3.230   5.606   6.283  0.0393 -0.1307 -0.0398
 1043YOPC   D2A13654   3.372   6.072   6.403 -0.1744  0.4285  0.2399
 1043YOPC   C3A13655   3.294   6.230   6.803 -0.2352  0.0471  0.1268
 1043YOPC   C4A13656   3.244   6.481   7.085  0.0074  0.2013  0.2877
 1043YOPC   C1B13657   3.248   4.999   6.511 -0.0167  0.0334  0.0362
 1043YOPC   C2B13658   3.219   4.901   7.005  0.0274 -0.1094 -0.0417
 1043YOPC   D3B13659   3.263   5.215   7.199 -0.3128  0.1094  0.1035
 1043YOPC   C4B13660   2.993   5.264   7.340 -0.2401  0.1674  0.2044
 1044YOPC   NC313661  17.599  16.534   5.637 -0.0394 -0.0503  0.0099
 1044YOPC   PO413662  17.426  16.116   5.800 -0.4631  0.0165 -0.0275
 1044YOPC   GL113663  17.334  16.131   6.206  0.1730 -0.0223  0.0805
 1044YOPC   GL213664  17.493  15.853   6.265  0.0733  0.0816  0.2683
 1044YOPC   C1A13665  17.220  16.079   6.641  0.0250 -0.1832  0.0187
 1044YOPC   D2A13666  17.060  15.863   6.949  0.1510  0.0373 -0.0082
 1044YOPC   C3A13667  17.187  15.767   7.387  0.0055  0.3220 -0.0901
 1044YOPC   C4A13668  17.089  15.590   7.709  0.1927  0.0166 -0.2090
 1044YOPC   C1B13669  17.615  15.716   6.622  0.0289  0.3991 -0.0438
 1044YOPC   C2B13670  17.540  15.767   6.936 -0.0362  0.0629 -0.0845
 1044YOPC   D3B13671  17.717  15.662   7.258  0.0012 -0.1885  0.2579
 1044YOPC   C4B13672  17.669  15.680   7.668 -0.1669 -0.1280 -0.0278
 1045YOPC   NC313673   7.185   4.373   5.387  0.2049 -0.2678  0.0960
 1045YOPC   PO413674   6.927   4.080   5.719 -0.2221  0.1960 -0.0155
 1045YOPC   GL113675   6.843   4.200   6.182  0.2025 -0.2701 -0.1711
 1045YOPC   GL213676   6.815   3.933   6.382  0.0175  0.0903  0.0117
 1045YOPC   C1A13677   7.096   4.400   6.476 -0.5109 -0.1002 -0.0846
 1045YOPC   D2A13678   7.181   4.376   6.952  0.1409 -0.3792  0.3896
 1045YOPC   C3A13679   6.872   4.212   7.175 -0.0174  0.1673  0.1256
 1045YOPC   C4A13680   6.718   4.210   7.589 -0.0226 -0.3444  0.2168
 1045YOPC   C1B13681   6.719   4.057   6.679  0.1343  0.1292 -0.3927
 1045YOPC   C2B13682   6.318   4.323   6.905 -0.1644 -0.1377 -0.0889
 1045YOPC   D3B13683   6.306   4.419   7.339 -0.0507  0.2604 -0.0240
 1045YOPC   C4B13684   6.228   4.493   7.776  0.1860 -0.2236 -0.1331
 1046YOPC   NC313685  12.741   2.173   5.774  0.2276 -0.0970  0.0282
 1046YOPC   PO413686  12.490   1.777   5.755  0.1003 -0.1948  0.2888
 1046YOPC   GL113687  12.430   1.768   6.076  0.0211 -0.0417  0.0197
 1046YOPC   GL213688  12.619   1.990   6.311  0.0473 -0.1636  0.0602
 1046YOPC   C1A13689  12.116   1.704   6.377 -0.0117 -0.0603 -0.1627
 1046YOPC   D2A13690  11.984   1.603   6.660 -0.0487  0.2115  0.0261
 1046YOPC   C3A13691  12.024   1.556   7.054  0.1490 -0.0249  0.2066
 1046YOPC   C4A13692  12.361   1.366   7.355  0.0285 -0.1852  0.4618
 1046YOPC   C1B13693  12.469   1.997   6.705  0.0495  0.0063 -0.1811
 1046YOPC   C2B13694  12.414   1.869   7.103 -0.1959 -0.0570  0.0823
 1046YOPC   D3B13695  12.558   2.036   7.386  0.1169  0.1005 -0.1091
 1046YOPC   C4B13696  12.785   2.061   7.751 -0.3281 -0.2956 -0.1203
 1047YOPC   NC313697  10.498   9.366   4.938 -0.0883 -0.4666 -0.3286
 1047YOPC   PO413698  10.697   9.250   5.273  0.1174 -0.3004 -0.1363
 1047YOPC   GL113699  10.609   9.325   5.724 -0.0461  0.2916 -0.0264
 1047YOPC   GL213700  10.367   9.475   5.704 -0.2524 -0.2271 -0.0689
 1047YOPC   C1A13701  10.282   9.231   6.114  0.2495  0.2880 -0.1796
 1047YOPC   D2A13702   9.890   9.014   6.133  0.1175  0.0115 -0.0772
 1047YOPC   C3A13703   9.728   8.962   6.564 -0.1901  0.1580  0.0504
 1047YOPC   C4A13704   9.872   8.891   6.963  0.0197 -0.1574  0.1517
 1047YOPC   C1B13705  10.460   9.685   6.034 -0.2389  0.1417 -0.0808
 1047YOPC   C2B13706  10.488   9.566   6.441 -0.0345  0.0967  0.3044
 1047YOPC   D3B13707  10.554   9.846   6.785  0.1860  0.0066  0.1444
 1047YOPC   C4B13708  10.556  10.128   7.101 -0.1462 -0.1955  0.0389
 1048YOPC   NC313709  12.881  11.131   5.198  0.1169  0.1906  0.1099
 1048YOPC   PO413710  12.926  10.934   5.608  0.0439 -0.4315  0.2238
 1048YOPC   GL113711  12.831  10.984   6.009  0.2196  0.0436 -0.4081
 1048YOPC   GL213712  12.468  10.962   6.059  0.2132 -0.0598 -0.0182
 1048YOPC   C1A13713  13.001  10.766   6.527  0.0715 -0.1208 -0.0128
 1048YOPC   D2A13714  13.153  10.599   6.866  0.0597  0.0818 -0.0640
 1048YOPC   C3A13715  12.918  10.343   7.021 -0.0137 -0.3349  0.0190
 1048YOPC   C4A13716  12.890  10.062   7.392 -0.0280 -0.2626  0.0335
 1048YOPC   C1B13717  12.561  10.919   6.564 -0.1331  0.0545 -0.0288
 1048YOPC   C2B13718  12.761  10.835   7.028  0.1284 -0.1626 -0.0137
 1048YOPC   D3B13719  12.945  10.771   7.327  0.0694 -0.0658  0.2095
 1048YOPC   C4B13720  12.925  10.512   7.697 -0.1459 -0.0775 -0.1616
 1049YOPC   NC313721   4.073   0.941   5.959 -0.1594 -0.1037  0.0219
 1049YOPC   PO413722   4.509   1.204   5.981 -0.0876  0.0553 -0.1756
 1049YOPC   GL113723   4.552   1.254   6.478 -0.3432  0.0242  0.1870
 1049YOPC   GL213724   4.684   0.979   6.673 -0.1733 -0.1599  0.2230
 1049YOPC   C1A13725   4.552   1.463   6.846 -0.1028 -0.0072  0.6848
 1049YOPC   D2A13726   4.675   1.510   7.311 -0.0777 -0.3610  0.1600
 1049YOPC   C3A13727   5.074   1.600   7.543  0.0925 -0.1220 -0.0489
 1049YOPC   C4A13728   5.260   1.466   7.847  0.2016 -0.0085  0.0064
 1049YOPC   C1B13729   4.670   0.949   7.152  0.1935 -0.3754  0.2612
 1049YOPC   C2B13730   4.547   1.089   7.630  0.1076  0.0723  0.2405
 1049YOPC   D3B13731   4.745   1.317   7.859  0.0179 -0.0440  0.3554
 1049YOPC   C4B13732   4.906   1.830   7.942  0.0516  0.0982  0.0478
 1050YOPC   NC313733  12.829   1.332   5.680 -0.0086  0.0313 -0.1312
 1050YOPC   PO413734  12.946   0.883   5.703  0.0256  0.0454 -0.1539
 1050YOPC   GL113735  12.745   1.033   6.094  0.0480  0.1451 -0.1710
 1050YOPC   GL213736  12.615   1.297   6.144  0.0720 -0.1621 -0.1358
 1050YOPC   C1A13737  12.519   0.879   6.390  0.0001 -0.0032 -0.0015
 1050YOPC   D2A13738  12.627   1.014   6.742 -0.1735 -0.0499  0.0231
 1050YOPC   C3A13739  12.411   0.918   6.989  0.1781 -0.0132  0.2222
 1050YOPC   C4A13740  12.313   0.682   7.357  0.1444 -0.0224  0.0752
 1050YOPC   C1B13741  12.610   1.525   6.493  0.2514  0.0116 -0.2124
 1050YOPC   C2B13742  12.648   1.485   6.919 -0.1232  0.2077  0.1877
 1050YOPC   D3B13743  12.781   1.199   7.202 -0.0595 -0.0242 -0.0827
 1050YOPC   C4B13744  12.710   0.853   7.485  0.0704  0.1783 -0.0632
 1051YOPC   NC313745   0.430  13.069   6.080 -0.1001  0.0027  0.0739
 1051YOPC   PO413746   0.611  12.729   5.859 -0.0137 -0.1837  0.0930
 1051YOPC   GL113747   0.411  12.613   6.248 -0.0250 -0.1091  0.1000
 1051YOPC   GL213748   0.559  12.876   6.530 -0.3964 -0.1720 -0.2974
 1051YOPC   C1A13749   0.367  12.433   6.619 -0.0809  0.3052 -0.0162
 1051YOPC   D2A13750   0.078  12.303   6.860 -0.0489 -0.2126 -0.1514
 1051YOPC   C3A13751  -0.270  12.488   6.814  0.0790 -0.1646 -0.2998
 1051YOPC   C4A13752  -0.590  12.910   6.708  0.1854  0.2885  0.0880
 1051YOPC   C1B13753   0.824  12.589   6.816  0.2836 -0.3580  0.1395
 1051YOPC   C2B13754   1.099  12.392   7.051  0.1930  0.0594  0.1448
 1051YOPC   D3B13755   0.880  12.297   7.400 -0.1983 -0.0300 -0.0602
 1051YOPC   C4B13756   1.125  12.122   7.797 -0.2086  0.3845  0.0749
 1052YOPC   NC313757  15.810   5.268   5.498  0.2387 -0.0431 -0.0383
 1052YOPC   PO413758  15.393   5.168   5.526 -0.1972 -0.1886 -0.2521
 1052YOPC   GL113759  15.026   5.193   5.929  0.1876 -0.0981 -0.0196
 1052YOPC   GL213760  14.797   5.379   5.836  0.2638  0.0748  0.0060
 1052YOPC   C1A13761  15.023   5.318   6.424  0.1538  0.1861  0.0019
 1052YOPC   D2A13762  14.986   5.642   6.653 -0.1127  0.2914 -0.4513
 1052YOPC   C3A13763  14.926   5.559   7.176  0.2586 -0.0678  0.0791
 1052YOPC   C4A13764  14.892   5.804   7.527 -0.1167  0.1809  0.2582
 1052YOPC   C1B13765  14.798   5.674   6.074  0.0293 -0.1535 -0.0425
 1052YOPC   C2B13766  14.938   6.086   6.228 -0.2779  0.2378  0.0369
 1052YOPC   D3B13767  15.192   6.022   6.626 -0.1899 -0.4068 -0.0311
 1052YOPC   C4B13768  15.315   6.127   6.997 -0.0305 -0.0778  0.1386
 1053YOPC   NC313769   4.828  11.967   4.919 -0.0728  0.1834  0.0045
 1053YOPC   PO413770   5.129  11.872   5.314  0.0657  0.2529 -0.2918
 1053YOPC   GL113771   5.013  11.603   5.732 -0.2888 -0.2915 -0.1656
 1053YOPC   GL213772   5.073  11.752   6.080 -0.1105  0.1101 -0.0424
 1053YOPC   C1A13773   4.721  11.325   5.838  0.0785  0.0161 -0.0943
 1053YOPC   D2A13774   4.614  10.922   6.133 -0.1519 -0.0947  0.2730
 1053YOPC   C3A13775   4.776  11.024   6.494 -0.1611 -0.1102  0.1333
 1053YOPC   C4A13776   4.751  11.342   6.857 -0.0644  0.1887 -0.0512
 1053YOPC   C1B13777   5.162  11.512   6.471  0.2578 -0.1040  0.2262
 1053YOPC   C2B13778   5.293  11.484   6.870  0.0389 -0.0216 -0.1136
 1053YOPC   D3B13779   5.401  11.561   7.318  0.2428 -0.1566  0.1600
 1053YOPC   C4B13780   5.349  11.742   7.709 -0.0121 -0.2724 -0.1948
 1054YOPC   NC313781   6.318  16.699   5.529 -0.0949 -0.1046  0.0555
 1054YOPC   PO413782   6.244  17.119   5.805 -0.0118  0.0116 -0.0538
 1054YOPC   GL113783   6.002  17.030   6.222 -0.0151  0.0504 -0.0600
 1054YOPC   GL213784   6.284  16.837   6.523  0.2909 -0.0525 -0.0386
 1054YOPC   C1A13785   5.836  17.071   6.680  0.0098  0.1244 -0.1420
 1054YOPC   D2A13786   5.620  17.026   7.137  0.1032  0.3497 -0.0864
 1054YOPC   C3A13787   5.745  17.073   7.578  0.0277 -0.1266  0.0325
 1054YOPC   C4A13788   5.721  16.859   8.012 -0.2760  0.0037 -0.0982
 1054YOPC   C1B13789   6.081  16.670   6.929  0.3887  0.1822  0.0263
 1054YOPC   C2B13790   6.089  16.787   7.392 -0.2104 -0.0174 -0.4408
 1054YOPC   D3B13791   6.028  16.543   7.714  0.1077 -0.1231  0.2170
 1054YOPC   C4B13792   5.941  16.118   7.860 -0.0873  0.2412  0.0150
 1055YOPC   NC313793   5.528   6.408   6.078  0.1452  0.0385  0.0669
 1055YOPC   PO413794   5.203   6.173   5.762  0.3111 -0.2807 -0.0979
 1055YOPC   GL113795   4.953   6.184   6.051 -0.1248  0.2150 -0.1934
 1055YOPC   GL213796   4.918   6.455   6.176 -0.0841  0.0932 -0.0539
 1055YOPC   C1A13797   4.588   6.001   6.175 -0.1735 -0.2140  0.3650
 1055YOPC   D2A13798   4.411   5.943   6.587  0.1455 -0.3812  0.0557
 1055YOPC   C3A13799   4.648   5.710   6.909 -0.0683  0.0448  0.1426
 1055YOPC   C4A13800   4.525   5.438   7.359  0.2991  0.3775  0.2546
 1055YOPC   C1B13801   4.975   6.684   6.500  0.1895  0.2768 -0.0452
 1055YOPC   C2B13802   4.737   6.611   6.891 -0.1407 -0.0774  0.2250
 1055YOPC   D3B13803   4.769   6.734   7.221  0.0516  0.0004  0.0952
 1055YOPC   C4B13804   4.549   6.500   7.555  0.1336  0.0605 -0.2090
 1056YOPC   NC313805   5.491   3.323   5.605  0.1336  0.3464 -0.0597
 1056YOPC   PO413806   5.762   3.113   5.961  0.2531 -0.1321  0.1513
 1056YOPC   GL113807   5.929   3.130   6.384  0.1263  0.1095  0.1859
 1056YOPC   GL213808   6.068   2.844   6.548 -0.0317  0.0885  0.0866
 1056YOPC   C1A13809   5.944   3.416   6.673 -0.1638 -0.0610  0.0393
 1056YOPC   D2A13810   5.619   3.706   6.818 -0.1895  0.3451  0.5216
 1056YOPC   C3A13811   5.634   4.011   7.168  0.1786 -0.1573  0.3523
 1056YOPC   C4A13812   5.826   4.221   7.564  0.0923 -0.1390 -0.0363
 1056YOPC   C1B13813   5.926   2.932   6.898 -0.3186 -0.0425 -0.1215
 1056YOPC   C2B13814   6.076   3.016   7.376  0.3863  0.0776  0.1404
 1056YOPC   D3B13815   6.109   2.720   7.675 -0.1624  0.0527 -0.1324
 1056YOPC   C4B13816   6.151   2.631   8.132 -0.0747  0.2479 -0.2127
 1057YOPC   NC313817   2.533   9.805   5.907 -0.2660  0.3843 -0.1090
 1057YOPC   PO413818   2.425  10.147   5.859 -0.1702 -0.1927 -0.2692
 1057YOPC   GL113819   2.438  10.161   6.265  0.2738 -0.1251  0.2210
 1057YOPC   GL213820   2.752  10.271   6.386 -0.0152 -0.0844 -0.2473
 1057YOPC   C1A13821   2.332  10.360   6.687  0.6295 -0.1938  0.0780
 1057YOPC   D2A13822   2.551  10.462   7.091  0.1363  0.3777 -0.0180
 1057YOPC   C3A13823   2.608  10.676   7.459  0.0603  0.2873 -0.0544
 1057YOPC   C4A13824   2.722  10.669   7.850 -0.1364  0.2240 -0.0245
 1057YOPC   C1B13825   2.939  10.345   6.745  0.2578 -0.0195  0.1479
 1057YOPC   C2B13826   3.003  10.355   7.272 -0.1152  0.1049  0.0368
 1057YOPC   D3B13827   2.831  10.256   7.568  0.0757  0.0471 -0.3023
 1057YOPC   C4B13828   2.634  10.150   8.004 -0.0282 -0.0705  0.1479
 1058YOPC   NC313829  17.321  17.418   5.621 -0.2108 -0.1012 -0.2838
 1058YOPC   PO413830  16.994  17.319   6.036  0.3081  0.0010 -0.0465
 1058YOPC   GL113831  16.875  17.309   6.470 -0.1517  0.3642 -0.1295
 1058YOPC   GL213832  16.609  17.118   6.445  0.1414  0.1641 -0.0201
 1058YOPC   C1A13833  16.783  17.165   6.916 -0.1950 -0.2328  0.0428
 1058YOPC   D2A13834  16.515  16.878   7.092 -0.0597 -0.1171 -0.0083
 1058YOPC   C3A13835  16.432  17.021   7.553  0.1564  0.0844 -0.3437
 1058YOPC   C4A13836  16.291  17.141   8.004  0.1397  0.2514  0.1767
 1058YOPC   C1B13837  16.540  17.607   6.690  0.1576  0.0216 -0.2154
 1058YOPC   C2B13838  16.407  17.415   7.085 -0.0998  0.0386  0.3643
 1058YOPC   D3B13839  16.603  17.466   7.486  0.0652  0.1398  0.0785
 1058YOPC   C4B13840  16.808  17.626   7.888  0.0436  0.3203  0.0017
 1059YOPC   NC313841   3.279   1.393   6.004  0.2565  0.0024 -0.1530
 1059YOPC   PO413842   3.643   1.220   6.147  0.0852  0.1794 -0.2924
 1059YOPC   GL113843   3.686   0.799   6.305  0.1830 -0.0387 -0.2376
 1059YOPC   GL213844   3.794   0.588   6.394 -0.0809  0.0113 -0.1888
 1059YOPC   C1A13845   3.349   0.712   6.657 -0.3671 -0.0815 -0.1004
 1059YOPC   D2A13846   3.096   0.487   6.920 -0.2981  0.2020  0.1113
 1059YOPC   C3A13847   3.199   0.613   7.343  0.0341  0.1162 -0.0625
 1059YOPC   C4A13848   3.045   0.665   7.721  0.2857 -0.4046 -0.0038
 1059YOPC   C1B13849   3.824   0.682   6.831 -0.1002 -0.1072  0.1137
 1059YOPC   C2B13850   3.693   0.853   7.175 -0.1151 -0.0562  0.2456
 1059YOPC   D3B13851   3.682   1.254   7.159 -0.0633  0.4197 -0.0319
 1059YOPC   C4B13852   3.952   1.609   7.021  0.0151 -0.0358  0.1187
 1060YOPC   NC313853   2.059   2.468   6.096  0.2809 -0.2872 -0.1078
 1060YOPC   PO413854   2.500   2.450   6.195 -0.1808  0.1160  0.1540
 1060YOPC   GL113855   2.386   2.452   6.677 -0.3692 -0.0822  0.0010
 1060YOPC   GL213856   2.330   2.158   6.916 -0.0039  0.0341  0.3820
 1060YOPC   C1A13857   2.441   2.620   7.059  0.1962 -0.0857 -0.0520
 1060YOPC   D2A13858   2.660   2.587   7.431  0.2028  0.0423 -0.2666
 1060YOPC   C3A13859   2.560   2.932   7.735  0.0996 -0.1547  0.0765
 1060YOPC   C4A13860   2.608   3.233   8.012 -0.2141  0.1001 -0.0544
 1060YOPC   C1B13861   2.496   2.102   7.324 -0.1042 -0.2197 -0.2028
 1060YOPC   C2B13862   2.797   2.175   7.641 -0.2351 -0.2324  0.1223
 1060YOPC   D3B13863   2.811   2.417   7.999  0.0484  0.1351 -0.0451
 1060YOPC   C4B13864   2.532   2.754   8.261  0.2763  0.3336 -0.1520
 1061YOPC   NC313865   7.412   7.246   5.252 -0.0788 -0.2091  0.2686
 1061YOPC   PO413866   7.625   7.612   5.620  0.0160 -0.0143  0.1268
 1061YOPC   GL113867   7.645   7.747   6.014 -0.2187  0.1204  0.0915
 1061YOPC   GL213868   7.843   7.628   6.310  0.5010 -0.0533 -0.3514
 1061YOPC   C1A13869   7.458   7.950   6.372  0.0746  0.1683  0.1440
 1061YOPC   D2A13870   7.511   8.142   6.746  0.0160  0.0144 -0.1455
 1061YOPC   C3A13871   7.388   8.036   7.268 -0.3449  0.0035 -0.0390
 1061YOPC   C4A13872   7.014   8.220   7.486  0.3117 -0.0340 -0.1036
 1061YOPC   C1B13873   7.767   7.649   6.704 -0.3870  0.0340  0.1320
 1061YOPC   C2B13874   7.709   7.765   7.015 -0.0450  0.0620 -0.0472
 1061YOPC   D3B13875   7.689   7.599   7.412 -0.0940 -0.0441  0.3855
 1061YOPC   C4B13876   7.502   7.398   7.642  0.1635  0.1196  0.0142
 1062YOPC   NC313877  10.285  12.115   5.926  0.3369  0.1522 -0.0232
 1062YOPC   PO413878  10.563  12.447   5.873  0.0318  0.0675 -0.2757
 1062YOPC   GL113879  10.795  12.524   6.315  0.2187  0.1194  0.0140
 1062YOPC   GL213880  10.696  12.824   6.502  0.2265 -0.1723 -0.0415
 1062YOPC   C1A13881  11.022  12.435   6.707 -0.2452  0.4919  0.2158
 1062YOPC   D2A13882  10.946  12.528   7.221  0.1259 -0.0105 -0.0842
 1062YOPC   C3A13883  10.683  12.734   7.601 -0.0608  0.4024 -0.0337
 1062YOPC   C4A13884  10.647  13.164   7.799 -0.1740 -0.2216  0.0317
 1062YOPC   C1B13885  10.638  12.882   7.005  0.1794  0.1823 -0.0831
 1062YOPC   C2B13886  10.431  13.125   7.267  0.1376  0.1696 -0.6101
 1062YOPC   D3B13887  10.449  13.473   7.404  0.0719  0.0986 -0.0017
 1062YOPC   C4B13888  10.674  13.795   7.565 -0.3179  0.2246 -0.0396
 1063YOPC   NC313889  11.009   5.622   5.759 -0.3982  0.0662  0.0454
 1063YOPC   PO413890  10.581   5.481   5.892 -0.0697  0.2464  0.1225
 1063YOPC   GL113891  10.551   5.156   6.258 -0.0387 -0.2180  0.0389
 1063YOPC   GL213892  10.782   4.995   6.153  0.0624 -0.5137  0.0513
 1063YOPC   C1A13893  10.538   5.283   6.716 -0.0800  0.0702  0.1163
 1063YOPC   D2A13894  10.622   5.292   7.201  0.2160  0.0908  0.1833
 1063YOPC   C3A13895  11.031   5.052   7.387 -0.0543 -0.2295 -0.1968
 1063YOPC   C4A13896  11.239   5.136   7.667 -0.0210  0.4225 -0.1410
 1063YOPC   C1B13897  10.956   4.938   6.490  0.1734 -0.1504 -0.1948
 1063YOPC   C2B13898  10.966   5.080   6.899 -0.2238 -0.1429 -0.0061
 1063YOPC   D3B13899  10.891   4.660   7.173  0.1228  0.0981 -0.4609
 1063YOPC   C4B13900  10.733   4.450   7.571  0.0265  0.0529 -0.0418
 1064YOPC   NC313901  17.595  16.995   6.334  0.5842  0.1432 -0.1105
 1064YOPC   PO413902  17.638  16.647   6.136 -0.1881  0.0698  0.0130
 1064YOPC   GL113903  17.305  16.562   6.502 -0.1596  0.1270  0.0969
 1064YOPC   GL213904  17.286  16.802   6.615 -0.0923 -0.1307 -0.1269
 1064YOPC   C1A13905  17.443  16.429   6.869 -0.0845 -0.1157  0.0291
 1064YOPC   D2A13906  17.409  16.265   7.233  0.0916 -0.0494  0.1053
 1064YOPC   C3A13907  17.239  16.369   7.621 -0.1857 -0.1564  0.0318
 1064YOPC   C4A13908  16.954  16.319   8.038  0.3640  0.2603  0.3192
 1064YOPC   C1B13909  17.222  16.833   7.070  0.1614  0.0007 -0.4822
 1064YOPC   C2B13910  16.903  16.901   7.400 -0.3705  0.1401  0.1719
 1064YOPC   D3B13911  16.745  16.637   7.695  0.3389  0.2368  0.2484
 1064YOPC   C4B13912  16.400  16.660   7.968  0.2081  0.2000  0.2973
 1065YOPC   NC313913   4.889   2.855   6.188 -0.2169  0.2217 -0.2043
 1065YOPC   PO413914   4.414   2.823   6.089  0.3419 -0.3133  0.1662
 1065YOPC   GL113915   4.600   2.574   6.488 -0.0137  0.0959  0.2023
 1065YOPC   GL213916   4.247   2.496   6.593  0.4842 -0.3715 -0.4349
 1065YOPC   C1A13917   4.719   2.396   6.808 -0.1306  0.3451 -0.3869
 1065YOPC   D2A13918   4.591   2.381   7.200 -0.2057 -0.0028 -0.1559
 1065YOPC   C3A13919   4.488   2.092   7.629  0.1311  0.0150 -0.1573
 1065YOPC   C4A13920   4.436   1.710   7.922 -0.0745 -0.1025 -0.0847
 1065YOPC   C1B13921   4.090   2.416   6.945 -0.0923  0.1902  0.0079
 1065YOPC   C2B13922   4.085   2.271   7.355 -0.2808 -0.3035  0.2390
 1065YOPC   D3B13923   3.689   2.439   7.510 -0.2590 -0.1406  0.2266
 1065YOPC   C4B13924   3.470   2.819   7.654  0.0067 -0.1505 -0.0422
 1066YOPC   NC313925   2.756   1.620   6.070  0.2987 -0.0301  0.1392
 1066YOPC   PO413926   2.572   1.946   6.360 -0.1365  0.1588  0.2256
 1066YOPC   GL113927   2.517   1.750   6.703  0.3005  0.0398  0.1806
 1066YOPC   GL213928   2.229   1.611   6.608  0.0596 -0.3741 -0.0227
 1066YOPC   C1A13929   2.424   1.656   7.132  0.0916  0.0692  0.2392
 1066YOPC   D2A13930   2.293   1.404   7.401  0.0021 -0.0877 -0.2518
 1066YOPC   C3A13931   2.388   1.110   7.269 -0.0952  0.4478 -0.2090
 1066YOPC   C4A13932   2.816   0.955   7.142 -0.1785  0.5759  0.1548
 1066YOPC   C1B13933   1.991   1.304   6.947 -0.1807  0.2873 -0.1836
 1066YOPC   C2B13934   1.785   0.956   7.036  0.0074  0.0812 -0.0131
 1066YOPC   D3B13935   1.880   0.837   7.413  0.0996 -0.2501 -0.0814
 1066YOPC   C4B13936   2.139   1.014   7.707  0.2185 -0.2382 -0.3044
 1067YOPC   NC313937   1.166  11.653   5.794 -0.1637 -0.1230  0.0947
 1067YOPC   PO413938   1.462  11.798   6.159  0.0359 -0.1354  0.2997
 1067YOPC   GL113939   1.577  12.181   6.366 -0.2089  0.2309  0.2639
 1067YOPC   GL213940   1.340  12.467   6.411  0.0013 -0.2119 -0.0354
 1067YOPC   C1A13941   1.613  12.413   6.848 -0.0197  0.1550 -0.5290
 1067YOPC   D2A13942   1.895  12.464   7.292 -0.2663  0.0541 -0.0224
 1067YOPC   C3A13943   1.823  12.515   7.700  0.1116  0.1188 -0.2177
 1067YOPC   C4A13944   1.818  12.792   8.011  0.2526  0.0932 -0.1621
 1067YOPC   C1B13945   1.075  12.227   6.601 -0.1067 -0.1083 -0.0933
 1067YOPC   C2B13946   0.680  12.149   6.850 -0.2170 -0.3360  0.0959
 1067YOPC   D3B13947   0.348  11.874   6.778  0.0137 -0.0314 -0.1412
 1067YOPC   C4B13948   0.262  11.646   6.495  0.0528 -0.1586 -0.0142
 1068YOPC   NC313949   1.919  13.144   6.188  0.2123  0.0792  0.0756
 1068YOPC   PO413950   1.558  13.015   6.219  0.2631 -0.2459  0.1006
 1068YOPC   GL113951   1.643  13.199   6.636 -0.0250  0.1777  0.1007
 1068YOPC   GL213952   1.931  13.225   6.652 -0.0325 -0.1693  0.1250
 1068YOPC   C1A13953   1.446  13.362   7.031  0.0478 -0.4042 -0.0885
 1068YOPC   D2A13954   1.455  13.395   7.470 -0.1173  0.2085  0.0093
 1068YOPC   C3A13955   1.592  13.441   7.845 -0.1232  0.1858  0.3952
 1068YOPC   C4A13956   1.691  13.300   8.253  0.1997 -0.0433  0.0828
 1068YOPC   C1B13957   1.949  13.434   7.065  0.0701 -0.2799  0.0093
 1068YOPC   C2B13958   1.954  13.550   7.466 -0.1716 -0.1078  0.2302
 1068YOPC   D3B13959   2.062  13.271   7.845 -0.1915 -0.3575 -0.1610
 1068YOPC   C4B13960   2.246  13.147   8.203  0.0007  0.0593 -0.3088
 1069YOPC   NC313961  11.133  13.153   5.486 -0.0116 -0.4648  0.0211
 1069YOPC   PO413962  11.509  12.867   5.476  0.0129 -0.1409  0.2711
 1069YOPC   GL113963  11.426  12.994   5.935 -0.2022 -0.2213  0.0245
 1069YOPC   GL213964  11.220  13.289   5.982 -0.0257 -0.1594 -0.0069
 1069YOPC   C1A13965  11.585  13.184   6.295  0.0775  0.0917  0.0711
 1069YOPC   D2A13966  11.546  13.131   6.797  0.2766 -0.1847  0.0583
 1069YOPC   C3A13967  11.823  12.963   7.159 -0.1452  0.2110 -0.1393
 1069YOPC   C4A13968  11.952  12.582   7.327  0.0648 -0.2342  0.0538
 1069YOPC   C1B13969  11.102  13.263   6.509  0.0709  0.2277 -0.0427
 1069YOPC   C2B13970  11.291  13.588   6.815 -0.3225 -0.0648 -0.0235
 1069YOPC   D3B13971  11.482  13.336   7.252 -0.1270  0.0053  0.2090
 1069YOPC   C4B13972  11.795  13.327   7.572  0.2125 -0.0678 -0.1995
 1070YOPC   NC313973  17.582   9.587   5.846  0.0769 -0.2927 -0.0114
 1070YOPC   PO413974  17.825   9.777   5.956  0.3169  0.1319 -0.0534
 1070YOPC   GL113975  17.670   9.639   6.360 -0.4755 -0.3308 -0.0537
 1070YOPC   GL213976  17.690   9.973   6.449  0.0224 -0.1010 -0.1286
 1070YOPC   C1A13977  17.595   9.588   6.754 -0.0597  0.1734 -0.1716
 1070YOPC   D2A13978  17.679   9.639   7.234  0.0308  0.2645  0.1828
 1070YOPC   C3A13979  17.342   9.584   7.598  0.1269 -0.1956  0.1330
 1070YOPC   C4A13980  17.014   9.432   7.833 -0.0561 -0.0417  0.1189
 1070YOPC   C1B13981  17.669  10.142   6.919 -0.0057 -0.0767  0.0643
 1070YOPC   C2B13982  17.915  10.240   7.203 -0.1783 -0.0012 -0.0007
 1070YOPC   D3B13983  17.924  10.075   7.604  0.2565 -0.1905 -0.3816
 1070YOPC   C4B13984  17.540  10.042   7.836  0.1892 -0.0940 -0.0828
 1071YOPC   NC313985   6.522   0.531   6.541  0.1617  0.0725  0.3023
 1071YOPC   PO413986   6.704   0.928   6.451 -0.2117  0.1173  0.2988
 1071YOPC   GL113987   7.013   1.095   6.751 -0.2904 -0.0519 -0.0271
 1071YOPC   GL213988   7.214   1.354   6.693 -0.2225  0.0437 -0.0673
 1071YOPC   C1A13989   7.006   1.262   7.188  0.3709  0.3491  0.0626
 1071YOPC   D2A13990   7.129   1.377   7.637 -0.1848  0.0161  0.0714
 1071YOPC   C3A13991   7.245   1.778   7.630  0.0596 -0.1196  0.0061
 1071YOPC   C4A13992   7.415   1.936   8.007  0.0611  0.1636 -0.0320
 1071YOPC   C1B13993   7.225   1.630   7.048  0.1370 -0.0655  0.1005
 1071YOPC   C2B13994   7.271   2.036   7.235  0.0041 -0.2682  0.1463
 1071YOPC   D3B13995   7.515   2.170   7.495 -0.0978  0.1930 -0.2520
 1071YOPC   C4B13996   7.907   2.293   7.736 -0.0551  0.1199 -0.1069
 1072YOPC   NC313997  15.085   9.856   4.991 -0.0602 -0.0895 -0.1711
 1072YOPC   PO413998  15.098   9.755   5.398  0.1379 -0.3249 -0.1561
 1072YOPC   GL113999  14.823   9.761   5.823 -0.0584 -0.2073 -0.2426
 1072YOPC   GL214000  14.621  10.004   5.908  0.0378 -0.2190  0.1760
 1072YOPC   C1A14001  14.461   9.695   6.232  0.1301  0.2751 -0.2705
 1072YOPC   D2A14002  14.429   9.291   6.591  0.1694  0.0535 -0.1064
 1072YOPC   C3A14003  14.191   9.380   6.887  0.0717 -0.3520 -0.2254
 1072YOPC   C4A14004  13.997   9.737   7.078  0.1914 -0.2007  0.0437
 1072YOPC   C1B14005  14.498  10.229   6.302 -0.0336  0.1572 -0.0298
 1072YOPC   C2B14006  14.475  10.555   6.534  0.0927 -0.0527  0.4268
 1072YOPC   D3B14007  14.529  10.518   6.975 -0.0174 -0.0900  0.1171
 1072YOPC   C4B14008  14.649  10.418   7.341 -0.3906  0.2375 -0.0103
 1073YOPC   NC314009  13.442   8.356   5.332  0.1833 -0.2793 -0.3252
 1073YOPC   PO414010  12.997   8.603   5.248  0.0963  0.1280  0.2949
 1073YOPC   GL114011  12.899   8.353   5.648 -0.2313  0.0120 -0.2183
 1073YOPC   GL214012  12.725   8.151   5.820 -0.0759 -0.2267 -0.2532
 1073YOPC   C1A14013  13.021   8.452   6.067 -0.1212  0.0124 -0.0884
 1073YOPC   D2A14014  13.083   8.852   6.151  0.2694  0.1629  0.0224
 1073YOPC   C3A14015  13.222   8.964   6.535 -0.1384  0.2582 -0.1204
 1073YOPC   C4A14016  13.276   9.079   6.922 -0.1645 -0.1538 -0.1583
 1073YOPC   C1B14017  12.507   8.141   6.172  0.0109  0.3293  0.1497
 1073YOPC   C2B14018  12.402   7.988   6.635  0.1988  0.0506 -0.1325
 1073YOPC   D3B14019  12.668   8.171   6.844  0.1130  0.1688  0.1171
 1073YOPC   C4B14020  12.817   8.053   7.263 -0.0090  0.2710 -0.1438
 1074YOPC   NC314021   0.130   2.307   5.815  0.0229 -0.1095 -0.2531
 1074YOPC   PO414022   0.363   2.295   6.185  0.0471  0.1790 -0.0715
 1074YOPC   GL114023   0.158   2.525   6.466 -0.1584 -0.1521 -0.0732
 1074YOPC   GL214024   0.274   2.217   6.671  0.0673 -0.1327 -0.0600
 1074YOPC   C1A14025  -0.110   2.495   6.725 -0.1958 -0.1090  0.0520
 1074YOPC   D2A14026  -0.253   2.709   7.102  0.3134  0.1011 -0.2041
 1074YOPC   C3A14027  -0.735   2.828   7.234  0.1838 -0.0362  0.0803
 1074YOPC   C4A14028  -0.971   2.798   7.689 -0.0528  0.0882 -0.2162
 1074YOPC   C1B14029   0.141   2.292   7.087 -0.1802  0.2453  0.2874
 1074YOPC   C2B14030   0.100   2.348   7.513  0.1049 -0.0820 -0.0666
 1074YOPC   D3B14031   0.451   2.112   7.840 -0.1397 -0.0049 -0.0431
 1074YOPC   C4B14032   0.559   1.764   8.087 -0.1007  0.0703 -0.5519
 1075YOPC   NC314033   1.191  12.694   5.934 -0.0036 -0.2970  0.4081
 1075YOPC   PO414034   0.950  13.017   6.077 -0.2101  0.3441  0.3915
 1075YOPC   GL114035   1.087  12.910   6.451 -0.3768  0.1492  0.1489
 1075YOPC   GL214036   0.970  13.184   6.746  0.0204  0.1097  0.0660
 1075YOPC   C1A14037   1.371  12.814   6.809  0.4861  0.1803  0.2767
 1075YOPC   D2A14038   1.428  12.767   7.180  0.0862 -0.0663  0.0732
 1075YOPC   C3A14039   1.256  12.560   7.591  0.0672  0.0316  0.2946
 1075YOPC   C4A14040   1.368  12.498   8.015  0.2135 -0.3902 -0.0588
 1075YOPC   C1B14041   1.047  13.136   7.171  0.4705  0.0207 -0.0595
 1075YOPC   C2B14042   0.881  13.035   7.524 -0.5892 -0.1049 -0.0878
 1075YOPC   D3B14043   0.578  12.706   7.348 -0.0353 -0.1915  0.1262
 1075YOPC   C4B14044   0.219  12.674   7.538  0.0040  0.0761 -0.3365
 1076YOPC   NC314045   3.497  16.654   6.127  0.0958  0.4216  0.0785
 1076YOPC   PO414046   3.830  16.530   5.994 -0.0360 -0.3720 -0.0900
 1076YOPC   GL114047   3.999  16.303   6.362 -0.1564  0.1369 -0.1964
 1076YOPC   GL214048   3.904  16.585   6.530 -0.2342  0.0838 -0.1084
 1076YOPC   C1A14049   4.307  16.228   6.701 -0.1935 -0.0179  0.0256
 1076YOPC   D2A14050   4.371  15.876   6.966 -0.0022  0.1833  0.0972
 1076YOPC   C3A14051   4.204  15.857   7.376 -0.3064  0.1293 -0.0341
 1076YOPC   C4A14052   4.086  15.722   7.777  0.0767 -0.1059  0.2340
 1076YOPC   C1B14053   3.786  16.831   6.960 -0.0183 -0.0759  0.1256
 1076YOPC   C2B14054   3.769  16.743   7.376 -0.1618 -0.1948  0.1859
 1076YOPC   D3B14055   3.963  17.041   7.681 -0.1089 -0.3624 -0.2381
 1076YOPC   C4B14056   3.973  17.308   8.108 -0.0992  0.3069  0.1772
 1077YOPC   NC314057   9.638  15.192   5.399  0.0186  0.0213  0.0239
 1077YOPC   PO414058   9.647  14.791   5.685 -0.3242 -0.2000  0.0122
 1077YOPC   GL114059   9.418  15.065   5.878  0.0001  0.0884 -0.1952
 1077YOPC   GL214060   9.450  15.271   5.831 -0.2313  0.0503 -0.1155
 1077YOPC   C1A14061   9.162  15.298   6.338 -0.1728 -0.0260  0.1486
 1077YOPC   D2A14062   9.252  15.380   6.752 -0.0586 -0.3043  0.0988
 1077YOPC   C3A14063   8.968  15.279   7.107  0.0874 -0.0906 -0.1697
 1077YOPC   C4A14064   8.557  15.474   7.218  0.0986 -0.3537 -0.0140
 1077YOPC   C1B14065   9.626  15.426   6.213  0.1341 -0.0669 -0.2360
 1077YOPC   C2B14066   9.493  15.792   6.414 -0.1101  0.1226  0.1896
 1077YOPC   D3B14067   9.121  15.791   6.444 -0.1601 -0.2659 -0.0642
 1077YOPC   C4B14068   8.801  15.638   6.265 -0.4005 -0.1011 -0.1839
 1078YOPC   NC314069  17.474   6.733   6.139  0.1451  0.2098 -0.0538
 1078YOPC   PO414070  17.744   6.974   6.359 -0.0230  0.1638 -0.0023
 1078YOPC   GL114071  17.759   6.699   6.635 -0.2478  0.2180  0.2083
 1078YOPC   GL214072  17.412   6.672   6.642 -0.3246  0.5443 -0.0983
 1078YOPC   C1A14073  17.752   6.452   7.061 -0.2446 -0.0217 -0.1121
 1078YOPC   D2A14074  17.690   6.530   7.529 -0.1113 -0.0532  0.0379
 1078YOPC   C3A14075  17.762   6.444   7.948  0.0326  0.0361  0.0967
 1078YOPC   C4A14076  17.485   6.425   8.252  0.1782 -0.2909 -0.0514
 1078YOPC   C1B14077  17.288   6.286   6.821  0.0526  0.0887  0.1028
 1078YOPC   C2B14078  17.335   6.276   7.274 -0.0504  0.1627 -0.1375
 1078YOPC   D3B14079  17.116   6.353   7.684 -0.0038  0.1375 -0.4632
 1078YOPC   C4B14080  17.140   6.617   7.988  0.2410  0.1566  0.2646
 1079YOPC   NC314081   8.187  16.909   5.887 -0.1348 -0.2709  0.2306
 1079YOPC   PO414082   8.505  17.250   5.851  0.0582  0.1326  0.0912
 1079YOPC   GL114083   8.416  17.268   6.265  0.1878 -0.2194  0.0839
 1079YOPC   GL214084   8.573  17.032   6.362 -0.2673  0.1305  0.2803
 1079YOPC   C1A14085   8.597  17.281   6.766 -0.2497 -0.0941  0.1215
 1079YOPC   D2A14086   8.577  17.078   7.140  0.0635  0.1499  0.0057
 1079YOPC   C3A14087   8.849  16.839   7.339 -0.0985  0.0552  0.0977
 1079YOPC   C4A14088   9.025  16.982   7.693  0.2571  0.0748  0.1973
 1079YOPC   C1B14089   8.314  16.814   6.610  0.1300 -0.2043  0.1547
 1079YOPC   C2B14090   8.103  16.952   6.982 -0.2037  0.1322  0.2635
 1079YOPC   D3B14091   8.221  16.997   7.446  0.0904  0.1875 -0.1520
 1079YOPC   C4B14092   8.550  16.926   7.736 -0.0467 -0.0072  0.0179
 1080YOPC   NC314093  11.547   9.777   5.623  0.1094  0.1114  0.0935
 1080YOPC   PO414094  11.177   9.970   5.611 -0.2437  0.0062  0.0821
 1080YOPC   GL114095  11.135   9.933   6.041 -0.1296 -0.1021 -0.1154
 1080YOPC   GL214096  11.418   9.801   6.180 -0.3449 -0.3504 -0.0354
 1080YOPC   C1A14097  10.885   9.848   6.423 -0.3342  0.0279 -0.1653
 1080YOPC   D2A14098  11.024   9.797   6.844  0.0088 -0.3724 -0.2170
 1080YOPC   C3A14099  10.990   9.989   7.188 -0.1009  0.0202 -0.1940
 1080YOPC   C4A14100  10.706   9.983   7.583  0.0262 -0.1315  0.1025
 1080YOPC   C1B14101  11.684   9.640   6.554 -0.1757  0.3237 -0.0487
 1080YOPC   C2B14102  11.804   9.401   6.815  0.2621 -0.0069 -0.0530
 1080YOPC   D3B14103  11.683   9.385   7.226 -0.0136 -0.0245 -0.0319
 1080YOPC   C4B14104  11.527   9.400   7.647  0.0461  0.1741 -0.2132
 1081YOPC   NC314105   0.826  13.533   5.879 -0.0441  0.0771 -0.0446
 1081YOPC   PO414106   1.012  13.811   5.968 -0.0004  0.4070  0.1567
 1081YOPC   GL114107   0.947  13.842   6.477 -0.0875  0.0654  0.0446
 1081YOPC   GL214108   1.071  14.109   6.750 -0.0985 -0.1306  0.0676
 1081YOPC   C1A14109   0.989  13.701   6.961 -0.2709  0.0877  0.1927
 1081YOPC   D2A14110   1.005  13.568   7.409 -0.1900 -0.0840 -0.3748
 1081YOPC   C3A14111   1.142  13.574   7.842  0.4674  0.0907 -0.1671
 1081YOPC   C4A14112   1.147  13.438   8.277  0.0994 -0.2379  0.1805
 1081YOPC   C1B14113   1.076  14.111   7.238  0.1277 -0.1739 -0.2456
 1081YOPC   C2B14114   1.027  14.110   7.707 -0.1420  0.1553 -0.1587
 1081YOPC   D3B14115   1.073  14.507   7.976  0.1852 -0.0461 -0.0478
 1081YOPC   C4B14116   1.040  14.807   8.119  0.0171  0.3209 -0.1143
 1082YOPC   NC314117  16.427   0.174   6.068 -0.1418  0.2482  0.2097
 1082YOPC   PO414118  16.066   0.116   6.252  0.1603  0.2099 -0.1138
 1082YOPC   GL114119  16.185   0.089   6.643 -0.2150 -0.1362 -0.0249
 1082YOPC   GL214120  16.282  -0.324   6.768  0.0744  0.2800  0.0536
 1082YOPC   C1A14121  16.260   0.402   7.002 -0.2798  0.0283 -0.0327
 1082YOPC   D2A14122  16.040   0.775   7.114 -0.2040  0.1020 -0.1527
 1082YOPC   C3A14123  15.980   0.867   7.463  0.1676  0.0452 -0.3287
 1082YOPC   C4A14124  15.677   0.831   7.741  0.2388  0.1514 -0.1502
 1082YOPC   C1B14125  16.328  -0.039   7.132  0.0364 -0.2744  0.0509
 1082YOPC   C2B14126  16.184  -0.020   7.536  0.1617 -0.0874  0.0217
 1082YOPC   D3B14127  16.457   0.170   7.809  0.3085  0.1565  0.0631
 1082YOPC   C4B14128  16.735   0.288   8.201  0.0756 -0.0031  0.3024
 1083YOPC   NC314129  16.501   1.041   6.536 -0.3822 -0.3352 -0.2668
 1083YOPC   PO414130  16.136   1.034   6.606 -0.1051  0.0583 -0.0633
 1083YOPC   GL114131  15.815   1.211   6.779  0.0710 -0.1115 -0.0052
 1083YOPC   GL214132  15.637   0.943   6.716  0.4563 -0.1044  0.0569
 1083YOPC   C1A14133  15.785   1.221   7.162  0.0722 -0.0504  0.4606
 1083YOPC   D2A14134  15.546   1.358   7.537 -0.0661  0.0704 -0.2584
 1083YOPC   C3A14135  15.302   1.133   7.836  0.2724  0.1359  0.2502
 1083YOPC   C4A14136  15.279   0.944   8.228  0.0013  0.0251  0.0780
 1083YOPC   C1B14137  15.482   0.784   7.232 -0.0243  0.0942 -0.0477
 1083YOPC   C2B14138  15.223   0.513   7.519 -0.0427  0.0169  0.1428
 1083YOPC   D3B14139  15.367   0.351   7.833  0.0314 -0.1338  0.0349
 1083YOPC   C4B14140  15.514  -0.068   7.773  0.3746  0.0015 -0.0775
 1084YOPC   NC314141   5.205   9.596   5.545 -0.1626 -0.0694  0.2677
 1084YOPC   PO414142   5.656   9.548   5.558  0.2273  0.3598  0.3464
 1084YOPC   GL114143   5.657   9.780   5.974  0.2845 -0.1207 -0.0819
 1084YOPC   GL214144   5.509  10.083   6.232 -0.0469 -0.1447  0.2038
 1084YOPC   C1A14145   5.716   9.696   6.423  0.0822 -0.0562 -0.0305
 1084YOPC   D2A14146   5.774   9.900   6.795  0.3268 -0.0469  0.2125
 1084YOPC   C3A14147   5.953   9.966   7.258  0.2935  0.1667  0.2319
 1084YOPC   C4A14148   5.664   9.831   7.694  0.2387  0.0657 -0.3346
 1084YOPC   C1B14149   5.280  10.093   6.573  0.0174 -0.0254 -0.4964
 1084YOPC   C2B14150   5.387  10.047   7.037 -0.2006 -0.0521 -0.1559
 1084YOPC   D3B14151   5.466  10.303   7.432 -0.1389  0.1326  0.3231
 1084YOPC   C4B14152   5.442  10.654   7.584  0.1584 -0.3559 -0.2211
 1085YOPC   NC314153   6.415   1.300   6.096 -0.0509  0.0086 -0.1256
 1085YOPC   PO414154   6.306   1.230   6.532  0.1149  0.1139 -0.1043
 1085YOPC   GL114155   6.323   0.986   6.823 -0.2596  0.2735 -0.2946
 1085YOPC   GL214156   6.562   0.886   6.929 -0.0393  0.1807  0.2361
 1085YOPC   C1A14157   5.860   0.848   6.896 -0.0870 -0.0209 -0.1597
 1085YOPC   D2A14158   5.599   0.685   7.236  0.1572  0.3603  0.0499
 1085YOPC   C3A14159   5.662   0.496   7.654 -0.0622 -0.2705  0.0170
 1085YOPC   C4A14160   5.933   0.158   7.876 -0.0822  0.1191  0.0007
 1085YOPC   C1B14161   6.562   1.021   7.257  0.2962 -0.2073 -0.2307
 1085YOPC   C2B14162   6.668   1.143   7.682 -0.1112 -0.1563  0.2520
 1085YOPC   D3B14163   6.858   1.374   8.084 -0.0157 -0.1570 -0.0776
 1085YOPC   C4B14164   7.264   1.516   8.201 -0.1271 -0.3911 -0.0279
 1086YOPC   NC314165  14.378   6.896   4.938  0.1218 -0.0731  0.0258
 1086YOPC   PO414166  14.522   6.905   5.347  0.0495  0.0299  0.0085
 1086YOPC   GL114167  14.712   7.047   5.717 -0.0609 -0.0403 -0.3198
 1086YOPC   GL214168  14.818   6.750   5.923 -0.1737 -0.0666 -0.0336
 1086YOPC   C1A14169  14.854   7.270   6.141 -0.1599 -0.1369  0.1101
 1086YOPC   D2A14170  14.932   7.398   6.489 -0.1306 -0.2181  0.4454
 1086YOPC   C3A14171  15.354   7.567   6.564  0.3820  0.1915 -0.0286
 1086YOPC   C4A14172  15.550   7.532   6.900  0.4101 -0.1891  0.2644
 1086YOPC   C1B14173  14.895   6.598   6.265  0.3029  0.1044 -0.0053
 1086YOPC   C2B14174  15.011   6.504   6.662  0.2765 -0.0305 -0.0319
 1086YOPC   D3B14175  15.030   6.786   6.977  0.4696  0.0660  0.0207
 1086YOPC   C4B14176  15.022   6.820   7.436  0.1962 -0.1650 -0.2112
 1087YOPC   NC314177   6.786   1.441   6.441 -0.2901  0.1487 -0.0108
 1087YOPC   PO414178   6.636   1.718   6.073  0.0339 -0.1955  0.0994
 1087YOPC   GL114179   6.486   1.926   6.447  0.0621  0.0568 -0.2850
 1087YOPC   GL214180   6.392   1.777   6.689  0.0975  0.1282 -0.2690
 1087YOPC   C1A14181   6.608   2.241   6.647 -0.3527  0.0028 -0.2825
 1087YOPC   D2A14182   6.459   2.591   6.795 -0.0568  0.2081  0.0295
 1087YOPC   C3A14183   6.411   2.641   7.325  0.0978  0.0821  0.2341
 1087YOPC   C4A14184   6.686   2.800   7.755  0.1220 -0.2734  0.0305
 1087YOPC   C1B14185   6.120   1.753   7.068  0.1022 -0.2428 -0.2176
 1087YOPC   C2B14186   5.982   2.125   7.414 -0.0238 -0.2200 -0.0487
 1087YOPC   D3B14187   5.910   2.266   7.868  0.2543  0.0068 -0.2584
 1087YOPC   C4B14188   6.133   2.196   8.361 -0.1004 -0.1220  0.0342
 1088YOPC   NC314189  12.170  13.445   5.143 -0.1278 -0.0085 -0.3915
 1088YOPC   PO414190  12.500  13.329   5.520 -0.0232 -0.0248  0.1138
 1088YOPC   GL114191  12.675  13.221   5.826  0.1880 -0.1668  0.0214
 1088YOPC   GL214192  12.707  12.863   6.079 -0.0297 -0.1383  0.0940
 1088YOPC   C1A14193  12.554  13.363   6.227  0.0807 -0.1952 -0.0297
 1088YOPC   D2A14194  12.118  13.274   6.397 -0.2263  0.0244  0.1698
 1088YOPC   C3A14195  11.767  13.565   6.597  0.2373  0.0004  0.3697
 1088YOPC   C4A14196  11.350  13.690   6.357  0.1351  0.1874 -0.2265
 1088YOPC   C1B14197  12.632  12.918   6.533 -0.1035  0.0111 -0.1968
 1088YOPC   C2B14198  12.249  13.007   6.835  0.0569 -0.4303  0.0970
 1088YOPC   D3B14199  12.257  13.059   7.307 -0.1213  0.1026 -0.0417
 1088YOPC   C4B14200  12.556  13.235   7.639 -0.2495  0.0736  0.0682
 1089YOPC   NC314201  16.195   3.129   6.207  0.1914 -0.1233 -0.1222
 1089YOPC   PO414202  16.434   2.775   6.445 -0.0728 -0.1538  0.0128
 1089YOPC   GL114203  16.469   2.896   6.807  0.1220 -0.1075  0.0115
 1089YOPC   GL214204  16.314   3.110   6.826 -0.3327  0.2370 -0.0163
 1089YOPC   C1A14205  16.500   2.977   7.314 -0.1483  0.1684  0.3756
 1089YOPC   D2A14206  16.433   3.095   7.670  0.2113 -0.3363 -0.1520
 1089YOPC   C3A14207  16.147   2.965   8.085 -0.3035  0.1178  0.1077
 1089YOPC   C4A14208  15.670   3.078   8.041  0.0315  0.1056 -0.0890
 1089YOPC   C1B14209  16.235   3.446   7.054  0.1780  0.2103  0.0513
 1089YOPC   C2B14210  16.092   3.655   7.385  0.0154  0.2636  0.0672
 1089YOPC   D3B14211  16.344   3.578   7.827 -0.0805  0.0394 -0.0099
 1089YOPC   C4B14212  16.564   3.307   8.091  0.0823  0.2812  0.0199
 1090YOPC   NC314213   8.458  15.589   5.607  0.3113 -0.1619 -0.1899
 1090YOPC   PO414214   8.019  15.547   5.679  0.0460  0.2770  0.2217
 1090YOPC   GL114215   8.126  15.556   6.131  0.0746  0.1253 -0.4510
 1090YOPC   GL214216   8.363  15.767   6.109  0.1134  0.0116 -0.0149
 1090YOPC   C1A14217   7.955  15.587   6.475 -0.1624  0.2820  0.1953
 1090YOPC   D2A14218   7.730  15.697   6.881 -0.2533 -0.0232 -0.0436
 1090YOPC   C3A14219   7.675  15.737   7.292  0.0076 -0.1193 -0.1461
 1090YOPC   C4A14220   7.582  15.845   7.682  0.1128 -0.1135 -0.2322
 1090YOPC   C1B14221   8.376  15.874   6.549  0.0663  0.2679 -0.1398
 1090YOPC   C2B14222   8.318  15.646   6.837 -0.2093 -0.0153 -0.1342
 1090YOPC   D3B14223   8.151  15.727   7.205 -0.0170  0.1564  0.0937
 1090YOPC   C4B14224   8.047  15.917   7.568 -0.2565  0.0943 -0.0092
 1091YOPC   NC314225   2.387  15.386   6.460 -0.0807  0.1914  0.2077
 1091YOPC   PO414226   1.976  15.598   6.545  0.0195 -0.0834  0.1326
 1091YOPC   GL114227   2.173  15.682   6.951  0.1708 -0.4785  0.1216
 1091YOPC   GL214228   2.409  15.954   7.143  0.0553 -0.0451  0.0543
 1091YOPC   C1A14229   2.064  15.815   7.506 -0.2689  0.4398 -0.0299
 1091YOPC   D2A14230   2.126  15.676   7.921 -0.1376  0.0350 -0.1689
 1091YOPC   C3A14231   2.378  15.746   8.195 -0.2384  0.5174  0.0772
 1091YOPC   C4A14232   2.767  15.553   8.466 -0.0370  0.0527  0.2433
 1091YOPC   C1B14233   2.810  16.048   7.398 -0.4378 -0.0431  0.0068
 1091YOPC   C2B14234   3.140  16.047   7.661 -0.1534 -0.0117  0.0684
 1091YOPC   D3B14235   3.212  16.249   8.050 -0.1748 -0.0697 -0.1666
 1091YOPC   C4B14236   3.244  16.655   8.142 -0.0041  0.2741  0.1608
 1092YOPC   NC314237   6.778  12.716   6.038 -0.1798  0.0104 -0.0010
 1092YOPC   PO414238   6.800  13.151   6.042 -0.1885  0.0798 -0.2351
 1092YOPC   GL114239   6.792  13.089   6.488  0.0170  0.1545  0.0463
 1092YOPC   GL214240   6.926  13.418   6.584 -0.2782  0.0767  0.3575
 1092YOPC   C1A14241   6.674  12.936   6.872  0.1437  0.2461  0.0333
 1092YOPC   D2A14242   6.742  12.938   7.392  0.1948  0.1468 -0.0325
 1092YOPC   C3A14243   6.961  13.211   7.667 -0.2485 -0.2054  0.1989
 1092YOPC   C4A14244   6.949  13.277   8.093 -0.1866  0.0599 -0.0425
 1092YOPC   C1B14245   6.943  13.512   6.989  0.0780  0.3871  0.0063
 1092YOPC   C2B14246   7.037  13.679   7.459 -0.2338  0.0655  0.3770
 1092YOPC   D3B14247   7.154  13.722   7.855 -0.0775  0.1723  0.1153
 1092YOPC   C4B14248   7.257  13.882   8.210 -0.2564  0.1968  0.1660
 1093YOPC   NC314249  11.901   3.658   5.765  0.0142  0.0447  0.0123
 1093YOPC   PO414250  11.745   3.989   5.954 -0.3681  0.0207 -0.0499
 1093YOPC   GL114251  11.909   4.358   6.214  0.1248  0.0392 -0.0073
 1093YOPC   GL214252  12.167   4.601   6.320 -0.0039  0.0604 -0.0037
 1093YOPC   C1A14253  11.740   4.417   6.687  0.3976  0.4435  0.1979
 1093YOPC   D2A14254  11.674   4.458   6.998 -0.0047  0.0145  0.0508
 1093YOPC   C3A14255  11.706   4.312   7.349 -0.2149  0.3278 -0.3004
 1093YOPC   C4A14256  11.681   4.140   7.686  0.2102 -0.3486  0.1652
 1093YOPC   C1B14257  12.186   4.524   6.738  0.0565  0.0487 -0.1057
 1093YOPC   C2B14258  12.152   4.474   7.194  0.1816 -0.1007  0.1009
 1093YOPC   D3B14259  12.497   4.419   7.450  0.0217  0.2711 -0.0799
 1093YOPC   C4B14260  12.659   4.451   7.824  0.1664  0.1493 -0.1432
 1094YOPC   NC314261   7.480   1.359   5.870  0.1822 -0.3391  0.2467
 1094YOPC   PO414262   7.611   1.102   6.158 -0.2223  0.0528  0.0392
 1094YOPC   GL114263   7.729   1.072   6.670 -0.0059  0.0463  0.1836
 1094YOPC   GL214264   7.485   0.988   6.853  0.1718  0.0039  0.2304
 1094YOPC   C1A14265   8.024   1.129   6.854  0.0074  0.0887 -0.1654
 1094YOPC   D2A14266   8.294   1.447   6.805  0.1045  0.0718 -0.0887
 1094YOPC   C3A14267   8.433   1.633   7.224 -0.0948  0.2854  0.1696
 1094YOPC   C4A14268   8.353   1.671   7.664 -0.0543 -0.1002 -0.0201
 1094YOPC   C1B14269   7.502   1.177   7.290  0.2576 -0.0310  0.2732
 1094YOPC   C2B14270   7.591   1.071   7.688  0.0161  0.1230  0.0010
 1094YOPC   D3B14271   7.394   1.084   7.945 -0.3005  0.0019  0.0886
 1094YOPC   C4B14272   6.953   0.849   8.028  0.1329 -0.0494 -0.0329
 1095YOPC   NC314273  13.170   0.477   5.470 -0.1157  0.2817 -0.1819
 1095YOPC   PO414274  12.848   0.352   5.657  0.1814  0.0931 -0.0722
 1095YOPC   GL114275  12.894   0.375   6.054  0.2396  0.2345  0.1246
 1095YOPC   GL214276  12.579   0.435   6.134  0.0819 -0.3181  0.2206
 1095YOPC   C1A14277  13.108   0.239   6.479 -0.0434 -0.1160  0.0760
 1095YOPC   D2A14278  13.144   0.241   6.886 -0.1837 -0.2721 -0.0071
 1095YOPC   C3A14279  13.111  -0.060   7.236 -0.2682 -0.2069 -0.1627
 1095YOPC   C4A14280  13.027  -0.131   7.648  0.0621  0.0275  0.3212
 1095YOPC   C1B14281  12.642   0.416   6.572 -0.1431  0.2543 -0.2511
 1095YOPC   C2B14282  12.682   0.513   6.949 -0.1070 -0.1483 -0.2902
 1095YOPC   D3B14283  12.955   0.532   7.293 -0.3203  0.1678 -0.1954
 1095YOPC   C4B14284  13.435   0.395   7.316 -0.1975 -0.3596  0.2267
 1096YOPC   NC314285  15.395   6.068   5.960  0.5112  0.0536  0.1928
 1096YOPC   PO414286  15.745   5.784   6.021 -0.0170  0.1568  0.1768
 1096YOPC   GL114287  15.925   5.982   6.348  0.1010 -0.0276  0.2811
 1096YOPC   GL214288  15.776   6.131   6.584 -0.1229  0.1449  0.0191
 1096YOPC   C1A14289  16.240   5.912   6.787 -0.0818  0.3792 -0.2216
 1096YOPC   D2A14290  16.377   5.815   7.166 -0.4264 -0.3749  0.1922
 1096YOPC   C3A14291  16.087   5.691   7.330  0.3142  0.1475 -0.3555
 1096YOPC   C4A14292  15.949   5.330   7.475  0.0705 -0.2548 -0.0985
 1096YOPC   C1B14293  15.854   6.082   7.045  0.1365 -0.2060  0.0217
 1096YOPC   C2B14294  15.720   6.070   7.465  0.0851  0.1570 -0.5324
 1096YOPC   D3B14295  15.319   6.027   7.465 -0.1012  0.0493  0.1848
 1096YOPC   C4B14296  14.997   6.337   7.355  0.0409  0.0937  0.0856
 1097YOPC   NC314297  12.013   1.935   5.730  0.1874  0.2001 -0.1380
 1097YOPC   PO414298  12.257   2.222   5.643 -0.2999 -0.1680 -0.2929
 1097YOPC   GL114299  12.328   2.272   6.037 -0.3368  0.3400  0.0569
 1097YOPC   GL214300  11.980   2.208   6.137  0.0300 -0.0074  0.1251
 1097YOPC   C1A14301  12.435   2.448   6.481 -0.4696  0.2618  0.2919
 1097YOPC   D2A14302  12.452   2.466   7.002 -0.0488 -0.0904 -0.3301
 1097YOPC   C3A14303  12.224   2.386   7.395  0.2928  0.0002 -0.0152
 1097YOPC   C4A14304  12.370   2.311   7.773  0.2165  0.0346  0.0344
 1097YOPC   C1B14305  11.971   2.194   6.632 -0.2889  0.0894 -0.0968
 1097YOPC   C2B14306  12.010   2.138   7.049  0.2628 -0.0266  0.1466
 1097YOPC   D3B14307  11.994   1.938   7.413  0.3399 -0.1363  0.1500
 1097YOPC   C4B14308  11.858   1.517   7.636 -0.0625 -0.0346  0.1352
 1098YOPC   NC314309  17.596   5.848   6.068  0.1714  0.1083 -0.1220
 1098YOPC   PO414310  17.619   6.277   5.940 -0.0786 -0.2288 -0.2451
 1098YOPC   GL114311  17.661   6.252   6.415 -0.1266  0.0379 -0.1680
 1098YOPC   GL214312  17.737   5.909   6.582  0.0536 -0.0224 -0.1772
 1098YOPC   C1A14313  18.030   6.242   6.692 -0.0524 -0.0842  0.1156
 1098YOPC   D2A14314  18.135   6.070   7.118  0.0095  0.0636 -0.0612
 1098YOPC   C3A14315  18.180   6.277   7.499  0.0087  0.1492  0.2638
 1098YOPC   C4A14316  18.279   6.322   7.954  0.3271  0.1485 -0.1795
 1098YOPC   C1B14317  17.698   5.998   7.003 -0.1468 -0.0613 -0.1305
 1098YOPC   C2B14318  17.740   5.988   7.485  0.1229 -0.0115 -0.1537
 1098YOPC   D3B14319  17.478   5.976   7.777  0.1321  0.0056  0.2178
 1098YOPC   C4B14320  17.045   5.892   7.794  0.2726  0.0595  0.1538
 1099YOPC   NC314321   1.596  17.606   6.003 -0.1174  0.2026 -0.0995
 1099YOPC   PO414322   1.267  17.395   6.279  0.2216  0.1051 -0.0186
 1099YOPC   GL114323   1.408  17.334   6.714  0.0471 -0.1472  0.0527
 1099YOPC   GL214324   1.156  17.109   6.821 -0.0555  0.1261 -0.1182
 1099YOPC   C1A14325   1.599  17.498   7.082 -0.1059 -0.2395  0.4796
 1099YOPC   D2A14326   1.645  17.434   7.510  0.0322  0.1669  0.2245
 1099YOPC   C3A14327   1.980  17.150   7.809 -0.1250 -0.3905 -0.1864
 1099YOPC   C4A14328   2.270  16.749   7.680 -0.1097  0.0925 -0.1449
 1099YOPC   C1B14329   1.005  17.546   7.118  0.1880 -0.0563  0.1953
 1099YOPC   C2B14330   0.971  17.870   7.221 -0.1156 -0.0366 -0.0612
 1099YOPC   D3B14331   0.823  18.062   7.586  0.0525  0.0622 -0.2527
 1099YOPC   C4B14332   1.091  18.227   8.023  0.0540  0.3688  0.0172
 1100YOPC   NC314333   1.942  12.155   5.989  0.1391  0.2311 -0.1258
 1100YOPC   PO414334   2.034  12.468   5.776 -0.1575 -0.3750  0.1182
 1100YOPC   GL114335   1.931  12.537   6.302 -0.2364 -0.2847  0.1301
 1100YOPC   GL214336   2.086  12.783   6.547 -0.0061  0.2660 -0.0673
 1100YOPC   C1A14337   2.148  12.387   6.814  0.1514 -0.4397  0.3784
 1100YOPC   D2A14338   2.460  12.304   7.170  0.0653 -0.2328 -0.0003
 1100YOPC   C3A14339   2.352  12.226   7.681  0.3259 -0.0375 -0.2338
 1100YOPC   C4A14340   2.607  12.165   7.996  0.2597  0.4515  0.3937
 1100YOPC   C1B14341   1.900  12.846   6.955 -0.1067 -0.0196 -0.0490
 1100YOPC   C2B14342   1.859  13.103   7.438 -0.0492  0.0990 -0.1254
 1100YOPC   D3B14343   1.591  12.952   7.602 -0.2278  0.3079 -0.0493
 1100YOPC   C4B14344   1.342  13.048   7.845  0.0764  0.1461 -0.0274
 1101YOPC   NC314345   9.085  13.589   6.089 -0.2595  0.3666 -0.0065
 1101YOPC   PO414346   9.416  13.793   5.920  0.2260  0.3032 -0.3451
 1101YOPC   GL114347   9.636  14.265   6.128  0.0453  0.0903  0.3080
 1101YOPC   GL214348   9.495  14.541   6.048 -0.3903  0.0650 -0.0829
 1101YOPC   C1A14349   9.974  14.420   6.397 -0.2391  0.2292 -0.0811
 1101YOPC   D2A14350  10.242  14.843   6.704  0.3704  0.1342  0.1017
 1101YOPC   C3A14351  10.090  15.141   6.941  0.1825 -0.1437 -0.2145
 1101YOPC   C4A14352   9.868  15.272   7.287  0.3309 -0.2649  0.0683
 1101YOPC   C1B14353   9.209  14.828   6.258  0.0537  0.0344  0.4505
 1101YOPC   C2B14354   9.063  14.871   6.658  0.3173 -0.0925 -0.0075
 1101YOPC   D3B14355   8.796  15.135   6.669  0.2269 -0.0011  0.1051
 1101YOPC   C4B14356   8.787  15.579   6.772 -0.1008  0.2243 -0.0554
 1102YOPC   NC314357   9.083  17.902   5.745 -0.0940 -0.0956  0.3049
 1102YOPC   PO414358   8.759  17.978   6.078  0.0366 -0.0143 -0.0112
 1102YOPC   GL114359   8.692  18.191   6.501  0.3372  0.1926  0.0335
 1102YOPC   GL214360   8.380  18.079   6.703  0.2473  0.3267 -0.1647
 1102YOPC   C1A14361   8.849  18.030   6.894  0.0544 -0.0750 -0.0757
 1102YOPC   D2A14362   8.875  18.049   7.391 -0.1979  0.0824 -0.2149
 1102YOPC   C3A14363   9.094  18.132   7.660 -0.0915  0.0035 -0.2292
 1102YOPC   C4A14364   9.297  18.396   8.111 -0.0741  0.2149  0.0911
 1102YOPC   C1B14365   8.421  18.085   7.137  0.0686  0.2777  0.1175
 1102YOPC   C2B14366   8.392  17.899   7.522  0.0638 -0.1948  0.1815
 1102YOPC   D3B14367   8.631  18.109   7.816 -0.0220 -0.2245 -0.3560
 1102YOPC   C4B14368   8.804  18.208   8.194 -0.3175  0.7292 -0.2091
 1103YOPC   NC314369  17.417   7.875   5.679  0.2667  0.1853  0.0373
 1103YOPC   PO414370  17.127   8.218   5.522  0.0775 -0.0863 -0.0110
 1103YOPC   GL114371  16.887   8.245   5.854 -0.1548  0.1315  0.0096
 1103YOPC   GL214372  17.012   7.988   6.011  0.1727 -0.2350  0.4479
 1103YOPC   C1A14373  16.712   8.539   6.154 -0.0148  0.1579 -0.0175
 1103YOPC   D2A14374  16.471   8.632   6.502  0.0687  0.2322  0.0249
 1103YOPC   C3A14375  16.313   8.766   6.861 -0.2250  0.2171 -0.1281
 1103YOPC   C4A14376  16.282   8.772   7.346  0.1249  0.1188  0.0069
 1103YOPC   C1B14377  17.123   8.261   6.357 -0.1803 -0.1055 -0.1247
 1103YOPC   C2B14378  17.265   8.146   6.716 -0.3718 -0.0096 -0.0786
 1103YOPC   D3B14379  17.390   7.772   6.878 -0.3322  0.0606 -0.2632
 1103YOPC   C4B14380  17.304   7.442   7.155 -0.0783 -0.1380 -0.1743
 1104YOPC   NC314381  13.886  14.431   5.302 -0.0642 -0.2203  0.0694
 1104YOPC   PO414382  13.652  14.142   5.513  0.1636 -0.0819  0.2907
 1104YOPC   GL114383  13.629  14.380   5.904  0.2390 -0.1211  0.0574
 1104YOPC   GL214384  13.886  14.455   6.157 -0.1535 -0.0291  0.0717
 1104YOPC   C1A14385  13.303  14.400   6.235 -0.0159  0.0148 -0.2641
 1104YOPC   D2A14386  13.149  14.523   6.592  0.0538  0.1064  0.0553
 1104YOPC   C3A14387  13.009  14.309   6.972  0.2300  0.0454  0.0757
 1104YOPC   C4A14388  12.763  14.027   7.384 -0.1039 -0.1716 -0.0163
 1104YOPC   C1B14389  13.775  14.047   6.226 -0.1265 -0.1192 -0.2206
 1104YOPC   C2B14390  13.446  13.760   6.243  0.0331  0.1715 -0.2635
 1104YOPC   D3B14391  13.281  13.485   6.441 -0.2708 -0.0614 -0.1119
 1104YOPC   C4B14392  12.882  13.436   6.654 -0.1775  0.0908 -0.1033
 1105YOPC   NC314393   1.095   1.196   5.955  0.1306  0.1744 -0.2619
 1105YOPC   PO414394   1.244   1.552   6.253 -0.5031 -0.3905 -0.0476
 1105YOPC   GL114395   1.265   1.610   6.675  0.0844 -0.1787 -0.4164
 1105YOPC   GL214396   1.077   1.630   6.890  0.1383  0.1150  0.2514
 1105YOPC   C1A14397   1.481   1.393   7.094 -0.1175 -0.3385  0.2120
 1105YOPC   D2A14398   1.721   1.403   7.412 -0.0150  0.0397  0.3619
 1105YOPC   C3A14399   1.688   1.167   7.800  0.2599 -0.0155  0.0825
 1105YOPC   C4A14400   1.570   1.191   8.310 -0.1585 -0.0679 -0.1149
 1105YOPC   C1B14401   0.914   1.654   7.242 -0.1598 -0.0899 -0.2414
 1105YOPC   C2B14402   0.790   1.784   7.637 -0.3368 -0.1534  0.2011
 1105YOPC   D3B14403   1.066   1.789   7.918 -0.3069 -0.1626  0.2407
 1105YOPC   C4B14404   0.899   1.890   8.421 -0.1269 -0.1994  0.2267
 1106YOPC   NC314405   4.243   7.158   5.819 -0.3263 -0.1415  0.3008
 1106YOPC   PO414406   3.830   6.951   5.679 -0.0099 -0.3836 -0.1685
 1106YOPC   GL114407   3.808   6.652   5.990  0.1022 -0.0224  0.0754
 1106YOPC   GL214408   3.734   6.428   5.911 -0.0256  0.2272  0.0205
 1106YOPC   C1A14409   3.717   6.535   6.414  0.0166 -0.2719  0.2631
 1106YOPC   D2A14410   3.653   6.651   6.844 -0.0950 -0.1768 -0.0160
 1106YOPC   C3A14411   3.691   6.724   7.331 -0.0627  0.0121 -0.1435
 1106YOPC   C4A14412   3.725   6.904   7.686  0.2410 -0.1052  0.0407
 1106YOPC   C1B14413   4.178   6.404   6.163  0.0846  0.3100 -0.0106
 1106YOPC   C2B14414   4.509   6.402   6.508 -0.0084  0.3660 -0.3650
 1106YOPC   D3B14415   4.866   6.175   6.615  0.2830 -0.3107  0.1555
 1106YOPC   C4B14416   5.169   6.152   6.631 -0.1655  0.1278  0.1673
 1107YOPC   NC314417   6.120   7.108   5.929 -0.2208  0.0991  0.0715
 1107YOPC   PO414418   6.025   6.661   6.069 -0.2446 -0.0526  0.1861
 1107YOPC   GL114419   6.063   7.164   6.421 -0.3955  0.0353 -0.0902
 1107YOPC   GL214420   6.253   7.295   6.566 -0.0885  0.0869  0.2934
 1107YOPC   C1A14421   5.800   7.225   6.810  0.1751 -0.1653  0.0952
 1107YOPC   D2A14422   5.715   6.966   7.116 -0.0728 -0.0811  0.1466
 1107YOPC   C3A14423   5.591   7.190   7.557 -0.1094  0.2166 -0.1117
 1107YOPC   C4A14424   5.772   7.152   7.901  0.1562 -0.1594  0.2516
 1107YOPC   C1B14425   6.291   7.339   7.028  0.2216  0.1523 -0.3710
 1107YOPC   C2B14426   6.585   7.514   7.271  0.1968  0.1074 -0.2238
 1107YOPC   D3B14427   6.605   7.235   7.644 -0.4059  0.0881  0.0574
 1107YOPC   C4B14428   6.301   6.999   7.884  0.3485  0.1075  0.1697
 1108YOPC   NC314429  15.011  12.241   5.203 -0.3524  0.0904 -0.1111
 1108YOPC   PO414430  14.814  12.336   5.593 -0.1232  0.4233 -0.0992
 1108YOPC   GL114431  15.013  12.471   5.872  0.2529 -0.0489 -0.2271
 1108YOPC   GL214432  15.233  12.637   5.975 -0.0944 -0.1002 -0.1839
 1108YOPC   C1A14433  15.003  12.371   6.350 -0.0802 -0.0066  0.2178
 1108YOPC   D2A14434  14.994  12.230   6.620 -0.0323  0.0657  0.1913
 1108YOPC   C3A14435  14.856  12.296   7.012  0.1038  0.1089  0.2150
 1108YOPC   C4A14436  14.735  12.416   7.397  0.0509 -0.1152 -0.2773
 1108YOPC   C1B14437  15.528  12.478   6.132 -0.3024 -0.1610  0.0564
 1108YOPC   C2B14438  15.818  12.573   6.542  0.1739  0.0750  0.0994
 1108YOPC   D3B14439  15.730  12.472   6.979 -0.0533 -0.1466 -0.3916
 1108YOPC   C4B14440  15.702  12.380   7.406  0.2818 -0.0498  0.1672
 1109YOPC   NC314441  13.144  14.989   5.173  0.0518 -0.1462  0.0133
 1109YOPC   PO414442  13.395  15.111   5.563  0.0617 -0.0514  0.0492
 1109YOPC   GL114443  13.343  14.902   5.963  0.1532  0.0340  0.3987
 1109YOPC   GL214444  13.229  14.764   5.893  0.1599  0.1102  0.1084
 1109YOPC   C1A14445  13.433  14.952   6.328 -0.3280  0.0587 -0.2565
 1109YOPC   D2A14446  13.286  15.019   6.697  0.1065  0.1484 -0.0345
 1109YOPC   C3A14447  12.851  14.957   6.815 -0.0017  0.3156 -0.0292
 1109YOPC   C4A14448  12.640  15.136   7.151  0.0062 -0.3556 -0.1983
 1109YOPC   C1B14449  12.925  14.718   6.226 -0.2837  0.1189 -0.2158
 1109YOPC   C2B14450  12.569  14.592   6.517  0.1030 -0.1282  0.2006
 1109YOPC   D3B14451  12.565  14.589   6.878  0.0078 -0.1954 -0.0711
 1109YOPC   C4B14452  12.396  14.743   7.258  0.0350  0.1894 -0.2949
 1110YOPC   NC314453   0.228   4.617   5.652  0.2344  0.0078  0.0482
 1110YOPC   PO414454   0.800   4.662   5.712  0.1790 -0.0288  0.0993
 1110YOPC   GL114455   0.533   4.625   6.001  0.0140 -0.2779  0.0849
 1110YOPC   GL214456   0.365   4.848   6.118  0.0472  0.0711  0.2756
 1110YOPC   C1A14457   0.664   4.398   6.375 -0.1626 -0.2407 -0.1090
 1110YOPC   D2A14458   0.853   4.219   6.727 -0.1677  0.1458  0.0945
 1110YOPC   C3A14459   0.946   4.580   7.060 -0.2881  0.3047 -0.4820
 1110YOPC   C4A14460   1.060   4.603   7.469 -0.0632  0.0145 -0.0594
 1110YOPC   C1B14461   0.315   4.769   6.539  0.2331 -0.0888 -0.0384
 1110YOPC   C2B14462   0.490   4.598   6.830 -0.1495 -0.0719 -0.2995
 1110YOPC   D3B14463   0.556   4.746   7.389 -0.0511  0.0323  0.0142
 1110YOPC   C4B14464   0.643   4.623   7.912 -0.2718 -0.1063  0.1503
 1111YOPC   NC314465  13.520   1.653   5.799  0.0228 -0.1407  0.3268
 1111YOPC   PO414466  13.653   1.335   5.861 -0.1524  0.0617 -0.3314
 1111YOPC   GL114467  13.640   1.503   6.285 -0.1732 -0.2632  0.0462
 1111YOPC   GL214468  13.486   1.742   6.325 -0.4634 -0.0768  0.1521
 1111YOPC   C1A14469  13.755   1.654   6.695 -0.0196 -0.1677 -0.0142
 1111YOPC   D2A14470  13.914   1.806   7.136 -0.1190  0.2749 -0.2651
 1111YOPC   C3A14471  13.759   1.719   7.550  0.1129 -0.2689  0.1077
 1111YOPC   C4A14472  13.658   1.660   8.100 -0.0424  0.0166 -0.2571
 1111YOPC   C1B14473  13.241   1.985   6.481 -0.0538 -0.1626  0.1416
 1111YOPC   C2B14474  12.916   1.901   6.704 -0.0309  0.1173 -0.2626
 1111YOPC   D3B14475  12.900   1.794   7.161 -0.0692  0.0261  0.0574
 1111YOPC   C4B14476  12.889   1.652   7.557 -0.0200 -0.1073  0.0483
 1112YOPC   NC314477   6.735  18.133   6.046  0.1241  0.2046  0.1938
 1112YOPC   PO414478   7.006  18.421   6.285 -0.1471 -0.0456 -0.0382
 1112YOPC   GL114479   7.181  18.460   6.642 -0.0877 -0.0424 -0.3109
 1112YOPC   GL214480   7.467  18.240   6.818  0.2477 -0.2131  0.2155
 1112YOPC   C1A14481   7.173  18.485   7.110  0.1068 -0.0808  0.0388
 1112YOPC   D2A14482   7.167  18.539   7.548  0.2199  0.1626  0.2034
 1112YOPC   C3A14483   6.900  18.592   7.809  0.1753  0.0770 -0.0300
 1112YOPC   C4A14484   6.687  18.683   8.150  0.0909 -0.0193  0.3189
 1112YOPC   C1B14485   7.568  18.285   7.257  0.2825  0.1908  0.2270
 1112YOPC   C2B14486   7.567  18.341   7.757  0.3660  0.3988 -0.0058
 1112YOPC   D3B14487   7.251  18.492   8.118 -0.2024 -0.0299 -0.2097
 1112YOPC   C4B14488   6.855  18.232   8.326 -0.1810 -0.0261  0.2517
 1113YOPC   NC314489  11.505  17.091   4.734  0.0798  0.0514 -0.0342
 1113YOPC   PO414490  11.403  16.904   5.109  0.3045  0.0893 -0.1485
 1113YOPC   GL114491  11.592  16.864   5.554 -0.1030  0.2474 -0.1693
 1113YOPC   GL214492  11.877  17.055   5.519 -0.0207  0.0709 -0.3612
 1113YOPC   C1A14493  11.493  16.707   6.028 -0.2194  0.0163 -0.1048
 1113YOPC   D2A14494  11.694  16.569   6.381 -0.1345  0.0096 -0.0812
 1113YOPC   C3A14495  12.137  16.812   6.384 -0.0375 -0.0465  0.1060
 1113YOPC   C4A14496  12.459  16.820   6.693  0.3877  0.0444  0.0340
 1113YOPC   C1B14497  11.874  17.025   5.995  0.2103  0.3721  0.2513
 1113YOPC   C2B14498  11.556  17.093   6.329  0.0054  0.2896 -0.0784
 1113YOPC   D3B14499  11.591  16.898   6.696  0.2956 -0.3070 -0.2120
 1113YOPC   C4B14500  11.367  16.953   7.059 -0.1466  0.1011 -0.0516
 1114YOPC   NC314501   4.978   1.733   5.809 -0.0469  0.0378 -0.2657
 1114YOPC   PO414502   5.034   1.833   6.224 -0.1308 -0.0489 -0.1659
 1114YOPC   GL114503   4.875   1.661   6.557  0.0524  0.2520 -0.1276
 1114YOPC   GL214504   4.880   1.921   6.758 -0.3458  0.0617  0.4752
 1114YOPC   C1A14505   5.059   1.471   6.914 -0.4536  0.2302 -0.0104
 1114YOPC   D2A14506   5.273   1.161   7.271  0.2335 -0.5728 -0.2571
 1114YOPC   C3A14507   5.039   0.902   7.575 -0.0508  0.0150  0.1500
 1114YOPC   C4A14508   5.017   0.589   7.870  0.0514 -0.2632 -0.1947
 1114YOPC   C1B14509   4.968   1.935   7.186  0.2460 -0.1240  0.0535
 1114YOPC   C2B14510   4.913   2.283   7.533  0.2252 -0.0449  0.2476
 1114YOPC   D3B14511   4.765   2.375   7.910  0.0596 -0.2339 -0.0368
 1114YOPC   C4B14512   4.430   2.658   8.139 -0.2197  0.1439 -0.2220
 1115YOPC   NC314513  10.501   1.355   4.922 -0.0102 -0.1958  0.0115
 1115YOPC   PO414514  10.526   1.169   5.219 -0.0498 -0.3200 -0.2280
 1115YOPC   GL114515  10.543   1.049   5.602 -0.1467 -0.1069 -0.1933
 1115YOPC   GL214516  10.653   0.764   5.723 -0.0215 -0.0184  0.3635
 1115YOPC   C1A14517  10.324   0.981   6.000  0.2222 -0.0493 -0.1499
 1115YOPC   D2A14518  10.244   0.901   6.429 -0.0529 -0.0639 -0.1388
 1115YOPC   C3A14519  10.230   1.168   6.806  0.0356  0.3119  0.2658
 1115YOPC   C4A14520  10.138   1.229   7.266 -0.0125 -0.0827 -0.0332
 1115YOPC   C1B14521  10.767   0.932   6.179 -0.1445  0.0741 -0.1126
 1115YOPC   C2B14522  10.798   1.069   6.552 -0.2462 -0.1656 -0.3444
 1115YOPC   D3B14523  10.876   0.881   7.010 -0.3582 -0.0142 -0.1427
 1115YOPC   C4B14524  11.062   1.122   7.394  0.1883  0.0783 -0.0353
 1116YOPC   NC314525  14.822   7.312   5.251  0.1570 -0.0860  0.0219
 1116YOPC   PO414526  14.465   7.385   5.463  0.0931 -0.0344  0.2356
 1116YOPC   GL114527  14.472   7.570   5.909  0.3185  0.0872  0.1307
 1116YOPC   GL214528  14.347   7.378   6.180 -0.0105  0.1463 -0.0626
 1116YOPC   C1A14529  14.481   7.792   6.372  0.1013  0.0023  0.0465
 1116YOPC   D2A14530  14.524   7.592   6.720 -0.1572 -0.1236 -0.0406
 1116YOPC   C3A14531  14.856   7.660   7.047 -0.1068  0.1486 -0.2187
 1116YOPC   C4A14532  15.257   7.824   7.129 -0.0611 -0.3522  0.0935
 1116YOPC   C1B14533  14.173   7.193   6.593  0.3879 -0.0978  0.1138
 1116YOPC   C2B14534  14.069   7.209   6.995  0.0764  0.0432 -0.1678
 1116YOPC   D3B14535  14.303   7.561   7.121 -0.0328 -0.2785  0.2064
 1116YOPC   C4B14536  14.365   7.973   7.230 -0.1567 -0.3742 -0.1451
 1117YOPC   NC314537  11.406  14.646   5.672 -0.1449  0.0614 -0.2081
 1117YOPC   PO414538  11.227  14.258   5.897  0.1619  0.0871  0.1127
 1117YOPC   GL114539  11.130  14.105   6.249 -0.1896  0.0431  0.1246
 1117YOPC   GL214540  10.958  14.344   6.439 -0.0208 -0.0527  0.0616
 1117YOPC   C1A14541  11.291  14.060   6.652  0.2513  0.0812 -0.1259
 1117YOPC   D2A14542  11.477  14.217   7.044 -0.1401 -0.2217  0.0481
 1117YOPC   C3A14543  11.483  14.603   7.261 -0.0169  0.0695  0.1517
 1117YOPC   C4A14544  11.360  14.710   7.799 -0.2462 -0.3307  0.0198
 1117YOPC   C1B14545  11.024  14.450   6.881 -0.1346  0.0629 -0.1589
 1117YOPC   C2B14546  10.899  14.414   7.273 -0.0054 -0.2147  0.0950
 1117YOPC   D3B14547  11.115  14.316   7.541 -0.2155 -0.3043  0.2126
 1117YOPC   C4B14548  10.738  14.278   7.760 -0.0580 -0.0347  0.3628
 1118YOPC   NC314549   8.862  17.211   5.557 -0.0121  0.0875  0.3898
 1118YOPC   PO414550   9.017  16.742   5.513  0.1072 -0.0419  0.0526
 1118YOPC   GL114551   9.243  16.759   5.917  0.1182  0.2740 -0.2133
 1118YOPC   GL214552   9.636  16.692   5.901  0.0229 -0.2208 -0.0155
 1118YOPC   C1A14553   9.371  16.660   6.286 -0.2721 -0.2922 -0.0095
 1118YOPC   D2A14554   9.558  16.438   6.632  0.1109  0.0190  0.0335
 1118YOPC   C3A14555   9.567  16.511   7.026 -0.2631 -0.1452 -0.1600
 1118YOPC   C4A14556   9.518  16.728   7.442  0.2792 -0.0527 -0.1130
 1118YOPC   C1B14557   9.895  16.426   6.248  0.2507  0.5254 -0.1899
 1118YOPC   C2B14558  10.255  16.385   6.373 -0.1874 -0.0840  0.0156
 1118YOPC   D3B14559  10.404  16.455   6.868 -0.2368 -0.1541 -0.0143
 1118YOPC   C4B14560  10.354  16.175   7.151 -0.0482  0.1004  0.1059
 1119YOPC   NC314561   4.528   5.059   5.807 -0.3167 -0.1299  0.1480
 1119YOPC   PO414562   4.940   5.113   5.907 -0.1615 -0.0926 -0.2472
 1119YOPC   GL114563   5.046   5.211   6.292  0.0365  0.0266 -0.0286
 1119YOPC   GL214564   5.351   5.397   6.342  0.0325  0.1556  0.0643
 1119YOPC   C1A14565   5.313   4.951   6.673  0.0026 -0.2279  0.1887
 1119YOPC   D2A14566   5.667   4.911   7.010  0.0512 -0.1332 -0.2649
 1119YOPC   C3A14567   5.506   5.062   7.425  0.1857  0.2888 -0.0827
 1119YOPC   C4A14568   5.395   5.371   7.514 -0.2175 -0.3485  0.3054
 1119YOPC   C1B14569   5.120   5.577   6.681 -0.0213  0.1117  0.0950
 1119YOPC   C2B14570   5.157   5.805   7.036 -0.1967  0.0193  0.4255
 1119YOPC   D3B14571   5.008   5.708   7.465  0.0833  0.2168 -0.0664
 1119YOPC   C4B14572   4.837   5.550   7.886 -0.1127 -0.2826  0.1248
 1120YOPC   NC314573  12.467  15.454   5.459 -0.3204  0.1579  0.0649
 1120YOPC   PO414574  12.731  15.693   5.832  0.2326 -0.2262 -0.0240
 1120YOPC   GL114575  12.609  15.334   5.944 -0.0405  0.1787 -0.0331
 1120YOPC   GL214576  12.853  15.131   5.787  0.1612  0.3417 -0.1396
 1120YOPC   C1A14577  12.515  15.070   6.338  0.1642 -0.0423 -0.0367
 1120YOPC   D2A14578  12.339  14.999   6.715 -0.1617 -0.1385 -0.0276
 1120YOPC   C3A14579  11.993  14.988   6.625  0.0416 -0.1285 -0.3643
 1120YOPC   C4A14580  11.730  15.078   6.314 -0.2390 -0.2894  0.1640
 1120YOPC   C1B14581  12.965  15.212   6.264 -0.1912 -0.0790 -0.1800
 1120YOPC   C2B14582  13.297  15.484   6.496  0.0785  0.1649  0.1409
 1120YOPC   D3B14583  13.188  15.492   6.856 -0.4796 -0.0032  0.2266
 1120YOPC   C4B14584  13.114  15.286   7.159  0.3436 -0.1688 -0.0768
 1121YOPC   NC314585   0.121   6.162   5.852  0.1751 -0.0271 -0.1949
 1121YOPC   PO414586   0.222   6.455   6.090  0.0136 -0.2406  0.0392
 1121YOPC   GL114587   0.165   6.133   6.401 -0.0384 -0.2683 -0.1483
 1121YOPC   GL214588   0.330   5.814   6.312 -0.1954 -0.1727  0.2056
 1121YOPC   C1A14589   0.295   6.133   6.827  0.0629 -0.2840  0.1828
 1121YOPC   D2A14590   0.510   6.121   7.137 -0.1578  0.2400 -0.0008
 1121YOPC   C3A14591   0.309   6.085   7.484  0.2104  0.3662 -0.0683
 1121YOPC   C4A14592   0.026   5.856   7.822  0.2073 -0.0883 -0.6018
 1121YOPC   C1B14593   0.495   5.732   6.774 -0.3793 -0.0206 -0.0599
 1121YOPC   C2B14594   0.584   5.571   7.210 -0.1187  0.0194  0.0656
 1121YOPC   D3B14595   0.774   5.817   7.455  0.0596  0.2408  0.4666
 1121YOPC   C4B14596   0.998   6.009   7.777  0.1199 -0.1522  0.2095
 1122YOPC   NC314597   4.760  10.783   5.696 -0.0186  0.0145  0.2784
 1122YOPC   PO414598   4.748  10.425   5.654  0.0629  0.2997  0.3151
 1122YOPC   GL114599   4.659  10.379   6.008 -0.2808 -0.1182  0.0967
 1122YOPC   GL214600   5.023  10.561   6.115  0.1928  0.0389  0.0961
 1122YOPC   C1A14601   4.877  10.087   6.271  0.0828  0.0525  0.2393
 1122YOPC   D2A14602   4.810   9.873   6.654 -0.2363 -0.0775  0.1520
 1122YOPC   C3A14603   4.726  10.103   7.005  0.0704  0.0416  0.0048
 1122YOPC   C4A14604   4.630  10.040   7.484  0.0901 -0.0949  0.3570
 1122YOPC   C1B14605   4.944  10.529   6.568  0.1637  0.1523  0.1603
 1122YOPC   C2B14606   4.568  10.611   6.936 -0.0644 -0.0813 -0.3763
 1122YOPC   D3B14607   4.295  10.349   7.089  0.0788 -0.1695  0.1283
 1122YOPC   C4B14608   3.846  10.160   6.967 -0.1817  0.0727 -0.0094
 1123YOPC   NC314609   0.651   6.819   6.082  0.0109  0.0996  0.0906
 1123YOPC   PO414610   0.314   6.966   6.145 -0.0586 -0.0487  0.3398
 1123YOPC   GL114611   0.320   7.173   6.544  0.0108  0.3664 -0.0109
 1123YOPC   GL214612   0.426   7.473   6.628  0.0518  0.0314 -0.2257
 1123YOPC   C1A14613   0.245   7.147   7.062 -0.0399 -0.1715  0.4337
 1123YOPC   D2A14614   0.348   7.263   7.411  0.2732 -0.2019  0.0760
 1123YOPC   C3A14615   0.140   7.145   7.697 -0.1352  0.0416  0.0798
 1123YOPC   C4A14616   0.140   7.153   8.163 -0.0379  0.2607 -0.0106
 1123YOPC   C1B14617   0.656   7.553   6.977  0.1535  0.1123  0.2048
 1123YOPC   C2B14618   0.763   7.577   7.399 -0.0859 -0.1044 -0.1419
 1123YOPC   D3B14619   0.722   8.079   7.527  0.0248  0.0582  0.1919
 1123YOPC   C4B14620   0.466   8.401   7.732 -0.0391 -0.0646  0.1136
 1124YOPC   NC314621  11.873   4.908   5.431 -0.2176  0.2079 -0.2226
 1124YOPC   PO414622  11.999   5.333   5.578 -0.1950  0.1086  0.2725
 1124YOPC   GL114623  11.943   5.463   5.978  0.0342 -0.2032  0.1703
 1124YOPC   GL214624  12.238   5.517   6.212  0.0655  0.4617  0.0638
 1124YOPC   C1A14625  11.806   5.563   6.398  0.4469 -0.0363 -0.0093
 1124YOPC   D2A14626  11.690   5.640   6.832  0.0742 -0.1042 -0.0727
 1124YOPC   C3A14627  11.888   5.792   7.152 -0.1427  0.1647 -0.0656
 1124YOPC   C4A14628  12.109   5.667   7.507 -0.0280 -0.2693  0.1385
 1124YOPC   C1B14629  12.172   5.492   6.688  0.2693 -0.0728 -0.0219
 1124YOPC   C2B14630  12.250   5.450   7.080  0.1993 -0.1382  0.1026
 1124YOPC   D3B14631  12.572   5.478   7.458 -0.2511 -0.0534  0.0479
 1124YOPC   C4B14632  12.791   5.613   7.806  0.0948  0.0158 -0.5570
 1125YOPC   NC314633   4.704  14.210   5.854 -0.2111  0.0897 -0.2114
 1125YOPC   PO414634   4.303  14.312   6.072 -0.0567  0.1022  0.1269
 1125YOPC   GL114635   4.472  14.074   6.385  0.0796 -0.3228 -0.0418
 1125YOPC   GL214636   4.649  14.363   6.539 -0.0036  0.0104  0.0907
 1125YOPC   C1A14637   4.500  13.979   6.788  0.1519  0.0784  0.2612
 1125YOPC   D2A14638   4.614  13.816   7.161 -0.0756 -0.1810 -0.1301
 1125YOPC   C3A14639   4.658  13.968   7.607  0.0356 -0.0071  0.0208
 1125YOPC   C4A14640   4.759  13.703   8.051  0.2001 -0.0831  0.1608
 1125YOPC   C1B14641   4.841  14.479   6.948  0.0385  0.0738  0.0262
 1125YOPC   C2B14642   4.856  14.337   7.347  0.1497  0.1445 -0.1591
 1125YOPC   D3B14643   4.671  14.495   7.654  0.2806 -0.2271  0.1544
 1125YOPC   C4B14644   4.732  14.249   8.092  0.4759 -0.0572 -0.1219
 1126YOPC   NC314645  17.606  11.314   5.679 -0.0413 -0.0290 -0.2520
 1126YOPC   PO414646  17.556  10.938   5.805  0.0273  0.2674  0.1026
 1126YOPC   GL114647  17.469  10.877   6.283  0.3021 -0.0204  0.2951
 1126YOPC   GL214648  17.599  11.146   6.472  0.0472  0.1026  0.1464
 1126YOPC   C1A14649  17.183  10.940   6.740 -0.1980  0.2138 -0.1161
 1126YOPC   D2A14650  17.073  10.717   7.027 -0.0491  0.0481  0.1052
 1126YOPC   C3A14651  17.339  10.436   7.194 -0.0090 -0.1272  0.0846
 1126YOPC   C4A14652  17.473  10.061   7.351 -0.1454  0.1115  0.1652
 1126YOPC   C1B14653  17.547  11.168   6.916 -0.1804 -0.1377 -0.0970
 1126YOPC   C2B14654  17.653  11.309   7.254 -0.0747  0.1674  0.3039
 1126YOPC   D3B14655  17.965  11.173   7.510 -0.0676  0.0670  0.0023
 1126YOPC   C4B14656  18.341  10.971   7.738  0.3493 -0.4077  0.0926
 1127YOPC   NC314657   9.507  13.284   5.889  0.1681 -0.1515  0.0506
 1127YOPC   PO414658   9.219  13.102   6.015  0.1452 -0.0746  0.1650
 1127YOPC   GL114659   9.430  13.349   6.361 -0.3409 -0.1221 -0.2369
 1127YOPC   GL214660   9.569  13.122   6.358  0.1014 -0.2630  0.3083
 1127YOPC   C1A14661   9.440  13.469   6.760  0.0129  0.1875  0.0909
 1127YOPC   D2A14662   9.397  13.357   7.132 -0.2428 -0.2801 -0.2407
 1127YOPC   C3A14663   9.596  13.060   7.404  0.0241  0.1370 -0.3016
 1127YOPC   C4A14664   9.982  13.040   7.480  0.0241 -0.0927 -0.0491
 1127YOPC   C1B14665   9.960  13.006   6.455 -0.2352  0.1780 -0.3556
 1127YOPC   C2B14666  10.235  12.828   6.723  0.0992 -0.0644 -0.1944
 1127YOPC   D3B14667  10.199  12.708   7.136  0.0723  0.0309 -0.2763
 1127YOPC   C4B14668  10.188  12.546   7.607  0.0694 -0.0414  0.1446
 1128YOPC   NC314669  16.889   5.715   5.548 -0.0357 -0.2326  0.3590
 1128YOPC   PO414670  16.557   5.758   5.661 -0.0068 -0.0768  0.0703
 1128YOPC   GL114671  16.753   5.775   6.021  0.0793  0.0122 -0.0361
 1128YOPC   GL214672  17.053   5.603   6.016  0.2424 -0.1796 -0.1577
 1128YOPC   C1A14673  16.656   5.846   6.517  0.0456 -0.0028 -0.4231
 1128YOPC   D2A14674  16.783   6.051   6.799 -0.0136 -0.1874  0.2111
 1128YOPC   C3A14675  16.436   6.271   7.050 -0.0083 -0.2248 -0.1541
 1128YOPC   C4A14676  16.171   6.228   7.423 -0.0630 -0.1949 -0.1089
 1128YOPC   C1B14677  16.848   5.429   6.413 -0.0476  0.0205  0.2607
 1128YOPC   C2B14678  16.918   5.467   6.769 -0.2507  0.2135 -0.2788
 1128YOPC   D3B14679  16.812   5.472   7.217 -0.0599 -0.3328  0.1934
 1128YOPC   C4B14680  16.680   5.649   7.563  0.2381 -0.0918 -0.2376
 1129YOPC   NC314681  11.761  12.135   5.991 -0.0442  0.1883 -0.1260
 1129YOPC   PO414682  11.621  11.754   6.028  0.0715 -0.0251 -0.0686
 1129YOPC   GL114683  11.658  11.788   6.472 -0.2402  0.2995 -0.0649
 1129YOPC   GL214684  11.992  11.793   6.585  0.3290  0.0513 -0.0422
 1129YOPC   C1A14685  11.659  11.742   6.958  0.0054  0.0628 -0.1026
 1129YOPC   D2A14686  11.482  11.700   7.299  0.3054 -0.2494 -0.0877
 1129YOPC   C3A14687  11.194  11.628   7.586  0.1057 -0.3653  0.0737
 1129YOPC   C4A14688  10.819  11.665   7.757 -0.0792 -0.0714 -0.1845
 1129YOPC   C1B14689  12.316  11.890   6.799  0.1587  0.0427  0.1595
 1129YOPC   C2B14690  12.680  11.723   6.931 -0.0705  0.0111  0.0093
 1129YOPC   D3B14691  12.781  12.087   7.040  0.2339 -0.1097 -0.0612
 1129YOPC   C4B14692  12.794  12.159   7.468  0.2660  0.0342  0.1242
 1130YOPC   NC314693  16.833   1.499   5.863  0.5145 -0.1440 -0.1870
 1130YOPC   PO414694  16.790   1.437   6.360 -0.0669  0.0698 -0.0481
 1130YOPC   GL114695  16.738   1.552   6.705 -0.0821 -0.1599  0.0660
 1130YOPC   GL214696  16.765   1.380   6.882 -0.2419  0.2869 -0.0027
 1130YOPC   C1A14697  16.513   1.789   7.024 -0.0407 -0.2522 -0.0774
 1130YOPC   D2A14698  16.171   2.049   7.291  0.0222  0.3072 -0.0292
 1130YOPC   C3A14699  15.904   2.105   7.054 -0.2961 -0.1655 -0.0184
 1130YOPC   C4A14700  15.658   2.093   6.839 -0.0620  0.1274  0.3121
 1130YOPC   C1B14701  16.820   1.227   7.234 -0.2612  0.2689  0.0487
 1130YOPC   C2B14702  16.710   1.430   7.580 -0.1199 -0.0145 -0.3621
 1130YOPC   D3B14703  16.669   1.539   7.935 -0.0970 -0.0984  0.1483
 1130YOPC   C4B14704  16.803   1.723   8.270 -0.0231  0.1103 -0.0605
 1131YOPC   NC314705   1.851   0.871   5.346  0.0298 -0.2052  0.0313
 1131YOPC   PO414706   1.933   1.150   5.736 -0.1053  0.2119 -0.5546
 1131YOPC   GL114707   1.992   0.783   6.131 -0.0626  0.2623  0.0545
 1131YOPC   GL214708   1.717   0.568   6.201  0.1231  0.1653 -0.0412
 1131YOPC   C1A14709   2.005   0.685   6.621  0.2404 -0.0777  0.2113
 1131YOPC   D2A14710   2.151   0.562   7.090  0.2383 -0.1108  0.0229
 1131YOPC   C3A14711   2.420   0.633   7.375  0.0208 -0.3572 -0.1917
 1131YOPC   C4A14712   2.576   0.709   7.748 -0.0705 -0.1218  0.0686
 1131YOPC   C1B14713   2.061   0.255   6.410 -0.0078  0.3799 -0.4936
 1131YOPC   C2B14714   2.303   0.196   6.683  0.2838  0.1533  0.1925
 1131YOPC   D3B14715   2.687   0.188   6.530 -0.4217  0.1497  0.2083
 1131YOPC   C4B14716   3.155   0.110   6.580 -0.1379 -0.2338 -0.0221
 1132YOPC   NC314717  14.681   1.921   5.972 -0.2612  0.0584 -0.1914
 1132YOPC   PO414718  15.098   1.727   5.923 -0.3641 -0.0380  0.2930
 1132YOPC   GL114719  14.981   1.782   6.400  0.1541 -0.4005 -0.3122
 1132YOPC   GL214720  15.256   1.873   6.521  0.0099 -0.0085  0.0202
 1132YOPC   C1A14721  14.735   1.551   6.695  0.1065  0.3203  0.0828
 1132YOPC   D2A14722  14.385   1.599   7.031  0.2905  0.0385  0.0509
 1132YOPC   C3A14723  14.380   1.685   7.388  0.2532  0.0440 -0.1477
 1132YOPC   C4A14724  14.591   1.377   7.717  0.1358 -0.0171  0.0597
 1132YOPC   C1B14725  15.169   1.887   6.984  0.0104  0.1058 -0.1313
 1132YOPC   C2B14726  15.143   1.889   7.410 -0.1027  0.0286 -0.0800
 1132YOPC   D3B14727  15.349   1.799   7.782 -0.1375  0.2637 -0.0473
 1132YOPC   C4B14728  15.637   1.864   7.972  0.0319  0.2608  0.1036
 1133YOPC   NC314729   0.448  17.426   5.555  0.4289 -0.1697  0.1240
 1133YOPC   PO414730   0.441  17.010   5.690  0.1677  0.1090  0.3242
 1133YOPC   GL114731   0.174  17.042   6.104 -0.0181 -0.0041 -0.1320
 1133YOPC   GL214732   0.394  17.126   6.267  0.1881 -0.0026 -0.3689
 1133YOPC   C1A14733  -0.047  16.945   6.532 -0.2439  0.3364 -0.0245
 1133YOPC   D2A14734  -0.391  16.763   6.642  0.4120 -0.0257  0.2493
 1133YOPC   C3A14735  -0.561  16.766   6.951 -0.0941  0.2250 -0.1990
 1133YOPC   C4A14736  -0.726  16.664   7.329  0.3122 -0.1369 -0.0423
 1133YOPC   C1B14737   0.280  17.266   6.644 -0.1320  0.5156  0.0168
 1133YOPC   C2B14738   0.156  17.158   6.952 -0.1184  0.0190  0.0726
 1133YOPC   D3B14739   0.250  17.260   7.380  0.1675  0.1938 -0.0867
 1133YOPC   C4B14740   0.032  17.356   7.748 -0.0421  0.0473 -0.0356
 1134YOPC   NC314741   7.598  13.591   6.394  0.2370  0.2360  0.2567
 1134YOPC   PO414742   7.295  13.701   6.454  0.1208 -0.0325  0.0887
 1134YOPC   GL114743   7.312  13.790   6.899 -0.2541  0.0582 -0.0504
 1134YOPC   GL214744   7.749  13.743   6.880  0.1674 -0.4795  0.1117
 1134YOPC   C1A14745   7.403  14.033   7.212 -0.0520 -0.0178  0.2614
 1134YOPC   D2A14746   7.575  13.998   7.629 -0.2093  0.1282  0.0098
 1134YOPC   C3A14747   7.787  13.702   7.917 -0.1068 -0.1140  0.2484
 1134YOPC   C4A14748   8.229  13.611   8.016  0.3637 -0.0385 -0.0122
 1134YOPC   C1B14749   7.876  13.716   7.217  0.1216  0.1256  0.0287
 1134YOPC   C2B14750   8.174  13.892   7.526 -0.2376 -0.2209 -0.1505
 1134YOPC   D3B14751   8.048  14.214   7.763 -0.1065  0.3059  0.1388
 1134YOPC   C4B14752   8.226  14.378   8.123 -0.3454 -0.1872  0.0575
 1135YOPC   NC314753   0.630  17.963   5.940 -0.0203 -0.0388 -0.3561
 1135YOPC   PO414754   0.558  17.628   6.016  0.1270  0.0289  0.1560
 1135YOPC   GL114755   0.584  17.611   6.431 -0.1439  0.2679  0.0643
 1135YOPC   GL214756   0.806  17.429   6.578 -0.1742  0.2843  0.2236
 1135YOPC   C1A14757   0.673  17.942   6.755 -0.1651 -0.1240  0.1162
 1135YOPC   D2A14758   0.502  18.043   7.136  0.2197 -0.0631  0.0429
 1135YOPC   C3A14759   0.257  18.231   6.977 -0.2104  0.0800 -0.3738
 1135YOPC   C4A14760  -0.139  18.297   6.909 -0.4105  0.4286  0.1498
 1135YOPC   C1B14761   0.689  17.111   6.867  0.0270 -0.1687 -0.1357
 1135YOPC   C2B14762   0.685  17.064   7.352 -0.2517 -0.2546  0.0652
 1135YOPC   D3B14763   0.911  16.835   7.749  0.1090 -0.0245 -0.0009
 1135YOPC   C4B14764   1.100  16.630   8.052  0.1343 -0.1729 -0.1937
 1136YOPC   NC314765   6.489   7.806   5.843 -0.0065 -0.6098  0.1125
 1136YOPC   PO414766   6.659   7.415   6.071 -0.0722  0.4125  0.0479
 1136YOPC   GL114767   6.706   7.411   6.533  0.0297  0.0144  0.0156
 1136YOPC   GL214768   6.751   7.054   6.498 -0.1004 -0.0647 -0.1282
 1136YOPC   C1A14769   6.631   7.670   6.816  0.1262 -0.0632  0.0404
 1136YOPC   D2A14770   6.758   8.009   7.124 -0.1011 -0.1800  0.0322
 1136YOPC   C3A14771   6.514   8.379   7.404 -0.1812 -0.0772 -0.2492
 1136YOPC   C4A14772   6.315   8.560   7.659  0.0755  0.1250  0.0986
 1136YOPC   C1B14773   6.778   7.155   6.953  0.0521  0.1843  0.0388
 1136YOPC   C2B14774   7.037   7.108   7.336  0.4294 -0.1230  0.2875
 1136YOPC   D3B14775   7.037   7.145   7.755  0.0910 -0.1464 -0.3375
 1136YOPC   C4B14776   7.270   6.982   8.027  0.0630  0.0562 -0.1384
 1137YOPC   NC314777  17.358  13.133   5.764  0.2453  0.1718  0.3082
 1137YOPC   PO414778  17.663  13.424   5.797  0.0983 -0.1098 -0.2262
 1137YOPC   GL114779  17.646  13.298   6.189 -0.1268 -0.0740  0.0080
 1137YOPC   GL214780  17.254  13.228   6.374 -0.1215 -0.0842  0.2670
 1137YOPC   C1A14781  17.725  13.365   6.593  0.3089  0.0721 -0.0006
 1137YOPC   D2A14782  17.917  13.330   6.928  0.0100 -0.0498 -0.2607
 1137YOPC   C3A14783  18.134  13.691   6.872 -0.0192 -0.1311  0.2225
 1137YOPC   C4A14784  18.421  13.661   7.241 -0.0518  0.1310  0.0038
 1137YOPC   C1B14785  17.319  13.254   6.843 -0.1981  0.2461  0.0409
 1137YOPC   C2B14786  17.550  13.077   7.189 -0.1360  0.0281  0.0887
 1137YOPC   D3B14787  17.373  12.936   7.612  0.1873 -0.3599  0.2212
 1137YOPC   C4B14788  17.131  13.150   7.996  0.1159  0.1116  0.4446
 1138YOPC   NC314789  11.754   5.832   5.661  0.3606 -0.0317 -0.0844
 1138YOPC   PO414790  12.027   6.152   5.760 -0.1349 -0.0972 -0.3775
 1138YOPC   GL114791  12.022   6.043   6.197  0.3222 -0.1484  0.0569
 1138YOPC   GL214792  12.208   6.322   6.418  0.0253  0.1522  0.1911
 1138YOPC   C1A14793  11.873   6.016   6.615  0.1358 -0.0098 -0.2274
 1138YOPC   D2A14794  12.134   6.177   6.928  0.0692 -0.1578 -0.0956
 1138YOPC   C3A14795  12.086   6.195   7.369 -0.0542  0.0346  0.0334
 1138YOPC   C4A14796  12.184   6.311   7.744 -0.4036 -0.1215 -0.0261
 1138YOPC   C1B14797  12.363   5.944   6.556 -0.1551  0.1004 -0.0331
 1138YOPC   C2B14798  12.497   5.820   6.925 -0.3584  0.1924  0.1407
 1138YOPC   D3B14799  12.547   5.962   7.284  0.0920 -0.0041 -0.0841
 1138YOPC   C4B14800  12.577   5.999   7.630 -0.2291 -0.1232 -0.4117
 1139YOPC   NC314801  15.777   8.500   5.138 -0.0688 -0.1257 -0.0075
 1139YOPC   PO414802  15.857   8.769   5.503  0.0776 -0.4046  0.0772
 1139YOPC   GL114803  15.848   8.461   5.746  0.2624 -0.3267 -0.0968
 1139YOPC   GL214804  15.623   8.215   5.609  0.0371  0.0010 -0.0125
 1139YOPC   C1A14805  15.989   8.277   5.983  0.1165  0.0861 -0.0714
 1139YOPC   D2A14806  16.169   8.238   6.369 -0.0948  0.0317 -0.0472
 1139YOPC   C3A14807  16.046   8.295   6.820 -0.0974 -0.3411 -0.1710
 1139YOPC   C4A14808  15.939   8.398   7.207 -0.1603 -0.1120 -0.1359
 1139YOPC   C1B14809  15.460   8.078   6.027 -0.1254 -0.1590 -0.0122
 1139YOPC   C2B14810  15.255   8.073   6.478 -0.2275  0.0078 -0.4611
 1139YOPC   D3B14811  14.871   7.930   6.582  0.2038  0.1813  0.1088
 1139YOPC   C4B14812  14.496   8.094   6.794 -0.1947  0.2335 -0.0258
 1140YOPC   NC314813  14.776   8.685   4.867 -0.0912  0.2018 -0.2601
 1140YOPC   PO414814  14.753   8.772   5.288  0.2843 -0.1010 -0.4454
 1140YOPC   GL114815  14.961   8.869   5.679 -0.0252  0.1307 -0.0932
 1140YOPC   GL214816  14.819   8.799   5.856  0.3661 -0.2466 -0.0015
 1140YOPC   C1A14817  15.365   8.752   5.932 -0.4401  0.0202  0.0131
 1140YOPC   D2A14818  15.477   8.547   6.275  0.0660 -0.0823  0.0235
 1140YOPC   C3A14819  15.707   8.268   6.451  0.1535  0.1928  0.2138
 1140YOPC   C4A14820  15.545   8.295   6.878  0.1233 -0.0839 -0.2404
 1140YOPC   C1B14821  15.012   8.443   6.085  0.0285 -0.1947  0.2906
 1140YOPC   C2B14822  14.813   8.037   6.040 -0.2518  0.1681  0.1046
 1140YOPC   D3B14823  15.040   7.757   6.133 -0.4109  0.3399  0.0321
 1140YOPC   C4B14824  15.383   7.516   6.029  0.0827  0.0661 -0.1610
 1141YOPC   NC314825   1.189   7.458   5.935 -0.1835 -0.0414 -0.2656
 1141YOPC   PO414826   1.579   7.608   6.186 -0.0762  0.0676  0.2637
 1141YOPC   GL114827   1.733   7.338   6.498 -0.2244 -0.2861 -0.1510
 1141YOPC   GL214828   1.504   7.084   6.630 -0.0150 -0.0094 -0.0106
 1141YOPC   C1A14829   1.869   7.274   6.927 -0.2664  0.1773  0.0138
 1141YOPC   D2A14830   1.858   7.085   7.265  0.1423 -0.1454  0.1576
 1141YOPC   C3A14831   1.971   6.883   7.624 -0.3884 -0.0405  0.2884
 1141YOPC   C4A14832   2.076   6.630   7.944 -0.2687  0.2418  0.0145
 1141YOPC   C1B14833   1.619   6.806   6.935 -0.1970  0.0487  0.1136
 1141YOPC   C2B14834   1.696   6.543   7.302 -0.3580  0.2593 -0.0289
 1141YOPC   D3B14835   1.691   6.375   7.677 -0.2744 -0.0886 -0.2740
 1141YOPC   C4B14836   2.011   6.090   7.785  0.2646  0.2392  0.1579
 1142YOPC   NC314837   6.887  10.583   4.981 -0.0056  0.2517 -0.1797
 1142YOPC   PO414838   6.795  10.345   5.410 -0.1769  0.1050  0.5205
 1142YOPC   GL114839   7.079  10.203   5.752  0.0023  0.2484  0.1988
 1142YOPC   GL214840   7.482  10.251   5.773  0.0554  0.2125 -0.0942
 1142YOPC   C1A14841   6.915  10.178   6.188  0.0419 -0.2349 -0.0934
 1142YOPC   D2A14842   6.734   9.895   6.535  0.0337 -0.0997  0.2294
 1142YOPC   C3A14843   6.796   9.956   7.006  0.0171  0.2733  0.2742
 1142YOPC   C4A14844   6.932   9.805   7.352 -0.0528  0.1799  0.2639
 1142YOPC   C1B14845   7.485  10.386   6.289 -0.1237  0.1522 -0.0996
 1142YOPC   C2B14846   7.282  10.680   6.638  0.0614 -0.3662 -0.0146
 1142YOPC   D3B14847   7.248  10.364   6.911  0.1134  0.2490  0.1283
 1142YOPC   C4B14848   7.023  10.287   7.284  0.3279  0.0898  0.1833
 1143YOPC   NC314849  10.176   1.967   5.537 -0.0391  0.1649  0.0367
 1143YOPC   PO414850  10.580   1.801   5.576 -0.1333  0.1066  0.0268
 1143YOPC   GL114851  10.687   2.073   5.925 -0.1518  0.1208  0.3768
 1143YOPC   GL214852  10.906   2.322   5.891  0.1002  0.0468  0.1836
 1143YOPC   C1A14853  10.462   2.286   6.193  0.1195  0.2099 -0.0630
 1143YOPC   D2A14854  10.255   2.599   6.348  0.0644  0.2459 -0.0860
 1143YOPC   C3A14855  10.260   2.963   6.584 -0.0810 -0.3948  0.0620
 1143YOPC   C4A14856  10.003   3.243   6.888 -0.0828 -0.0452  0.5803
 1143YOPC   C1B14857  10.979   2.186   6.322 -0.4937 -0.2559 -0.0710
 1143YOPC   C2B14858  11.166   2.014   6.663  0.1756 -0.0636 -0.1458
 1143YOPC   D3B14859  10.849   1.931   7.056  0.2793 -0.0224 -0.0614
 1143YOPC   C4B14860  10.969   1.984   7.549  0.1055  0.2647  0.0294
 1144ERGO   ROH14861  13.212   1.220   6.005  0.2094  0.0646 -0.0173
 1144ERGO    R114862  13.149   1.367   6.239  0.0423 -0.0754  0.0260
 1144ERGO    R214863  13.075   1.245   6.477  0.1639 -0.2286 -0.0221
 1144ERGO    R314864  13.279   1.392   6.578  0.0001 -0.0380  0.0418
 1144ERGO    R414865  13.110   1.333   6.809  0.0864 -0.3962  0.0328
 1144ERGO    R514866  13.177   1.529   6.745 -0.1592 -0.2638  0.1427
 1144ERGO    C114867  13.322   1.522   7.098 -0.1126 -0.3148  0.1247
 1144ERGO    C214868  13.345   1.608   7.371 -0.0362 -0.4353  0.2609
 1145ERGO   ROH14869   1.114   7.483   6.529 -0.0305  0.1009  0.0816
 1145ERGO    R114870   1.147   7.541   6.804 -0.0049 -0.0070  0.1031
 1145ERGO    R214871   1.171   7.343   6.996  0.0668 -0.0879  0.0234
 1145ERGO    R314872   1.399   7.477   7.059  0.0464 -0.0617  0.0356
 1145ERGO    R414873   1.333   7.324   7.300  0.1278 -0.1478 -0.0139
 1145ERGO    R514874   1.370   7.538   7.289  0.0784 -0.1449  0.0551
 1145ERGO    C114875   1.642   7.438   7.537  0.1441 -0.1582 -0.0240
 1145ERGO    C214876   1.652   7.536   7.868  0.0089  0.2093  0.3165
 1146ERGO   ROH14877  12.797   4.591   5.860 -0.0631  0.0554 -0.1715
 1146ERGO    R114878  12.821   4.617   6.141 -0.0907  0.0790 -0.1708
 1146ERGO    R214879  12.648   4.493   6.316 -0.1207  0.1059 -0.1755
 1146ERGO    R314880  12.878   4.394   6.422 -0.1371  0.0985 -0.1475
 1146ERGO    R414881  12.689   4.398   6.646 -0.1185  0.2151 -0.1445
 1146ERGO    R514882  12.887   4.488   6.642 -0.1053  0.1720 -0.1842
 1146ERGO    C114883  12.930   4.251   6.938 -0.1326  0.2718 -0.1002
 1146ERGO    C214884  12.943   4.179   7.224 -0.3776  0.0516  0.2564
 1147ERGO   ROH14885   1.603   7.939   6.630 -0.1032 -0.0645  0.0132
 1147ERGO    R114886   1.653   7.806   6.875  0.1470 -0.0438 -0.0233
 1147ERGO    R214887   1.901   7.806   6.997  0.1853  0.2829 -0.0863
 1147ERGO    R314888   1.761   7.901   7.209  0.1010  0.0486 -0.0350
 1147ERGO    R414889   2.034   7.870   7.309  0.1523  0.3563 -0.0874
 1147ERGO    R514890   1.854   7.787   7.398  0.2690  0.1083 -0.0832
 1147ERGO    C114891   1.980   7.997   7.690  0.0540  0.1791 -0.0398
 1147ERGO    C214892   2.119   8.221   7.935  0.3268 -0.0363  0.3556
 1148ERGO   ROH14893  16.892  10.524   6.390 -0.1490 -0.3227 -0.0705
 1148ERGO    R114894  16.811  10.610   6.648  0.0212 -0.2479 -0.0412
 1148ERGO    R214895  16.554  10.695   6.702  0.1445  0.0841  0.0275
 1148ERGO    R314896  16.567  10.505   6.896 -0.0633  0.0416  0.0021
 1148ERGO    R414897  16.327  10.662   6.961  0.0605  0.2524 -0.0224
 1148ERGO    R514898  16.494  10.618   7.095 -0.0011  0.0816  0.0051
 1148ERGO    C114899  16.207  10.464   7.293 -0.1835  0.3104 -0.0754
 1148ERGO    C214900  16.022  10.389   7.493 -0.1729  0.0736  0.2895
 1149ERGO   ROH14901   8.086  14.157   6.794 -0.0057 -0.0957 -0.0013
 1149ERGO    R114902   8.250  14.143   7.025 -0.1437 -0.1001  0.0983
 1149ERGO    R214903   8.445  14.330   7.080  0.0877 -0.3075  0.0163
 1149ERGO    R314904   8.314  14.350   7.317 -0.0177  0.0996 -0.0689
 1149ERGO    R414905   8.579  14.465   7.368  0.2759 -0.6037  0.0716
 1149ERGO    R514906   8.482  14.306   7.482 -0.2342 -0.3263  0.0484
 1149ERGO    C114907   8.534  14.562   7.759  0.2865 -0.3942  0.0240
 1149ERGO    C214908   8.694  14.829   8.024  0.1458  0.1558 -0.1521
 1150ERGO   ROH14909  13.569   0.913   6.128  0.0392  0.3570 -0.1594
 1150ERGO    R114910  13.496   0.988   6.391  0.1029  0.2650 -0.1154
 1150ERGO    R214911  13.614   0.877   6.616  0.1198  0.1502 -0.1847
 1150ERGO    R314912  13.662   1.137   6.678  0.1841  0.1146 -0.0813
 1150ERGO    R414913  13.654   1.000   6.936 -0.1595  0.0540 -0.1105
 1150ERGO    R514914  13.538   1.175   6.879 -0.0158  0.1285 -0.2009
 1150ERGO    C114915  13.722   1.316   7.181 -0.2616 -0.0354  0.0297
 1150ERGO    C214916  13.957   1.302   7.311 -0.0343 -0.0751  0.0972
 1151ERGO   ROH14917  11.796  15.543   6.204  0.1712  0.0730  0.1122
 1151ERGO    R114918  11.786  15.569   6.485  0.1158  0.0897  0.1095
 1151ERGO    R214919  11.551  15.611   6.623  0.0917  0.1404  0.0588
 1151ERGO    R314920  11.630  15.392   6.762  0.0237  0.1321  0.0837
 1151ERGO    R414921  11.451  15.536   6.945  0.1602  0.2615  0.1088
 1151ERGO    R514922  11.655  15.470   6.987  0.1375  0.1676  0.0568
 1151ERGO    C114923  11.467  15.285   7.263  0.1361  0.3242  0.1614
 1151ERGO    C214924  11.506  15.078   7.475  0.2236 -0.3378  0.2942
 1152ERGO   ROH14925   4.100  12.683   6.345 -0.3730 -0.1247  0.0216
 1152ERGO    R114926   4.016  12.597   6.601 -0.1282 -0.1277  0.1035
 1152ERGO    R214927   4.186  12.589   6.819 -0.0034  0.2026  0.0227
 1152ERGO    R314928   3.995  12.743   6.934 -0.1588 -0.0069  0.0502
 1152ERGO    R414929   4.102  12.583   7.154  0.1120  0.1594  0.0510
 1152ERGO    R514930   3.893  12.600   7.097  0.0663 -0.1066  0.1105
 1152ERGO    C114931   3.874  12.724   7.457  0.0333 -0.0625  0.0933
 1152ERGO    C214932   3.640  12.823   7.781 -0.1980 -0.2615 -0.0792
 1153ERGO   ROH14933  12.704   7.455   6.275  0.0385  0.0906 -0.0595
 1153ERGO    R114934  12.472   7.500   6.430  0.0506  0.0381 -0.0260
 1153ERGO    R214935  12.353   7.302   6.581  0.0667 -0.0114 -0.0785
 1153ERGO    R314936  12.381   7.483   6.782  0.0797 -0.0738 -0.0235
 1153ERGO    R414937  12.142   7.329   6.854  0.0511 -0.0587 -0.0856
 1153ERGO    R514938  12.157   7.546   6.837  0.0851 -0.0558 -0.0215
 1153ERGO    C114939  12.046   7.515   7.201  0.0542 -0.1447 -0.0381
 1153ERGO    C214940  11.967   7.727   7.481 -0.2527 -0.0377 -0.1425
 1154ERGO   ROH14941   2.174   8.624   6.440 -0.1281  0.0779 -0.0733
 1154ERGO    R114942   2.378   8.685   6.626 -0.0281 -0.1173 -0.1153
 1154ERGO    R214943   2.356   8.891   6.809  0.2514 -0.0234 -0.1770
 1154ERGO    R314944   2.410   8.695   6.988  0.0195 -0.0395 -0.1225
 1154ERGO    R414945   2.379   8.936   7.151  0.2119  0.0186 -0.1804
 1154ERGO    R514946   2.549   8.800   7.153  0.0795 -0.1425 -0.1107
 1154ERGO    C114947   2.444   8.777   7.518 -0.0289  0.0282 -0.1311
 1154ERGO    C214948   2.377   8.687   7.858 -0.0607  0.1251 -0.0832
 1155ERGO   ROH14949   9.487   1.531   6.092  0.0524 -0.0385 -0.0750
 1155ERGO    R114950   9.382   1.731   6.262 -0.0148  0.0489 -0.2201
 1155ERGO    R214951   9.164   1.885   6.194 -0.2445 -0.2786 -0.2138
 1155ERGO    R314952   9.066   1.796   6.431  0.0614 -0.1003 -0.0117
 1155ERGO    R414953   8.915   2.042   6.376 -0.1822 -0.2606 -0.1407
 1155ERGO    R514954   9.027   1.995   6.558  0.0428  0.0192 -0.1909
 1155ERGO    C114955   8.679   2.049   6.705  0.1411 -0.0828  0.0915
 1155ERGO    C214956   8.427   1.973   6.879  0.1801  0.1552  0.0481
 1156ERGO   ROH14957   6.962   0.579   6.784 -0.0980  0.0977 -0.1017
 1156ERGO    R114958   7.063   0.717   7.010 -0.0871  0.0994 -0.1073
 1156ERGO    R214959   6.944   0.703   7.259 -0.0928  0.1241 -0.1063
 1156ERGO    R314960   7.193   0.627   7.338 -0.1011  0.1019 -0.1019
 1156ERGO    R414961   7.055   0.699   7.586 -0.1056  0.0753 -0.1025
 1156ERGO    R514962   7.246   0.777   7.517 -0.1006  0.0735 -0.0812
 1156ERGO    C114963   7.353   0.626   7.850 -0.1210  0.0261 -0.0962
 1156ERGO    C214964   7.425   0.608   8.135 -0.0392 -0.1399  0.0813
 1157ERGO   ROH14965  13.027   5.959   5.959 -0.1513 -0.0278  0.0297
 1157ERGO    R114966  13.096   6.016   6.228  0.1226 -0.1323 -0.0170
 1157ERGO    R214967  12.908   6.080   6.420  0.3629  0.3208  0.0686
 1157ERGO    R314968  13.024   5.875   6.556 -0.0158  0.0820  0.0496
 1157ERGO    R414969  12.891   6.036   6.762  0.3795  0.4127  0.0826
 1157ERGO    R514970  13.101   5.975   6.759  0.2698 -0.0358  0.0138
 1157ERGO    C114971  12.990   5.818   7.089  0.0335  0.2420  0.0728
 1157ERGO    C214972  13.026   5.766   7.334 -0.3460 -0.2232  0.2051
 1158ERGO   ROH14973   9.397   7.296   5.837 -0.0042 -0.0801  0.0728
 1158ERGO    R114974   9.258   7.474   6.007  0.0869 -0.0181  0.0835
 1158ERGO    R214975   9.192   7.410   6.268  0.0199 -0.0154  0.0663
 1158ERGO    R314976   9.321   7.643   6.324  0.1566 -0.1020  0.1151
 1158ERGO    R414977   9.173   7.578   6.569 -0.0830  0.0563  0.0202
 1158ERGO    R514978   9.166   7.766   6.458  0.1444  0.0432 -0.0268
 1158ERGO    C114979   9.283   7.895   6.797 -0.0147  0.0168  0.0393
 1158ERGO    C214980   9.335   7.922   7.140 -0.1946 -0.0114 -0.2436
 1159ERGO   ROH14981   6.945  15.996   6.417  0.0100  0.1466  0.1241
 1159ERGO    R114982   6.929  15.788   6.608 -0.0559  0.1044  0.0732
 1159ERGO    R214983   7.144  15.713   6.765 -0.0515 -0.0609 -0.0033
 1159ERGO    R314984   6.968  15.755   6.968  0.0264 -0.0104  0.0528
 1159ERGO    R414985   7.211  15.652   7.098  0.0967  0.1156  0.0013
 1159ERGO    R514986   7.008  15.573   7.119  0.1309  0.0758  0.1245
 1159ERGO    C114987   7.085  15.655   7.483  0.2561  0.2658  0.0566
 1159ERGO    C214988   7.029  15.429   7.839  0.2022  0.1308  0.0779
 1160ERGO   ROH14989  14.667   9.348   5.918 -0.2262  0.0824  0.1663
 1160ERGO    R114990  14.836   9.330   6.145 -0.3182  0.0208  0.2312
 1160ERGO    R214991  15.004   9.536   6.222 -0.0920 -0.1276  0.1550
 1160ERGO    R314992  14.875   9.509   6.460 -0.2071  0.1749  0.1305
 1160ERGO    R414993  15.138   9.615   6.531 -0.1226 -0.0564  0.1497
 1160ERGO    R514994  15.044   9.436   6.612 -0.3409  0.1001  0.2424
 1160ERGO    C114995  15.095   9.636   6.933 -0.2485  0.2690  0.1235
 1160ERGO    C214996  15.334   9.788   7.119  0.2087 -0.0321 -0.0012
 1161ERGO   ROH14997   6.124   7.576   6.094  0.3023 -0.3498  0.0912
 1161ERGO    R114998   6.110   7.754   6.314  0.2884 -0.1848 -0.0398
 1161ERGO    R214999   5.967   7.695   6.543  0.1982  0.0241 -0.0360
 1161ERGO    R315000   6.205   7.747   6.665  0.1788  0.0375 -0.0054
 1161ERGO    R415001   6.004   7.777   6.877  0.1340  0.2593 -0.0854
 1161ERGO    R515002   6.155   7.924   6.819  0.1952  0.1661 -0.1495
 1161ERGO    C115003   6.248   7.874   7.186  0.0784  0.4089 -0.0853
 1161ERGO    C215004   6.046   7.706   7.449 -0.1284  0.1927  0.3200
 1162ERGO   ROH15005  11.961  12.389   6.348 -0.0476  0.3457 -0.0717
 1162ERGO    R115006  12.142  12.344   6.560 -0.1153  0.1834 -0.0484
 1162ERGO    R215007  12.296  12.545   6.669  0.0344  0.0467 -0.0190
 1162ERGO    R315008  12.183  12.463   6.902 -0.0625  0.1290 -0.0342
 1162ERGO    R415009  12.429  12.603   6.983 -0.0172  0.0443  0.0046
 1162ERGO    R515010  12.370  12.400   7.039 -0.1176  0.0720  0.0226
 1162ERGO    C115011  12.401  12.559   7.384 -0.1383  0.1203  0.0042
 1162ERGO    C215012  12.669  12.797   7.532 -0.1951  0.2279  0.0291
 1163ERGO   ROH15013  16.345  17.822   8.247 -0.0797  0.0345  0.0018
 1163ERGO    R115014  16.603  17.883   8.345 -0.0394  0.0828 -0.1304
 1163ERGO    R215015  16.724  18.128   8.303 -0.2070  0.1939  0.0122
 1163ERGO    R315016  16.748  18.127   8.574 -0.0084 -0.0539 -0.0032
 1163ERGO    R415017  16.993  18.257   8.478 -0.1604  0.1956 -0.0612
 1163ERGO    R515018  16.981  18.086   8.613  0.0483  0.0552 -0.2151
 1163ERGO    C115019  17.172  18.331   8.834  0.0534 -0.0360 -0.1185
 1163ERGO    C215020  17.438  18.403   9.053 -0.0666 -0.3748  0.3343
 1164ERGO   ROH15021  18.328   6.601   6.526  0.0956 -0.0255 -0.0044
 1164ERGO    R115022  18.361   6.709   6.785  0.0875 -0.0968  0.0259
 1164ERGO    R215023  18.156   6.835   6.920  0.0719 -0.1756  0.0716
 1164ERGO    R315024  18.215   6.654   7.115  0.1134 -0.2204  0.0181
 1164ERGO    R415025  18.094   6.880   7.258  0.1298 -0.2531  0.0932
 1164ERGO    R515026  18.287   6.788   7.300  0.1432 -0.2582  0.0367
 1164ERGO    C115027  18.113   6.736   7.636  0.2023 -0.3402  0.0556
 1164ERGO    C215028  18.142   6.913   7.948 -0.2927  0.0245 -0.2753
 1165ERGO   ROH15029   1.143   2.092   6.631  0.0877  0.0842  0.0792
 1165ERGO    R115030   1.299   2.133   6.864 -0.0263  0.0301  0.1656
 1165ERGO    R215031   1.191   2.122   7.118 -0.1323 -0.1224  0.1146
 1165ERGO    R315032   1.390   1.941   7.159 -0.0886 -0.0744  0.1174
 1165ERGO    R415033   1.283   1.995   7.426 -0.1734 -0.1753  0.1054
 1165ERGO    R515034   1.492   2.009   7.364 -0.1611 -0.0973  0.1616
 1165ERGO    C115035   1.523   1.751   7.644 -0.1564 -0.1611  0.1028
 1165ERGO    C215036   1.520   1.594   8.079 -0.5790  0.0002 -0.0706
 1166ERGO   ROH15037   4.699  12.121   6.194 -0.0003  0.0142  0.0371
 1166ERGO    R115038   4.812  12.024   6.435  0.0295 -0.1108 -0.0253
 1166ERGO    R215039   4.864  12.188   6.651  0.3354 -0.1648 -0.0483
 1166ERGO    R315040   4.713  12.006   6.785  0.2038  0.0033  0.0290
 1166ERGO    R415041   4.965  12.017   6.934  0.2714 -0.2528 -0.0796
 1166ERGO    R515042   4.869  11.838   6.854  0.0530 -0.1548 -0.0235
 1166ERGO    C115043   4.882  11.746   7.224  0.1106 -0.1462 -0.0252
 1166ERGO    C215044   4.815  11.397   7.400 -0.1432 -0.0256 -0.2674
 1167ERGO   ROH15045  10.729  15.774   5.809  0.2487  0.3591  0.0661
 1167ERGO    R115046  10.714  15.821   6.087  0.1991  0.3036  0.0711
 1167ERGO    R215047  10.499  15.948   6.205  0.2008  0.3091  0.0489
 1167ERGO    R315048  10.493  15.725   6.360  0.1307  0.2831  0.0120
 1167ERGO    R415049  10.407  15.943   6.538  0.2110  0.2995  0.0528
 1167ERGO    R515050  10.569  15.800   6.575  0.1703  0.2317  0.0233
 1167ERGO    C115051  10.348  15.730   6.878  0.1515  0.2693  0.0205
 1167ERGO    C215052  10.146  15.670   7.099 -0.0177 -0.0644 -0.0291
 1168ERGO   ROH15053   2.300   4.354   6.785 -0.1432 -0.2188  0.0984
 1168ERGO    R115054   2.312   4.518   7.016 -0.0889 -0.2671  0.1298
 1168ERGO    R215055   2.173   4.756   7.037  0.0456 -0.1913  0.1479
 1168ERGO    R315056   2.076   4.642   7.264 -0.0604 -0.1752  0.1116
 1168ERGO    R415057   2.074   4.930   7.318 -0.0222 -0.1729  0.1132
 1168ERGO    R515058   2.167   4.775   7.441 -0.0970 -0.1942  0.1464
 1168ERGO    C115059   1.926   4.925   7.696 -0.1613 -0.1470  0.0589
 1168ERGO    C215060   1.759   4.989   8.011  0.0502  0.0225 -0.0804
 1169ERGO   ROH15061  16.820  16.657   6.711  0.1838 -0.0146  0.0923
 1169ERGO    R115062  16.777  16.418   6.855  0.1847 -0.0329  0.0630
 1169ERGO    R215063  16.944  16.334   7.058  0.0806  0.0383  0.1826
 1169ERGO    R315064  16.713  16.325   7.201 -0.0174 -0.0560  0.0198
 1169ERGO    R415065  16.894  16.145   7.343 -0.0830 -0.0569  0.0917
 1169ERGO    R515066  16.694  16.097   7.271 -0.0202 -0.0783 -0.0609
 1169ERGO    C115067  16.648  16.026   7.642 -0.2701 -0.2012 -0.1140
 1169ERGO    C215068  16.472  16.129   7.905 -0.1455 -0.0766 -0.1724
 1170ERGO   ROH15069   2.288  10.665   6.222 -0.1438 -0.1253  0.0213
 1170ERGO    R115070   2.509  10.748   6.379 -0.1024 -0.2490  0.0310
 1170ERGO    R215071   2.484  10.927   6.588  0.0137 -0.1102 -0.0660
 1170ERGO    R315072   2.606  10.729   6.729 -0.2096 -0.1565  0.0650
 1170ERGO    R415073   2.692  10.977   6.859  0.0568 -0.1731 -0.0882
 1170ERGO    R515074   2.821  10.819   6.783 -0.1139 -0.3620  0.0192
 1170ERGO    C115075   2.928  10.821   7.149 -0.1278 -0.2532  0.0218
 1170ERGO    C215076   3.220  10.789   7.499 -0.0535  0.2296 -0.2001
 1171ERGO   ROH15077   6.404  11.001   6.160 -0.1266 -0.1763 -0.1150
 1171ERGO    R115078   6.270  11.002   6.410 -0.0723 -0.1282 -0.0861
 1171ERGO    R215079   6.224  10.772   6.555 -0.0634 -0.1031 -0.0436
 1171ERGO    R315080   6.350  10.910   6.753 -0.0070 -0.0876 -0.0903
 1171ERGO    R415081   6.315  10.640   6.862 -0.0710 -0.0506 -0.0187
 1171ERGO    R515082   6.253  10.827   6.955 -0.0110 -0.0097 -0.0600
 1171ERGO    C115083   6.487  10.693   7.226 -0.0225 -0.0056 -0.0479
 1171ERGO    C215084   6.637  10.514   7.563 -0.3630 -0.1005 -0.0417
 1172ERGO   ROH15085  15.146  14.327   6.447 -0.1667 -0.0416 -0.0482
 1172ERGO    R115086  15.185  14.348   6.727  0.0402 -0.1055 -0.0703
 1172ERGO    R215087  14.994  14.455   6.896  0.2397  0.0333  0.0731
 1172ERGO    R315088  15.024  14.219   7.027  0.1345 -0.0086  0.0224
 1172ERGO    R415089  15.066  14.424   7.232  0.3186 -0.0710  0.0471
 1172ERGO    R515090  15.201  14.260   7.183  0.2047 -0.1444 -0.0209
 1172ERGO    C115091  15.136  14.184   7.551  0.2656 -0.1709 -0.0157
 1172ERGO    C215092  15.166  14.357   7.909 -0.0570 -0.0255  0.2126
 1173ERGO   ROH15093   7.408  13.271   6.783 -0.2717  0.1727 -0.0942
 1173ERGO    R115094   7.522  13.274   7.042 -0.1567  0.1396 -0.1431
 1173ERGO    R215095   7.452  13.462   7.233 -0.0796  0.1116 -0.0831
 1173ERGO    R315096   7.402  13.241   7.384 -0.0059  0.0867 -0.0955
 1173ERGO    R415097   7.453  13.456   7.579 -0.0093  0.0704 -0.0840
 1173ERGO    R515098   7.553  13.262   7.570  0.0251  0.0934 -0.1242
 1173ERGO    C115099   7.406  13.245   7.922  0.1008  0.0232 -0.0962
 1173ERGO    C215100   7.422  13.436   8.198  0.3510  0.1563  0.0868
 1174ERGO   ROH15101   3.232  10.736   6.830 -0.1500  0.0043  0.2790
 1174ERGO    R115102   3.371  10.676   7.070  0.0481 -0.0387  0.1554
 1174ERGO    R215103   3.629  10.579   7.071  0.1095  0.1140 -0.0710
 1174ERGO    R315104   3.674  10.791   7.235  0.0926  0.0562  0.0100
 1174ERGO    R415105   3.917  10.628   7.256  0.1484  0.1173 -0.1318
 1174ERGO    R515106   3.793  10.699   7.421  0.1736  0.0082 -0.0641
 1174ERGO    C115107   4.127  10.856   7.517  0.1552  0.0649 -0.0912
 1174ERGO    C215108   4.463  11.007   7.593 -0.2086 -0.2527 -0.0636
 1175ERGO   ROH15109  12.010   2.773   6.070  0.2980 -0.1448  0.1281
 1175ERGO    R115110  11.923   2.823   6.334  0.1432  0.0321  0.0463
 1175ERGO    R215111  11.912   2.626   6.527 -0.0964  0.1300  0.1388
 1175ERGO    R315112  12.065   2.801   6.668 -0.0963  0.1156  0.1563
 1175ERGO    R415113  11.932   2.638   6.872 -0.1081  0.1088  0.1402
 1175ERGO    R515114  11.932   2.855   6.860 -0.1004  0.1083  0.1544
 1175ERGO    C115115  12.087   2.809   7.206 -0.1149  0.0830  0.1573
 1175ERGO    C215116  11.995   2.844   7.514  0.1485  0.1221  0.1745
 1176ERGO   ROH15117  14.475   6.920   6.284  0.0927  0.0406  0.0501
 1176ERGO    R115118  14.592   6.885   6.540  0.0935  0.0547  0.0516
 1176ERGO    R215119  14.676   7.098   6.696  0.0125  0.0667  0.0764
 1176ERGO    R315120  14.513   6.983   6.881  0.0454 -0.0079  0.0595
 1176ERGO    R415121  14.654   7.194   7.027 -0.1003  0.0986  0.0602
 1176ERGO    R515122  14.642   6.984   7.082  0.0133  0.0941  0.0831
 1176ERGO    C115123  14.489   7.143   7.394 -0.1350  0.0473  0.0348
 1176ERGO    C215124  14.501   7.416   7.579  0.2026  0.3476 -0.4291
 1177ERGO   ROH15125   9.630   9.345   6.810 -0.1868  0.1014  0.0142
 1177ERGO    R115126   9.623   9.410   7.085 -0.1775  0.0557  0.0237
 1177ERGO    R215127   9.667   9.222   7.284 -0.0612  0.0505 -0.0178
 1177ERGO    R315128   9.856   9.401   7.365 -0.1344  0.1260 -0.0067
 1177ERGO    R415129   9.800   9.237   7.602  0.1864 -0.1619 -0.1066
 1177ERGO    R515130   9.793   9.455   7.590 -0.0013 -0.1441  0.1064
 1177ERGO    C115131  10.055   9.413   7.864  0.2619 -0.2147 -0.1479
 1177ERGO    C215132  10.195   9.351   8.253  0.3325 -0.1200  0.2449
 1178ERGO   ROH15133   0.464   9.383   6.585  0.2973 -0.2227  0.1442
 1178ERGO    R115134   0.551   9.415   6.852  0.1296 -0.0301  0.1779
 1178ERGO    R215135   0.531   9.655   6.988 -0.1705  0.0081  0.0711
 1178ERGO    R315136   0.399   9.503   7.171 -0.1213 -0.0441  0.0643
 1178ERGO    R415137   0.425   9.766   7.297 -0.0319 -0.0975  0.1585
 1178ERGO    R515138   0.486   9.575   7.382 -0.0268 -0.1407  0.0594
 1178ERGO    C115139   0.239   9.689   7.649  0.0949 -0.2080  0.2030
 1178ERGO    C215140  -0.044   9.920   7.885 -0.3848  0.2921  0.1872
 1179ERGO   ROH15141  15.618  13.005   6.233  0.1008 -0.1125  0.1452
 1179ERGO    R115142  15.442  12.976   6.452  0.1183 -0.0941  0.1630
 1179ERGO    R215143  15.303  12.742   6.502 -0.0272 -0.0323  0.0850
 1179ERGO    R315144  15.419  12.765   6.747  0.0351 -0.2106  0.0723
 1179ERGO    R415145  15.173  12.615   6.796 -0.0506 -0.0579  0.0625
 1179ERGO    R515146  15.236  12.796   6.898  0.0921 -0.1459  0.1221
 1179ERGO    C115147  15.206  12.561   7.197 -0.0057 -0.2404  0.0374
 1179ERGO    C215148  15.194  12.336   7.589  0.2777  0.0722 -0.0793
 1180ERGO   ROH15149  10.935  17.880   6.062 -0.0290  0.1907  0.0397
 1180ERGO    R115150  10.973  17.937   6.337 -0.0122  0.1348  0.0496
 1180ERGO    R215151  10.763  17.988   6.509 -0.0140 -0.0517  0.1081
 1180ERGO    R315152  10.875  17.787   6.654  0.1457 -0.0236  0.0247
 1180ERGO    R415153  10.819  17.998   6.850 -0.0237 -0.1513  0.1124
 1180ERGO    R515154  11.010  17.899   6.816  0.0549  0.0158  0.0722
 1180ERGO    C115155  10.957  17.815   7.184  0.1206 -0.1829  0.0365
 1180ERGO    C215156  10.920  17.670   7.500 -0.1180  0.2609  0.1209
 1181ERGO   ROH15157   5.552  13.901   6.314 -0.0406 -0.1174 -0.0477
 1181ERGO    R115158   5.647  13.859   6.577 -0.0830 -0.3047 -0.0604
 1181ERGO    R215159   5.628  14.052   6.775  0.3178 -0.2605 -0.0535
 1181ERGO    R315160   5.503  13.854   6.912 -0.0568 -0.0270 -0.0431
 1181ERGO    R415161   5.652  14.002   7.116  0.2220 -0.2959 -0.0520
 1181ERGO    R515162   5.661  13.788   7.079 -0.1785 -0.3193 -0.0412
 1181ERGO    C115163   5.548  13.786   7.443 -0.1853 -0.0973 -0.0414
 1181ERGO    C215164   5.467  13.873   7.807 -0.0894  0.1910 -0.2192
 1182ERGO   ROH15165  10.655   6.721   6.361 -0.1599  0.0074  0.0344
 1182ERGO    R115166  10.566   6.752   6.628 -0.0569 -0.1091  0.0831
 1182ERGO    R215167  10.697   6.638   6.843  0.1936  0.0380  0.0089
 1182ERGO    R315168  10.698   6.894   6.936 -0.0617  0.0380  0.0193
 1182ERGO    R415169  10.750   6.728   7.172 -0.1153  0.0618  0.0554
 1182ERGO    R515170  10.594   6.879   7.151 -0.2139 -0.0482 -0.0555
 1182ERGO    C115171  10.782   7.020   7.451 -0.5350  0.0756  0.0922
 1182ERGO    C215172  10.688   7.091   7.772 -0.0872  0.1479  0.4420
 1183ERGO   ROH15173   7.643   1.582   6.624  0.0673  0.0245  0.0298
 1183ERGO    R115174   7.676   1.537   6.901 -0.0447 -0.0286  0.0359
 1183ERGO    R215175   7.898   1.624   7.040  0.0072 -0.2478  0.0994
 1183ERGO    R315176   7.712   1.742   7.200  0.0749 -0.0820  0.0581
 1183ERGO    R415177   7.942   1.693   7.376  0.1414  0.0920  0.0168
 1183ERGO    R515178   7.736   1.629   7.410  0.1551  0.1306  0.1638
 1183ERGO    C115179   7.793   1.842   7.722  0.2832  0.4455 -0.0701
 1183ERGO    C215180   7.881   1.956   8.102 -0.0141 -0.0516 -0.0963
 1184ERGO   ROH15181  13.105   5.548   5.870 -0.2520  0.1047  0.0688
 1184ERGO    R115182  13.236   5.444   6.098 -0.1953 -0.0170 -0.0171
 1184ERGO    R215183  13.346   5.606   6.294  0.0912 -0.1146 -0.0867
 1184ERGO    R315184  13.189   5.457   6.459  0.0564  0.0343  0.0142
 1184ERGO    R415185  13.389   5.580   6.635  0.1920 -0.0459 -0.0945
 1184ERGO    R515186  13.342   5.367   6.620  0.0514 -0.0165 -0.0146
 1184ERGO    C115187  13.267   5.425   6.990  0.2179  0.1338 -0.0043
 1184ERGO    C215188  13.386   5.439   7.331 -0.0921  0.1146  0.3295
 1185ERGO   ROH15189   4.402   2.990   6.766 -0.0068 -0.1732  0.0301
 1185ERGO    R115190   4.458   2.852   7.007  0.0013 -0.0611  0.0928
 1185ERGO    R215191   4.714   2.822   7.105  0.0063 -0.0475  0.0723
 1185ERGO    R315192   4.606   2.932   7.329  0.0520  0.0787  0.0389
 1185ERGO    R415193   4.842   2.787   7.425 -0.3025 -0.4806  0.1597
 1185ERGO    R515194   4.639   2.766   7.499 -0.4263 -0.0916 -0.0102
 1185ERGO    C115195   4.815   2.871   7.820 -0.4394 -0.6142  0.1792
 1185ERGO    C215196   4.848   2.969   8.088 -0.0548  0.1607 -0.0186
 1186ERGO   ROH15197   1.620   9.918   6.534 -0.0239 -0.0305  0.0539
 1186ERGO    R115198   1.521   9.854   6.792 -0.1212  0.0756  0.0406
 1186ERGO    R215199   1.684   9.761   6.995 -0.2599 -0.1778  0.0222
 1186ERGO    R315200   1.576   9.970   7.132  0.0280 -0.0474  0.0635
 1186ERGO    R415201   1.673   9.787   7.340 -0.3540 -0.3302  0.0337
 1186ERGO    R515202   1.472   9.868   7.323 -0.2286  0.0232 -0.0223
 1186ERGO    C115203   1.566   9.998   7.669 -0.1385 -0.2966  0.0793
 1186ERGO    C215204   1.811  10.172   7.790  0.0533  0.0680 -0.1518
 1187ERGO   ROH15205   2.799   5.286   6.543 -0.0301 -0.0149  0.1310
 1187ERGO    R115206   2.896   5.381   6.791  0.0999  0.0379  0.0619
 1187ERGO    R215207   3.146   5.495   6.820  0.0522  0.2010 -0.1256
 1187ERGO    R315208   3.004   5.701   6.928 -0.0021  0.1043 -0.0117
 1187ERGO    R415209   3.267   5.715   7.058  0.0104  0.1379 -0.0460
 1187ERGO    R515210   3.074   5.706   7.158  0.0297  0.0267 -0.0206
 1187ERGO    C115211   3.205   6.036   7.297 -0.0649  0.0103  0.1072
 1187ERGO    C215212   3.370   6.330   7.534 -0.3713 -0.0180  0.1061
 1188ERGO   ROH15213  12.037   8.929   6.235 -0.0839  0.0123  0.0534
 1188ERGO    R115214  12.067   8.821   6.495 -0.1021 -0.0471  0.0327
 1188ERGO    R215215  12.204   8.953   6.696 -0.0556 -0.1201  0.0589
 1188ERGO    R315216  11.972   8.916   6.833 -0.0639 -0.0835  0.0516
 1188ERGO    R415217  12.170   8.984   7.039 -0.1495  0.2328  0.0206
 1188ERGO    R515218  12.040   8.809   7.037 -0.0605  0.1709  0.1823
 1188ERGO    C115219  11.932   8.967   7.367 -0.2121  0.4727 -0.0087
 1188ERGO    C215220  12.005   9.148   7.635 -0.0281  0.0140 -0.0401
 1189ERGO   ROH15221   7.221   7.539   6.322 -0.0156  0.0262  0.0143
 1189ERGO    R115222   7.164   7.514   6.598 -0.1170  0.0812 -0.0014
 1189ERGO    R215223   7.361   7.494   6.789 -0.1874 -0.2189  0.0436
 1189ERGO    R315224   7.231   7.706   6.900  0.0854 -0.0397  0.0328
 1189ERGO    R415225   7.255   7.509   7.118 -0.4545 -0.2097 -0.0407
 1189ERGO    R515226   7.071   7.605   7.049 -0.2315  0.1574 -0.1601
 1189ERGO    C115227   7.071   7.716   7.414 -0.3539 -0.0361 -0.1000
 1189ERGO    C215228   7.197   7.828   7.697  0.1034  0.1041 -0.0659
 1190ERGO   ROH15229   2.251  14.403   6.649  0.2645 -0.0763  0.1165
 1190ERGO    R115230   2.376  14.463   6.896  0.2187  0.0140  0.1207
 1190ERGO    R215231   2.327  14.697   7.035  0.2649  0.1206 -0.0144
 1190ERGO    R315232   2.269  14.526   7.238  0.1376  0.2429  0.0505
 1190ERGO    R415233   2.263  14.792   7.361  0.2813  0.2697 -0.0554
 1190ERGO    R515234   2.379  14.621   7.429  0.1609  0.2388  0.0249
 1190ERGO    C115235   2.171  14.687   7.742  0.1713  0.4715 -0.0184
 1190ERGO    C215236   2.015  14.860   7.963  0.0836 -0.0124  0.0727
 1191ERGO   ROH15237   1.531  15.406   6.649  0.3448 -0.0021 -0.1178
 1191ERGO    R115238   1.497  15.364   6.927 -0.0098 -0.0491 -0.1640
 1191ERGO    R215239   1.701  15.404   7.110 -0.1562 -0.3458  0.0733
 1191ERGO    R315240   1.517  15.565   7.229 -0.1000 -0.1636 -0.0810
 1191ERGO    R415241   1.707  15.500   7.442 -0.2192 -0.1621  0.0232
 1191ERGO    R515242   1.491  15.474   7.449 -0.2373 -0.0237 -0.0382
 1191ERGO    C115243   1.538  15.707   7.747 -0.2032  0.1159 -0.1508
 1191ERGO    C215244   1.535  15.744   8.027  0.0137 -0.1985  0.3746
 1192ERGO   ROH15245   1.554  13.770   6.739  0.2210 -0.0455  0.0141
 1192ERGO    R115246   1.678  13.877   6.970  0.2440 -0.0477  0.0024
 1192ERGO    R215247   1.553  14.060   7.135  0.3173  0.0626 -0.0669
 1192ERGO    R315248   1.613  13.879   7.328  0.1943  0.0852 -0.0059
 1192ERGO    R415249   1.511  14.112   7.475  0.2616  0.1737 -0.0899
 1192ERGO    R515250   1.701  14.010   7.508  0.2123  0.0971 -0.0206
 1192ERGO    C115251   1.544  13.971   7.853  0.1136  0.2597 -0.0461
 1192ERGO    C215252   1.390  14.180   8.172 -0.5731  0.1818  0.2786
 1193ERGO   ROH15253   4.109  14.562   6.518 -0.0025 -0.2887 -0.0271
 1193ERGO    R115254   4.195  14.373   6.710  0.0323 -0.1599  0.0852
 1193ERGO    R215255   4.341  14.444   6.933 -0.0373  0.0077  0.0776
 1193ERGO    R315256   4.142  14.314   7.065 -0.0126 -0.0014  0.1060
 1193ERGO    R415257   4.362  14.330   7.259  0.0175  0.0067  0.0738
 1193ERGO    R515258   4.256  14.149   7.196  0.0150  0.0021  0.0877
 1193ERGO    C115259   4.188  14.140   7.572  0.0725 -0.0024  0.0982
 1193ERGO    C215260   4.234  14.306   7.926  0.1659 -0.1206 -0.0859
 1194ERGO   ROH15261   3.126   8.392   5.881 -0.0696  0.1198  0.0544
 1194ERGO    R115262   3.185   8.291   6.139 -0.4262  0.0747  0.1256
 1194ERGO    R215263   3.419   8.355   6.273 -0.2912 -0.4680  0.1832
 1194ERGO    R315264   3.246   8.431   6.469 -0.1838  0.0792  0.0788
 1194ERGO    R415265   3.512   8.471   6.585 -0.1292 -0.3335  0.0852
 1194ERGO    R515266   3.349   8.356   6.672 -0.3787  0.0794  0.1746
 1194ERGO    C115267   3.405   8.610   6.950  0.0660  0.2586 -0.0698
 1194ERGO    C215268   3.413   8.666   7.250 -0.1838  0.0271  0.1316
 1195ERGO   ROH15269  18.005   4.621   6.489  0.1090  0.1032 -0.0102
 1195ERGO    R115270  18.094   4.529   6.741  0.0808 -0.0089 -0.0411
 1195ERGO    R215271  18.332   4.611   6.853  0.0228  0.0065  0.0581
 1195ERGO    R315272  18.174   4.677   7.064 -0.0420 -0.1668  0.0661
 1195ERGO    R415273  18.441   4.635   7.180  0.0769  0.2998  0.0210
 1195ERGO    R515274  18.255   4.540   7.243  0.2307  0.0175  0.0992
 1195ERGO    C115275  18.356   4.712   7.568  0.0473  0.3078  0.0069
 1195ERGO    C215276  18.572   4.931   7.815 -0.1183  0.2178  0.3003
 1196ERGO   ROH15277   7.887   6.460   6.582  0.2163  0.1165 -0.0206
 1196ERGO    R115278   7.877   6.260   6.783 -0.1634  0.2542  0.1057
 1196ERGO    R215279   8.099   6.113   6.858 -0.4939 -0.3377 -0.0277
 1196ERGO    R315280   8.034   6.202   7.106 -0.0101  0.0063 -0.0090
 1196ERGO    R415281   8.190   5.959   7.153 -0.7082 -0.4854 -0.0354
 1196ERGO    R515282   7.992   6.003   7.232 -0.5289  0.1789  0.1215
 1196ERGO    C115283   8.182   5.954   7.559 -0.3789 -0.2485 -0.0223
 1196ERGO    C215284   8.444   5.798   7.676  0.0646 -0.3820 -0.1372
 1197ERGO   ROH15285  15.369   4.843   6.369  0.5476  0.2461 -0.0981
 1197ERGO    R115286  15.393   4.687   6.604  0.2460  0.1934 -0.0959
 1197ERGO    R215287  15.636   4.638   6.726  0.1455 -0.1551 -0.0037
 1197ERGO    R315288  15.510   4.740   6.945  0.1977  0.0146 -0.0534
 1197ERGO    R415289  15.719   4.565   7.054 -0.0387 -0.1959  0.0334
 1197ERGO    R515290  15.506   4.558   7.101 -0.0533  0.0489 -0.0266
 1197ERGO    C115291  15.649   4.618   7.450 -0.0971 -0.0604  0.0083
 1197ERGO    C215292  15.641   4.540   7.807 -0.0602 -0.2009 -0.1711
 1198ERGO   ROH15293  15.368   1.453   6.310  0.1627  0.0841 -0.0725
 1198ERGO    R115294  15.375   1.331   6.565  0.0255 -0.1043 -0.1550
 1198ERGO    R215295  15.387   1.477   6.800  0.3214 -0.2741 -0.0503
 1198ERGO    R315296  15.167   1.331   6.864  0.0895  0.0389 -0.1119
 1198ERGO    R415297  15.325   1.337   7.110  0.1333 -0.3859 -0.1378
 1198ERGO    R515298  15.249   1.160   7.009 -0.1726 -0.1947 -0.2395
 1198ERGO    C115299  15.082   1.118   7.349 -0.1940 -0.1571 -0.2466
 1198ERGO    C215300  14.900   0.943   7.486  0.1433 -0.4305  0.1281
 1199ERGO   ROH15301   2.837   8.033   5.960 -0.0346 -0.0040  0.0037
 1199ERGO    R115302   2.874   7.911   6.213 -0.0902  0.1602  0.0922
 1199ERGO    R215303   3.124   7.862   6.320 -0.1020 -0.1224 -0.0042
 1199ERGO    R315304   3.025   8.002   6.531  0.2153  0.2189 -0.0630
 1199ERGO    R415305   3.293   7.921   6.616  0.0531 -0.3683 -0.0411
 1199ERGO    R515306   3.107   7.886   6.724 -0.0410  0.1086 -0.0102
 1199ERGO    C115307   3.299   8.086   6.986  0.4413 -0.1910 -0.1177
 1199ERGO    C215308   3.291   8.206   7.366  0.1549 -0.0945 -0.1615
 1200ERGO   ROH15309   8.017   8.796   5.788 -0.0973 -0.0499 -0.0690
 1200ERGO    R115310   7.893   8.806   6.042  0.0185  0.0376 -0.0147
 1200ERGO    R215311   7.802   9.042   6.155  0.0389  0.0739 -0.0680
 1200ERGO    R315312   7.568   8.905   6.174  0.0664  0.0493  0.0929
 1200ERGO    R415313   7.545   9.121   6.371  0.1029  0.1476 -0.0183
 1200ERGO    R515314   7.517   8.908   6.408  0.1484  0.1667  0.1076
 1200ERGO    C115315   7.175   9.037   6.516  0.1657  0.1673  0.1616
 1200ERGO    C215316   6.782   9.036   6.648  0.0001  0.1308  0.0629
 1201ERGO   ROH15317   5.422  12.944   6.375  0.0929  0.0558 -0.0760
 1201ERGO    R115318   5.459  13.052   6.635  0.0525  0.0088 -0.0510
 1201ERGO    R215319   5.325  12.954   6.857  0.0541 -0.0618 -0.0827
 1201ERGO    R315320   5.577  12.929   6.956  0.0504 -0.0346 -0.0661
 1201ERGO    R415321   5.406  12.948   7.193  0.0430  0.0916 -0.0765
 1201ERGO    R515322   5.579  13.071   7.149  0.0554  0.0586 -0.1323
 1201ERGO    C115323   5.689  12.921   7.482  0.0331  0.2066 -0.0572
 1201ERGO    C215324   5.720  12.748   7.778 -0.2094 -0.0593 -0.2989
 1202ERGO   ROH15325  17.271   1.535   6.611  0.2446  0.0302  0.0247
 1202ERGO    R115326  17.255   1.643   6.872  0.1652  0.1817 -0.0385
 1202ERGO    R215327  17.132   1.885   6.927 -0.0346  0.1297 -0.1828
 1202ERGO    R315328  16.990   1.736   7.104  0.0912  0.1108 -0.0994
 1202ERGO    R415329  16.941   2.012   7.185  0.0347  0.0836 -0.1106
 1202ERGO    R515330  17.013   1.851   7.312  0.1375  0.1328 -0.1274
 1202ERGO    C115331  16.696   1.946   7.501  0.1935  0.0390  0.0096
 1202ERGO    C215332  16.386   1.874   7.696 -0.2124 -0.2096 -0.1409
 1203ERGO   ROH15333   0.499  16.703   6.456  0.1889  0.2558  0.0526
 1203ERGO    R115334   0.418  16.622   6.715  0.1226  0.2292  0.0239
 1203ERGO    R215335   0.581  16.477   6.884  0.0321  0.0963  0.0016
 1203ERGO    R315336   0.528  16.679   7.057  0.1237  0.0802  0.0486
 1203ERGO    R415337   0.524  16.438   7.222 -0.0313  0.0416 -0.0154
 1203ERGO    R515338   0.367  16.588   7.208  0.0549  0.1318  0.0049
 1203ERGO    C115339   0.441  16.605   7.582  0.0177 -0.0051  0.0189
 1203ERGO    C215340   0.441  16.885   7.796  0.3162  0.0268  0.1522
 1204ERGO   ROH15341  11.434   3.759   6.286 -0.1186  0.1869 -0.1070
 1204ERGO    R115342  11.501   3.716   6.558 -0.0863  0.0616 -0.1341
 1204ERGO    R215343  11.532   3.923   6.738  0.0267 -0.0152 -0.0636
 1204ERGO    R315344  11.348   3.782   6.881 -0.0028  0.0034 -0.0822
 1204ERGO    R415345  11.533   3.890   7.082 -0.0207 -0.0037 -0.0622
 1204ERGO    R515346  11.475   3.681   7.057 -0.0333 -0.0004 -0.0624
 1204ERGO    C115347  11.362   3.738   7.417 -0.0759  0.0205 -0.0789
 1204ERGO    C215348  11.366   3.645   7.710  0.2406 -0.0581 -0.0728
 1205ERGO   ROH15349   3.801   5.149   6.652 -0.2191  0.2032 -0.1319
 1205ERGO    R115350   3.678   5.019   6.871 -0.0986  0.0015 -0.1812
 1205ERGO    R215351   3.747   4.764   6.951  0.2800  0.1064 -0.1596
 1205ERGO    R315352   3.783   4.884   7.192 -0.0038  0.1646 -0.1424
 1205ERGO    R415353   3.811   4.597   7.247  0.3688  0.1986 -0.1260
 1205ERGO    R515354   3.677   4.737   7.349  0.1225  0.0181 -0.1921
 1205ERGO    C115355   3.882   4.613   7.646  0.1540  0.3068 -0.0903
 1205ERGO    C215356   3.874   4.561   7.986  0.0640  0.0068  0.2886
 1206ERGO   ROH15357  17.915  16.223   6.706  0.0402 -0.0362 -0.1967
 1206ERGO    R115358  17.836  16.172   6.973 -0.1263  0.0655 -0.2254
 1206ERGO    R215359  17.989  16.022   7.148 -0.3518 -0.0766 -0.1480
 1206ERGO    R315360  17.967  16.242   7.306 -0.1957 -0.0398 -0.1748
 1206ERGO    R415361  17.982  16.017   7.493 -0.4288 -0.0393 -0.1484
 1206ERGO    R515362  17.828  16.171   7.487 -0.2974  0.0957 -0.1965
 1206ERGO    C115363  17.957  16.221   7.843 -0.3269  0.0170 -0.1739
 1206ERGO    C215364  18.174  16.116   8.134  0.0479 -0.0056  0.0396
 1207ERGO   ROH15365  18.094   1.980   6.767 -0.2450  0.1176 -0.0037
 1207ERGO    R115366  18.026   1.947   7.040 -0.1439  0.3005  0.0463
 1207ERGO    R215367  18.097   1.721   7.184 -0.5130  0.1675  0.0334
 1207ERGO    R315368  18.206   1.904   7.353 -0.0225 -0.0205 -0.0637
 1207ERGO    R415369  18.147   1.672   7.522 -0.5075  0.1646  0.0319
 1207ERGO    R515370  18.083   1.877   7.557 -0.0192  0.3351 -0.0108
 1207ERGO    C115371  18.279   1.814   7.878 -0.0441 -0.0134 -0.0601
 1207ERGO    C215372  18.294   1.853   8.277  0.0139 -0.3753  0.2487
 1208ERGO   ROH15373   0.699   1.928   6.734  0.0377 -0.0312  0.1278
 1208ERGO    R115374   0.790   2.115   6.926  0.0012  0.0454  0.0710
 1208ERGO    R215375   0.617   2.257   7.089 -0.0248  0.0378  0.0489
 1208ERGO    R315376   0.771   2.153   7.287  0.0235  0.1346  0.0632
 1208ERGO    R415377   0.654   2.396   7.403 -0.1959  0.0274  0.0748
 1208ERGO    R515378   0.866   2.344   7.395 -0.1507  0.1992  0.1066
 1208ERGO    C115379   0.820   2.379   7.772 -0.2501  0.1122  0.1033
 1208ERGO    C215380   0.853   2.273   8.085 -0.0719  0.0093 -0.0909
 1209ERGO   ROH15381  17.384   8.702   6.368 -0.0248  0.0138 -0.0311
 1209ERGO    R115382  17.198   8.809   6.552 -0.0943 -0.0797 -0.0483
 1209ERGO    R215383  16.972   8.672   6.633  0.0986 -0.2931  0.1137
 1209ERGO    R315384  17.071   8.721   6.881  0.1125 -0.0021  0.0570
 1209ERGO    R415385  16.784   8.681   6.923  0.1527 -0.3260  0.1518
 1209ERGO    R515386  16.902   8.852   6.988 -0.0285 -0.1273  0.0064
 1209ERGO    C115387  16.767   8.732   7.325  0.1972 -0.0720  0.1208
 1209ERGO    C215388  16.711   8.639   7.712 -0.0977  0.4021  0.0891
 1210ERGO   ROH15389   5.325   8.306   7.258 -0.1298  0.2826 -0.1293
 1210ERGO    R115390   5.362   8.174   7.506  0.1532  0.0174 -0.3044
 1210ERGO    R215391   5.602   8.178   7.642  0.1443  0.3856 -0.2930
 1210ERGO    R315392   5.449   8.271   7.847 -0.0945 -0.2436 -0.1620
 1210ERGO    R415393   5.704   8.196   7.972  0.3171  0.6683 -0.3579
 1210ERGO    R515394   5.504   8.129   8.032  0.5781 -0.1140 -0.2364
 1210ERGO    C115395   5.619   8.294   8.356  0.1934  0.2423 -0.2727
 1210ERGO    C215396   5.855   8.408   8.486 -0.0425 -0.0988  0.0941
 1211ERGO   ROH15397   5.867   5.660   6.349  0.1050  0.0001 -0.1575
 1211ERGO    R115398   6.054   5.702   6.557  0.0009  0.1573 -0.0940
 1211ERGO    R215399   6.045   5.924   6.723 -0.2779  0.1214 -0.0548
 1211ERGO    R315400   6.043   5.736   6.920 -0.1432  0.0817 -0.0907
 1211ERGO    R415401   6.084   5.990   7.060 -0.2756  0.0770 -0.0464
 1211ERGO    R515402   6.208   5.812   7.076 -0.1689  0.1473 -0.0963
 1211ERGO    C115403   6.105   5.852   7.441 -0.1479  0.0138 -0.0752
 1211ERGO    C215404   6.174   5.827   7.819 -0.2289  0.0696 -0.0839
 1212ERGO   ROH15405  15.673  18.287   6.709  0.2008  0.1923 -0.0587
 1212ERGO    R115406  15.784  18.110   6.899  0.0834  0.1321 -0.0457
 1212ERGO    R215407  15.826  18.181   7.163 -0.0391  0.0625 -0.0074
 1212ERGO    R315408  15.678  17.958   7.213 -0.0922  0.0686 -0.1342
 1212ERGO    R415409  15.796  18.028   7.471 -0.0937 -0.0919 -0.0883
 1212ERGO    R515410  15.808  17.835   7.371 -0.1297 -0.0433 -0.1889
 1212ERGO    C115411  15.640  17.730   7.697 -0.1753 -0.1763 -0.2544
 1212ERGO    C215412  15.553  17.827   8.045  0.4131  0.1743  0.0791
 1213ERGO   ROH15413   8.168   7.969   6.190  0.0206  0.1897 -0.0725
 1213ERGO    R115414   8.236   8.036   6.456  0.0184  0.0166 -0.0288
 1213ERGO    R215415   8.085   8.207   6.610  0.0916  0.0174  0.0324
 1213ERGO    R315416   8.084   8.000   6.785 -0.0460 -0.0693 -0.0660
 1213ERGO    R415417   7.978   8.227   6.938  0.1524 -0.0489  0.0576
 1213ERGO    R515418   8.146   8.099   6.994  0.0650 -0.2114 -0.0256
 1213ERGO    C115419   7.917   8.043   7.294  0.0587 -0.1690 -0.0202
 1213ERGO    C215420   7.951   7.987   7.593 -0.0312 -0.0267  0.0531
 1214ERGO   ROH15421  10.310   7.110   6.266 -0.0278  0.1540 -0.1414
 1214ERGO    R115422  10.295   7.219   6.527  0.0874  0.0600 -0.0954
 1214ERGO    R215423  10.092   7.155   6.704  0.0861  0.1101 -0.0841
 1214ERGO    R315424  10.299   7.091   6.867  0.0791 -0.0754 -0.1448
 1214ERGO    R415425  10.070   7.122   7.047  0.1354  0.0593 -0.0852
 1214ERGO    R515426  10.262   7.222   7.064  0.2174 -0.0835 -0.1092
 1214ERGO    C115427  10.251   7.042   7.400  0.1575 -0.1445 -0.1428
 1214ERGO    C215428  10.215   7.041   7.652 -0.0181 -0.1355  0.4515
 1215ERGO   ROH15429   7.234   2.343   6.527 -0.1491 -0.1445  0.3398
 1215ERGO    R115430   7.056   2.443   6.723 -0.1745  0.0773  0.2076
 1215ERGO    R215431   7.136   2.497   6.982 -0.3087 -0.0758  0.2853
 1215ERGO    R315432   7.031   2.742   6.928  0.0810  0.0858  0.2283
 1215ERGO    R415433   6.973   2.698   7.211 -0.3027  0.0857  0.1494
 1215ERGO    R515434   6.830   2.751   7.057 -0.0582  0.3242 -0.0007
 1215ERGO    C115435   6.780   3.045   7.294  0.0667  0.3314  0.0169
 1215ERGO    C215436   6.740   3.277   7.541  0.4106  0.2732 -0.2869
 1216ERGO   ROH15437   7.949  15.069   6.481 -0.2778  0.1406 -0.0481
 1216ERGO    R115438   7.931  15.072   6.763 -0.3990  0.0592 -0.0542
 1216ERGO    R215439   8.151  15.108   6.927 -0.3853 -0.4707  0.0651
 1216ERGO    R315440   8.001  15.309   7.030 -0.0163 -0.1899  0.0745
 1216ERGO    R415441   8.142  15.197   7.261  0.0605 -0.2059  0.0149
 1216ERGO    R515442   7.927  15.226   7.242  0.0784  0.0664  0.2102
 1216ERGO    C115443   7.995  15.438   7.552  0.6666  0.2117 -0.0055
 1216ERGO    C215444   8.046  15.435   7.859 -0.1531  0.1277 -0.0202
 1217ERGO   ROH15445  13.144   0.768   6.131 -0.1162  0.1474 -0.0815
 1217ERGO    R115446  13.052   0.775   6.399  0.0398 -0.0539 -0.0197
 1217ERGO    R215447  13.193   0.661   6.608  0.3090  0.0427 -0.1422
 1217ERGO    R315448  13.169   0.910   6.716  0.0761 -0.0178 -0.0490
 1217ERGO    R415449  13.252   0.739   6.939  0.1892 -0.0311 -0.1034
 1217ERGO    R515450  13.079   0.871   6.934  0.0751 -0.1795 -0.0781
 1217ERGO    C115451  13.264   1.017   7.234 -0.0993 -0.1309  0.0067
 1217ERGO    C215452  13.113   1.165   7.522  0.0448  0.1291  0.3334
 1218ERGO   ROH15453  16.836  18.010   6.651  0.0199 -0.2595  0.0036
 1218ERGO    R115454  16.742  18.014   6.918  0.0443 -0.0937  0.0108
 1218ERGO    R215455  16.871  17.882   7.123 -0.0083 -0.0749  0.0577
 1218ERGO    R315456  16.867  18.127   7.240  0.1328 -0.0205 -0.0491
 1218ERGO    R415457  16.901  17.940   7.463 -0.1813  0.0422  0.0538
 1218ERGO    R515458  16.748  18.094   7.445 -0.0334  0.1727 -0.1123
 1218ERGO    C115459  16.914  18.205   7.770 -0.1496  0.1613 -0.0488
 1218ERGO    C215460  17.154  18.334   7.934  0.1478 -0.1247  0.0604
 1219ERGO   ROH15461  17.245   5.732   6.511  0.3490  0.0470  0.0156
 1219ERGO    R115462  17.348   5.766   6.772  0.2362 -0.0391  0.0722
 1219ERGO    R215463  17.187   5.827   6.989  0.1539 -0.0209  0.0058
 1219ERGO    R315464  17.305   5.607   7.096  0.0225 -0.0836  0.0236
 1219ERGO    R415465  17.245   5.777   7.326  0.0101 -0.0837  0.0218
 1219ERGO    R515466  17.438   5.691   7.276 -0.0067 -0.1597  0.0821
 1219ERGO    C115467  17.389   5.540   7.623 -0.1969 -0.1792  0.0478
 1219ERGO    C215468  17.427   5.364   7.976 -0.2035 -0.3325 -0.0075
 1220ERGO   ROH15469   6.689   1.413   6.891  0.3810 -0.1101  0.1025
 1220ERGO    R115470   6.641   1.606   7.092  0.2697  0.0119 -0.0393
 1220ERGO    R215471   6.565   1.538   7.349  0.0605  0.1703 -0.0581
 1220ERGO    R315472   6.781   1.689   7.418  0.0407  0.1619  0.0234
 1220ERGO    R415473   6.629   1.657   7.667 -0.0185  0.1051 -0.0175
 1220ERGO    R515474   6.695   1.845   7.578 -0.0023  0.1265  0.0364
 1220ERGO    C115475   6.868   1.867   7.918 -0.0830  0.0594  0.0827
 1220ERGO    C215476   6.931   1.932   8.285 -0.4166  0.1773  0.1902
 1221ERGO   ROH15477   6.132   3.811   6.467  0.2780  0.1326  0.0358
 1221ERGO    R115478   6.221   3.909   6.717  0.1811  0.0656  0.0976
 1221ERGO    R215479   6.071   3.884   6.948  0.1051 -0.0276  0.0432
 1221ERGO    R315480   6.297   3.768   7.044  0.0885 -0.0296  0.0775
 1221ERGO    R415481   6.177   3.903   7.276  0.0242 -0.0897  0.0728
 1221ERGO    R515482   6.382   3.926   7.203  0.0379 -0.0598  0.1311
 1221ERGO    C115483   6.452   3.805   7.558 -0.0385 -0.1278  0.1222
 1221ERGO    C215484   6.361   3.918   7.877 -0.3043 -0.0096  0.1160
 1222ERGO   ROH15485  17.111   7.722   6.396  0.1229 -0.0313  0.1169
 1222ERGO    R115486  16.923   7.771   6.601  0.0959  0.1668  0.0480
 1222ERGO    R215487  16.923   7.630   6.840 -0.2236  0.0663 -0.0032
 1222ERGO    R315488  16.933   7.879   6.949  0.0994  0.0134  0.0960
 1222ERGO    R415489  16.825   7.710   7.162 -0.2435  0.0901 -0.0157
 1222ERGO    R515490  16.737   7.893   7.084  0.0604  0.2535  0.0160
 1222ERGO    C115491  16.778   7.990   7.451  0.0485  0.0543  0.0701
 1222ERGO    C215492  16.784   7.973   7.737 -0.1624 -0.2931  0.0867
 1223ERGO   ROH15493   9.808   6.121   6.063 -0.1756 -0.1160  0.1342
 1223ERGO    R115494   9.776   6.106   6.343 -0.0917 -0.0175  0.1493
 1223ERGO    R215495   9.925   5.934   6.501 -0.0983 -0.0153  0.1548
 1223ERGO    R315496   9.984   6.162   6.637  0.0188  0.0076  0.0673
 1223ERGO    R415497   9.994   5.950   6.839 -0.1791  0.0867  0.1673
 1223ERGO    R515498   9.877   6.134   6.849 -0.0597  0.1730  0.0531
 1223ERGO    C115499  10.090   6.173   7.164 -0.1162  0.1676  0.0924
 1223ERGO    C215500  10.121   6.300   7.548 -0.1746  0.2315  0.3215
 1224ERGO   ROH15501   6.313   6.736   6.574 -0.1198 -0.0056  0.1126
 1224ERGO    R115502   6.401   6.861   6.812  0.0639 -0.0396  0.0636
 1224ERGO    R215503   6.286   6.809   7.058  0.0490  0.1549  0.0966
 1224ERGO    R315504   6.542   6.753   7.130  0.0018 -0.1139  0.0673
 1224ERGO    R415505   6.394   6.760   7.383  0.0905  0.4038  0.1226
 1224ERGO    R515506   6.574   6.873   7.335  0.2379  0.1008 -0.0861
 1224ERGO    C115507   6.697   6.679   7.639  0.0705  0.2963  0.1102
 1224ERGO    C215508   6.765   6.618   7.946 -0.2350 -0.1567 -0.1777
 1225ERGO   ROH15509   0.605  15.564   6.690 -0.0813  0.0729  0.0080
 1225ERGO    R115510   0.474  15.469   6.923  0.0337  0.0048  0.0453
 1225ERGO    R215511   0.612  15.370   7.141  0.1516  0.1578  0.0404
 1225ERGO    R315512   0.468  15.557   7.276  0.0168  0.0617  0.0316
 1225ERGO    R415513   0.523  15.348   7.474  0.0894  0.0638  0.0180
 1225ERGO    R515514   0.328  15.429   7.423  0.0539 -0.0372 -0.0164
 1225ERGO    C115515   0.336  15.510   7.795 -0.0733 -0.0811 -0.0035
 1225ERGO    C215516   0.165  15.553   8.117 -0.0328 -0.1330  0.0825
 1226ERGO   ROH15517  11.884   4.903   5.968 -0.3185  0.1359 -0.0002
 1226ERGO    R115518  11.949   4.994   6.228 -0.1729  0.0750 -0.0146
 1226ERGO    R215519  11.757   5.064   6.414 -0.0692  0.0245  0.1122
 1226ERGO    R315520  11.889   4.884   6.570  0.0254 -0.0093 -0.0056
 1226ERGO    R415521  11.793   5.087   6.757 -0.1218 -0.2060  0.1351
 1226ERGO    R515522  11.998   5.018   6.736 -0.0755 -0.0633  0.1049
 1226ERGO    C115523  11.937   4.932   7.103 -0.0635 -0.3719  0.0377
 1226ERGO    C215524  11.869   4.791   7.415  0.3016 -0.1502 -0.0603
 1227ERGO   ROH15525   8.948  14.341   6.393 -0.0985 -0.1948  0.0285
 1227ERGO    R115526   9.147  14.337   6.593 -0.0655 -0.0558 -0.0011
 1227ERGO    R215527   9.416  14.366   6.537 -0.0888  0.0470 -0.0493
 1227ERGO    R315528   9.400  14.567   6.719 -0.1445  0.0867 -0.0974
 1227ERGO    R415529   9.664  14.450   6.762 -0.1060  0.1638 -0.0728
 1227ERGO    R515530   9.511  14.481   6.913 -0.1176  0.1579 -0.0771
 1227ERGO    C115531   9.793  14.687   7.064 -0.1686  0.2691 -0.1317
 1227ERGO    C215532  10.059  14.722   7.228  0.0820 -0.2666 -0.1011
 1228ERGO   ROH15533  16.350   8.658   5.792  0.0901  0.0508 -0.0345
 1228ERGO    R115534  16.255   8.746   6.043  0.1944 -0.2860  0.1280
 1228ERGO    R215535  16.008   8.866   6.075  0.5230  0.3972  0.2339
 1228ERGO    R315536  15.973   8.671   6.261 -0.2018  0.0053 -0.2618
 1228ERGO    R415537  15.803   8.892   6.352  0.5587  0.4343  0.2580
 1228ERGO    R515538  15.956   8.789   6.469  0.2009 -0.4366  0.0504
 1228ERGO    C115539  15.651   8.725   6.688 -0.1011  0.0880 -0.1935
 1228ERGO    C215540  15.297   8.787   6.784 -0.2474  0.3092 -0.1576
 1229ERGO   ROH15541   8.831   0.617   6.525  0.0492 -0.1291 -0.0102
 1229ERGO    R115542   8.775   0.567   6.798 -0.1889  0.1052 -0.0090
 1229ERGO    R215543   8.973   0.557   6.991 -0.2592 -0.3811  0.0752
 1229ERGO    R315544   8.818   0.744   7.113  0.1969  0.1042 -0.0634
 1229ERGO    R415545   8.963   0.615   7.331 -0.3905 -0.3150  0.0586
 1229ERGO    R515546   8.748   0.641   7.316 -0.3001  0.3397 -0.1188
 1229ERGO    C115547   8.813   0.825   7.644 -0.0388  0.1791 -0.0813
 1229ERGO    C215548   8.788   0.871   7.993  0.1978 -0.0284 -0.0538
 1230ERGO   ROH15549  15.823   5.536   6.459  0.0688  0.2162 -0.0198
 1230ERGO    R115550  15.821   5.626   6.727  0.0162  0.1714 -0.0044
 1230ERGO    R215551  15.595   5.729   6.847 -0.0191  0.1189 -0.0181
 1230ERGO    R315552  15.646   5.538   7.034 -0.0166  0.0932 -0.0463
 1230ERGO    R415553  15.387   5.650   7.112  0.0421  0.1552  0.0403
 1230ERGO    R515554  15.564   5.631   7.239  0.0717  0.0984 -0.0156
 1230ERGO    C115555  15.315   5.425   7.441  0.0800  0.1521  0.0479
 1230ERGO    C215556  15.221   5.363   7.693  0.3279 -0.0247 -0.2434
 1231ERGO   ROH15557  11.117   1.695   6.254  0.0330 -0.2011  0.0670
 1231ERGO    R115558  11.016   1.525   6.457  0.2116 -0.2182  0.1417
 1231ERGO    R215559  11.119   1.522   6.713  0.0481  0.1963  0.2145
 1231ERGO    R315560  10.860   1.566   6.783 -0.0912 -0.2263  0.0032
 1231ERGO    R415561  10.983   1.448   7.022  0.0469  0.3775  0.2589
 1231ERGO    R515562  10.803   1.378   6.921  0.2301 -0.1529  0.2568
 1231ERGO    C115563  10.660   1.447   7.268 -0.0846  0.0863  0.0865
 1231ERGO    C215564  10.597   1.332   7.595  0.3019  0.1355  0.0721
 1232ERGO   ROH15565   0.959  11.011   6.410 -0.2358  0.3190 -0.0497
 1232ERGO    R115566   1.072  11.025   6.670 -0.1830  0.0758 -0.0571
 1232ERGO    R215567   1.250  11.224   6.744 -0.0839 -0.0593  0.0594
 1232ERGO    R315568   1.071  11.264   6.944 -0.0277 -0.1276  0.1248
 1232ERGO    R415569   1.324  11.364   7.051 -0.0787  0.2582 -0.0818
 1232ERGO    R515570   1.194  11.217   7.144  0.1424  0.1634  0.0973
 1232ERGO    C115571   1.200  11.483   7.418 -0.0230  0.3790 -0.1028
 1232ERGO    C215572   1.288  11.743   7.516  0.1386  0.2696  0.0444
 1233ERGO   ROH15573  12.735   5.626   6.165 -0.0709  0.1714 -0.0613
 1233ERGO    R115574  12.718   5.629   6.448 -0.3046 -0.0025 -0.0679
 1233ERGO    R215575  12.629   5.412   6.594  0.0056 -0.2729 -0.2411
 1233ERGO    R315576  12.866   5.443   6.724 -0.1443  0.1459 -0.0569
 1233ERGO    R415577  12.695   5.295   6.912 -0.0138 -0.1387 -0.1895
 1233ERGO    R515578  12.803   5.481   6.952 -0.3726  0.0446 -0.1112
 1233ERGO    C115579  12.956   5.256   7.220 -0.1658  0.3326  0.0134
 1233ERGO    C215580  13.024   5.177   7.609  0.2515  0.1620  0.0704
 1234ERGO   ROH15581  13.782  14.475   6.627 -0.1137 -0.0386 -0.0633
 1234ERGO    R115582  13.732  14.601   6.875 -0.1135 -0.0292 -0.0677
 1234ERGO    R215583  13.511  14.542   7.030 -0.0650 -0.0932 -0.0182
 1234ERGO    R315584  13.698  14.499   7.223 -0.0106 -0.0046 -0.0509
 1234ERGO    R415585  13.456  14.574   7.370 -0.0282 -0.1666 -0.0055
 1234ERGO    R515586  13.653  14.666   7.389 -0.0820 -0.0530 -0.0245
 1234ERGO    C115587  13.599  14.551   7.749  0.0441 -0.1262 -0.0286
 1234ERGO    C215588  13.547  14.441   8.022  0.0602 -0.1069  0.3195
 1235ERGO   ROH15589  10.334  14.296   6.054 -0.1657 -0.1201  0.0041
 1235ERGO    R115590  10.487  14.275   6.291 -0.1818 -0.0732  0.0189
 1235ERGO    R215591  10.449  14.440   6.509 -0.2368 -0.0688  0.0058
 1235ERGO    R315592  10.422  14.205   6.642 -0.1977 -0.0668  0.0173
 1235ERGO    R415593  10.441  14.409   6.853 -0.1991 -0.0564  0.0079
 1235ERGO    R515594  10.563  14.230   6.834 -0.1810 -0.0438  0.0025
 1235ERGO    C115595  10.410  14.169   7.179 -0.1405 -0.0474  0.0201
 1235ERGO    C215596  10.330  14.051   7.398 -0.1308  0.2346  0.1668
 1236ERGO   ROH15597   5.565   7.002   6.192 -0.2753 -0.1373 -0.3511
 1236ERGO    R115598   5.596   6.903   6.455 -0.1954  0.0528 -0.2870
 1236ERGO    R215599   5.410   6.950   6.654 -0.1803  0.1267 -0.2839
 1236ERGO    R315600   5.413   6.679   6.676 -0.0827  0.1408 -0.1058
 1236ERGO    R415601   5.233   6.770   6.890 -0.1925  0.1962 -0.2390
 1236ERGO    R515602   5.406   6.639   6.913 -0.1555  0.2825 -0.0883
 1236ERGO    C115603   5.132   6.410   7.047 -0.1080  0.2501 -0.0457
 1236ERGO    C215604   5.057   6.303   7.404 -0.4297 -0.0109  0.2037
 1237ERGO   ROH15605   0.481  14.162   6.566 -0.0678  0.0102 -0.0500
 1237ERGO    R115606   0.588  14.013   6.782 -0.0162  0.1086 -0.0072
 1237ERGO    R215607   0.607  14.115   7.038 -0.0384  0.1936 -0.0401
 1237ERGO    R315608   0.468  13.890   7.103  0.0314  0.1715  0.0351
 1237ERGO    R415609   0.603  13.969   7.351 -0.1856  0.4378  0.0757
 1237ERGO    R515610   0.612  13.773   7.255 -0.0139  0.3638  0.2327
 1237ERGO    C115611   0.471  13.672   7.594 -0.2058  0.5593  0.2136
 1237ERGO    C215612   0.600  13.764   7.962  0.1493 -0.1549  0.5356
 1238ERGO   ROH15613   6.785  12.547   6.526 -0.1152  0.0166 -0.0649
 1238ERGO    R115614   6.901  12.421   6.751 -0.1531 -0.0355 -0.0749
 1238ERGO    R215615   6.907  12.540   7.001  0.1201  0.0603 -0.1258
 1238ERGO    R315616   6.787  12.308   7.078 -0.1268  0.2341  0.0304
 1238ERGO    R415617   6.905  12.416   7.324  0.4514  0.0207 -0.1351
 1238ERGO    R515618   6.935  12.216   7.242  0.0045 -0.0236 -0.2216
 1238ERGO    C115619   6.792  12.127   7.584  0.4125  0.1611  0.0061
 1238ERGO    C215620   6.819  12.054   7.886 -0.0220 -0.1618 -0.1590
 1239ERGO   ROH15621   2.010   3.387   6.467 -0.0362 -0.0901 -0.0166
 1239ERGO    R115622   1.977   3.543   6.701 -0.1222 -0.0238 -0.0715
 1239ERGO    R215623   1.856   3.444   6.929 -0.1417  0.0165 -0.0598
 1239ERGO    R315624   2.087   3.527   7.047 -0.1841  0.1129 -0.0458
 1239ERGO    R415625   1.936   3.396   7.262 -0.1507  0.0824 -0.0487
 1239ERGO    R515626   2.020   3.597   7.266 -0.2264  0.1102 -0.0610
 1239ERGO    C115627   2.199   3.446   7.566 -0.1957  0.2114 -0.0292
 1239ERGO    C215628   2.186   3.284   7.742 -0.0634 -0.0922 -0.2989
 1240ERGO   ROH15629   6.743  12.057   6.193  0.2286  0.2862  0.1563
 1240ERGO    R115630   6.680  12.100   6.465  0.3511  0.1357  0.2098
 1240ERGO    R215631   6.488  11.954   6.599  0.1925  0.2683  0.1298
 1240ERGO    R315632   6.691  11.906   6.773  0.1769 -0.1441  0.0432
 1240ERGO    R415633   6.456  11.778   6.895  0.0273  0.0990  0.0138
 1240ERGO    R515634   6.589  11.924   6.989  0.2611 -0.1528  0.0832
 1240ERGO    C115635   6.629  11.631   7.231 -0.0836 -0.3867 -0.1350
 1240ERGO    C215636   6.744  11.443   7.452 -0.3784  0.3613 -0.0442
 1241ERGO   ROH15637   8.043  17.647   6.393 -0.0947 -0.0669 -0.0368
 1241ERGO    R115638   8.118  17.537   6.643 -0.1868 -0.1195 -0.0321
 1241ERGO    R215639   8.183  17.694   6.861 -0.0033 -0.1602 -0.0532
 1241ERGO    R315640   7.991  17.545   6.984 -0.1516  0.0503 -0.0234
 1241ERGO    R415641   8.171  17.626   7.200 -0.0318 -0.1607 -0.0536
 1241ERGO    R515642   8.109  17.423   7.152 -0.2666 -0.0878 -0.0463
 1241ERGO    C115643   7.984  17.447   7.512 -0.1877  0.0368 -0.0259
 1241ERGO    C215644   8.138  17.354   7.929  0.2480  0.2678  0.0530
 1242ERGO   ROH15645   8.081  12.575   6.509  0.0169  0.0967 -0.0902
 1242ERGO    R115646   8.171  12.319   6.586 -0.1045  0.0658 -0.0504
 1242ERGO    R215647   8.431  12.270   6.665 -0.0937 -0.0697 -0.1655
 1242ERGO    R315648   8.311  12.167   6.886 -0.0485  0.0796 -0.0697
 1242ERGO    R415649   8.544  11.996   6.844 -0.1132 -0.0078 -0.0562
 1242ERGO    R515650   8.337  11.930   6.865 -0.1234  0.0606  0.0479
 1242ERGO    C115651   8.496  11.740   7.155 -0.0822  0.1686  0.0974
 1242ERGO    C215652   8.429  11.710   7.563  0.2380 -0.0098 -0.2191
 1243ERGO   ROH15653   4.194  17.638   6.737 -0.1798  0.0594  0.0138
 1243ERGO    R115654   4.207  17.824   6.951 -0.2450  0.1931 -0.0971
 1243ERGO    R215655   3.998  17.992   7.015 -0.4737 -0.1475  0.0716
 1243ERGO    R315656   4.028  17.882   7.262  0.0299  0.0249  0.0982
 1243ERGO    R415657   3.854  18.115   7.304 -0.3969 -0.2896  0.1719
 1243ERGO    R515658   4.040  18.071   7.409 -0.1763  0.1304 -0.0128
 1243ERGO    C115659   3.798  18.085   7.704  0.1206 -0.2104  0.2552
 1243ERGO    C215660   3.745  18.247   8.058 -0.0861 -0.1565 -0.2144
 1244ERGO   ROH15661  15.275   9.854   5.948  0.0425 -0.0751 -0.0745
 1244ERGO    R115662  15.144  10.037   6.119  0.0214 -0.0443 -0.1242
 1244ERGO    R215663  14.925   9.967   6.272  0.0174 -0.0222 -0.1232
 1244ERGO    R315664  15.077  10.065   6.475 -0.0028  0.0335 -0.1341
 1244ERGO    R415665  14.824   9.989   6.602  0.1040 -0.2512 -0.0788
 1244ERGO    R515666  14.922  10.183   6.614 -0.0679 -0.1635 -0.0330
 1244ERGO    C115667  14.908  10.094   6.985  0.1356 -0.3321 -0.0632
 1244ERGO    C215668  15.004  10.081   7.304 -0.1646 -0.1114  0.1046
 1245ERGO   ROH15669  16.984   2.825   6.360  0.0844  0.0971  0.0105
 1245ERGO    R115670  17.087   2.833   6.623  0.0027  0.1467  0.0414
 1245ERGO    R215671  16.983   2.998   6.818 -0.1734  0.0526  0.0275
 1245ERGO    R315672  16.962   2.766   6.958 -0.0458  0.0241  0.0001
 1245ERGO    R415673  16.960   2.978   7.162  0.3036 -0.0188  0.0618
 1245ERGO    R515674  17.093   2.804   7.156  0.2473 -0.0600 -0.1691
 1245ERGO    C115675  16.927   2.748   7.494  0.7013 -0.0871  0.0561
 1245ERGO    C215676  16.883   3.025   7.689 -0.0699  0.1394 -0.0937
 1246ERGO   ROH15677  10.876   5.633   6.265  0.0865 -0.1236  0.1144
 1246ERGO    R115678  10.994   5.642   6.522  0.0289 -0.0115  0.1388
 1246ERGO    R215679  10.915   5.821   6.717 -0.1393 -0.0418  0.1069
 1246ERGO    R315680  10.882   5.596   6.865 -0.0131 -0.0516  0.1180
 1246ERGO    R415681  11.023   5.782   7.042  0.0038 -0.0266  0.0614
 1246ERGO    R515682  11.084   5.579   6.993  0.0384 -0.0022  0.0350
 1246ERGO    C115683  11.055   5.547   7.372  0.2056 -0.0270  0.0453
 1246ERGO    C215684  10.897   5.609   7.663  0.2790  0.0437 -0.0950
 1247ERGO   ROH15685  11.521  10.920   6.041 -0.0992 -0.0658  0.0755
 1247ERGO    R115686  11.585  10.903   6.317  0.0794 -0.2025  0.0284
 1247ERGO    R215687  11.398  10.945   6.516  0.2960  0.1304  0.1758
 1247ERGO    R315688  11.482  10.701   6.601 -0.0863 -0.0372  0.0863
 1247ERGO    R415689  11.398  10.841   6.845  0.1782  0.0189  0.1405
 1247ERGO    R515690  11.591  10.745   6.810  0.0188 -0.2842  0.0833
 1247ERGO    C115691  11.476  10.550   7.117 -0.2491 -0.2034  0.0357
 1247ERGO    C215692  11.422  10.369   7.243  0.0948 -0.1508  0.3371
 1248ERGO   ROH15693  16.645   9.585   5.978 -0.0109 -0.0384  0.0264
 1248ERGO    R115694  16.602   9.514   6.249 -0.0011  0.0217  0.0440
 1248ERGO    R215695  16.761   9.608   6.455  0.0669 -0.0104  0.0073
 1248ERGO    R315696  16.524   9.689   6.559  0.1142  0.1029  0.0276
 1248ERGO    R415697  16.710   9.696   6.785  0.1578  0.1078 -0.0096
 1248ERGO    R515698  16.519   9.592   6.778  0.1213  0.1715  0.0577
 1248ERGO    C115699  16.457   9.823   7.075  0.2553  0.2828 -0.0004
 1248ERGO    C215700  16.520  10.089   7.184  0.1535  0.0119  0.2132
 1249ERGO   ROH15701  11.533   6.474   6.078  0.1410 -0.0589 -0.0281
 1249ERGO    R115702  11.648   6.394   6.324  0.0597 -0.0520  0.0133
 1249ERGO    R215703  11.764   6.573   6.500  0.1307 -0.0633 -0.0188
 1249ERGO    R315704  11.592   6.461   6.677  0.0403  0.0807 -0.0150
 1249ERGO    R415705  11.756   6.643   6.838  0.2572 -0.1217 -0.0038
 1249ERGO    R515706  11.722   6.431   6.876  0.0413 -0.0952 -0.0415
 1249ERGO    C115707  11.590   6.579   7.202  0.2459 -0.0205  0.0085
 1249ERGO    C215708  11.485   6.441   7.437  0.0709  0.0226  0.0353
 1250ERGO   ROH15709   5.310   4.448   6.620 -0.0384 -0.0004  0.1076
 1250ERGO    R115710   5.398   4.528   6.877  0.0685 -0.1125  0.1067
 1250ERGO    R215711   5.229   4.646   7.062  0.2129  0.0773  0.1183
 1250ERGO    R315712   5.317   4.444   7.222 -0.0130 -0.0338  0.1075
 1250ERGO    R415713   5.185   4.631   7.405  0.1337  0.0726  0.1087
 1250ERGO    R515714   5.388   4.554   7.422  0.0576 -0.1291  0.1365
 1250ERGO    C115715   5.242   4.434   7.754 -0.1245 -0.0344  0.0930
 1250ERGO    C215716   5.072   4.245   7.929  0.2535 -0.1892 -0.4698
 1251ERGO   ROH15717  14.263  12.378   8.269 -0.1506  0.0030 -0.0449
 1251ERGO    R115718  14.460  12.571   8.204 -0.1750  0.0491  0.0145
 1251ERGO    R215719  14.562  12.598   7.948 -0.0244 -0.0001  0.0658
 1251ERGO    R315720  14.485  12.857   7.980 -0.1368 -0.0165 -0.0644
 1251ERGO    R415721  14.650  12.857   7.738  0.0161 -0.0311  0.0447
 1251ERGO    R515722  14.677  12.984   7.913 -0.1417  0.0320  0.0203
 1251ERGO    C115723  14.630  13.251   7.645 -0.0658 -0.0647 -0.0900
 1251ERGO    C215724  14.450  13.464   7.395 -0.2112  0.3656  0.1761
 1252ERGO   ROH15725  17.359  12.451   6.435  0.0770  0.1824 -0.0063
 1252ERGO    R115726  17.365  12.548   6.701  0.1480  0.1065  0.0204
 1252ERGO    R215727  17.201  12.752   6.789  0.2320  0.1420  0.0999
 1252ERGO    R315728  17.132  12.571   6.979  0.1934  0.1121  0.0577
 1252ERGO    R415729  17.075  12.831   7.101  0.0795  0.0879  0.0530
 1252ERGO    R515730  17.199  12.673   7.185  0.0804  0.1119  0.0939
 1252ERGO    C115731  16.938  12.707   7.462 -0.0457  0.0282 -0.0140
 1252ERGO    C215732  16.855  12.791   7.786  0.3076  0.4113 -0.1028
 1253ERGO   ROH15733  14.175   3.877   6.188  0.1397  0.0684 -0.0411
 1253ERGO    R115734  14.019   3.928   6.419 -0.0217  0.0513 -0.1435
 1253ERGO    R215735  14.132   3.995   6.663 -0.1769 -0.1654 -0.0048
 1253ERGO    R315736  13.964   4.208   6.644 -0.0066 -0.0326 -0.0352
 1253ERGO    R415737  14.077   4.227   6.913  0.1400  0.0223 -0.1031
 1253ERGO    R515738  13.866   4.226   6.861  0.1143  0.1718  0.0036
 1253ERGO    C115739  13.888   4.561   7.042  0.4844  0.2562 -0.1889
 1253ERGO    C215740  13.846   4.874   7.365 -0.5031 -0.0997 -0.1059
 1254ERGO   ROH15741  14.315   5.527   5.967 -0.0049 -0.0062 -0.0004
 1254ERGO    R115742  14.310   5.383   6.211 -0.0733  0.0308  0.0193
 1254ERGO    R215743  14.518   5.390   6.392 -0.1189  0.0441  0.0662
 1254ERGO    R315744  14.322   5.463   6.565 -0.1543  0.0805  0.0120
 1254ERGO    R415745  14.556   5.416   6.735 -0.1844  0.1010  0.0699
 1254ERGO    R515746  14.359   5.327   6.759 -0.1958  0.1095  0.0440
 1254ERGO    C115747  14.394   5.500   7.097 -0.2559  0.1683  0.0212
 1254ERGO    C215748  14.468   5.525   7.447 -0.1305  0.0578  0.0892
 1255ERGO   ROH15749  17.899   8.851   6.574  0.0388  0.0921  0.1770
 1255ERGO    R115750  18.013   8.735   6.805  0.0085 -0.0011  0.1449
 1255ERGO    R215751  17.932   8.802   7.061  0.0528 -0.0214  0.1612
 1255ERGO    R315752  17.897   8.533   7.085 -0.0512 -0.0136  0.1122
 1255ERGO    R415753  17.894   8.634   7.360 -0.2447 -0.0313  0.1220
 1255ERGO    R515754  18.021   8.474   7.281 -0.2273 -0.0663  0.2120
 1255ERGO    C115755  17.839   8.284   7.558 -0.5157 -0.0297  0.0532
 1255ERGO    C215756  17.825   8.200   7.958 -0.2126  0.0744 -0.0817
 1256ERGO   ROH15757   8.131   2.941   6.621  0.0806 -0.4008 -0.2721
 1256ERGO    R115758   8.041   2.773   6.830  0.2335 -0.2833 -0.1085
 1256ERGO    R215759   8.191   2.723   7.056  0.2425  0.1469 -0.0108
 1256ERGO    R315760   7.967   2.808   7.185  0.1053  0.0211 -0.1622
 1256ERGO    R415761   8.155   2.741   7.400 -0.0266  0.0625 -0.0322
 1256ERGO    R515762   7.952   2.667   7.377  0.0221 -0.0246 -0.2021
 1256ERGO    C115763   7.924   2.832   7.720 -0.3120 -0.1048 -0.1869
 1256ERGO    C215764   7.971   2.939   7.996  0.2024 -0.1534 -0.1399
 1257ERGO   ROH15765  11.042  16.962   6.084  0.0595 -0.1890 -0.1281
 1257ERGO    R115766  10.979  16.857   6.339  0.2167 -0.1513 -0.0731
 1257ERGO    R215767  11.170  16.746   6.505  0.3914  0.2505  0.0014
 1257ERGO    R315768  11.072  16.926   6.684  0.0866  0.1943 -0.1030
 1257ERGO    R415769  11.047  16.666   6.818  0.2267  0.1901 -0.0775
 1257ERGO    R515770  10.888  16.812   6.787  0.1103  0.0395 -0.2246
 1257ERGO    C115771  10.883  16.787   7.168 -0.1555  0.1019 -0.2216
 1257ERGO    C215772  10.964  16.661   7.562 -0.1252  0.2101 -0.0883
 1258ERGO   ROH15773  12.426   8.537   5.893  0.0806 -0.2606 -0.0717
 1258ERGO    R115774  12.539   8.650   6.127  0.2439 -0.1614 -0.1957
 1258ERGO    R215775  12.428   8.615   6.378  0.1240  0.3645 -0.1620
 1258ERGO    R315776  12.677   8.526   6.440 -0.0441 -0.0197 -0.0089
 1258ERGO    R415777  12.590   8.679   6.676  0.1715  0.3957 -0.1945
 1258ERGO    R515778  12.775   8.707   6.563  0.2548 -0.0589 -0.1850
 1258ERGO    C115779  12.919   8.632   6.908  0.0413  0.0532 -0.0697
 1258ERGO    C215780  12.921   8.597   7.275 -0.0599 -0.0059  0.1943
 1259ERGO   ROH15781  14.563   2.099   6.426  0.1743 -0.0092  0.0853
 1259ERGO    R115782  14.696   2.089   6.676  0.0812  0.0792  0.1397
 1259ERGO    R215783  14.674   2.291   6.865 -0.1505  0.0536  0.1441
 1259ERGO    R315784  14.599   2.086   7.027 -0.0602 -0.0138  0.1008
 1259ERGO    R415785  14.746   2.269   7.202 -0.1728  0.0343  0.1471
 1259ERGO    R515786  14.785   2.056   7.175 -0.0589  0.0581  0.1141
 1259ERGO    C115787  14.718   2.064   7.550 -0.1011 -0.0403  0.1083
 1259ERGO    C215788  14.547   1.940   7.788 -0.0499  0.2275  0.3448
 1260ERGO   ROH15789   5.661   8.047   6.062 -0.2272 -0.0664 -0.0908
 1260ERGO    R115790   5.578   8.095   6.328 -0.1505 -0.1918 -0.0432
 1260ERGO    R215791   5.560   7.894   6.517  0.1341 -0.2431 -0.0656
 1260ERGO    R315792   5.722   8.058   6.660  0.0423 -0.1078 -0.1157
 1260ERGO    R415793   5.593   7.887   6.861  0.1939 -0.1733 -0.0702
 1260ERGO    R515794   5.598   8.105   6.860  0.0399 -0.1685 -0.1020
 1260ERGO    C115795   5.765   8.038   7.196  0.1425 -0.0056 -0.1200
 1260ERGO    C215796   5.967   8.274   7.370 -0.0895 -0.0824  0.2014
 1261ERGO   ROH15797  12.679   6.449   6.515 -0.1962 -0.0771 -0.0951
 1261ERGO    R115798  12.542   6.441   6.762 -0.1242 -0.0016 -0.0517
 1261ERGO    R215799  12.668   6.376   7.000 -0.1027 -0.1597 -0.1023
 1261ERGO    R315800  12.564   6.613   7.082  0.1359 -0.0794 -0.0259
 1261ERGO    R415801  12.575   6.449   7.324 -0.0917 -0.1886 -0.0930
 1261ERGO    R515802  12.400   6.553   7.246  0.0367  0.0322 -0.0856
 1261ERGO    C115803  12.423   6.714   7.591  0.1384 -0.1300 -0.0158
 1261ERGO    C215804  12.476   6.927   7.866 -0.1351  0.2416 -0.0719
 1262ERGO   ROH15805  15.067   4.483   6.295  0.0591 -0.1706  0.0119
 1262ERGO    R115806  15.030   4.534   6.571  0.1074  0.0726 -0.0249
 1262ERGO    R215807  14.933   4.344   6.747 -0.1550  0.3184  0.1052
 1262ERGO    R315808  15.160   4.403   6.884 -0.0837  0.1197  0.0758
 1262ERGO    R415809  14.970   4.315   7.089 -0.1334  0.2796  0.0998
 1262ERGO    R515810  15.082   4.501   7.088  0.0288  0.1837  0.0887
 1262ERGO    C115811  15.204   4.353   7.418 -0.0539  0.0704  0.0690
 1262ERGO    C215812  15.272   4.203   7.748  0.0658  0.1017  0.1515
 1263ERGO   ROH15813   6.688   4.638   6.076  0.1106  0.1200 -0.0609
 1263ERGO    R115814   6.766   4.729   6.332 -0.0045  0.1526 -0.0367
 1263ERGO    R215815   6.595   4.869   6.498 -0.1731 -0.0694 -0.0135
 1263ERGO    R315816   6.660   4.674   6.676  0.0344 -0.0404 -0.0552
 1263ERGO    R415817   6.605   4.911   6.841 -0.2326 -0.1396 -0.0034
 1263ERGO    R515818   6.786   4.788   6.845 -0.0975  0.0577 -0.0242
 1263ERGO    C115819   6.672   4.752   7.208 -0.0725 -0.1532 -0.0366
 1263ERGO    C215820   6.686   4.798   7.559  0.1227 -0.0796 -0.2681
 1264ERGO   ROH15821   6.826   8.224   5.819 -0.0283  0.3118 -0.0291
 1264ERGO    R115822   6.914   8.414   6.011  0.0250  0.2430  0.0169
 1264ERGO    R215823   6.824   8.413   6.273 -0.0718  0.2810 -0.0079
 1264ERGO    R315824   7.090   8.406   6.329 -0.0949  0.1005  0.0782
 1264ERGO    R415825   6.974   8.572   6.541 -0.0250  0.2383 -0.0098
 1264ERGO    R515826   7.140   8.625   6.410  0.0503  0.0782  0.0328
 1264ERGO    C115827   7.311   8.657   6.750 -0.0196  0.0442  0.0700
 1264ERGO    C215828   7.348   8.998   7.044 -0.1946 -0.2927  0.1066
 1265ERGO   ROH15829  17.575   0.713   7.066 -0.0469  0.2201  0.1687
 1265ERGO    R115830  17.650   0.842   7.306  0.0648  0.1421  0.1776
 1265ERGO    R215831  17.478   1.006   7.447  0.1678  0.1970  0.2480
 1265ERGO    R315832  17.541   0.840   7.653  0.1375  0.1266  0.1998
 1265ERGO    R415833  17.453   1.089   7.782  0.2645  0.1324  0.2706
 1265ERGO    R515834  17.641   0.984   7.816  0.2261  0.0479  0.2130
 1265ERGO    C115835  17.498   0.981   8.170  0.2924  0.0287  0.2383
 1265ERGO    C215836  17.557   0.914   8.434  0.1572 -0.0313  0.3013
 1266ERGO   ROH15837   1.983  11.771   6.339 -0.3865 -0.0013 -0.0245
 1266ERGO    R115838   2.030  11.908   6.582 -0.1029 -0.0091 -0.0700
 1266ERGO    R215839   1.837  11.932   6.779 -0.0155  0.3394 -0.0140
 1266ERGO    R315840   2.030  11.824   6.936 -0.1308  0.0737 -0.0514
 1266ERGO    R415841   1.858  11.971   7.122  0.1069  0.3027 -0.0176
 1266ERGO    R515842   2.074  11.991   7.102  0.1303  0.0100 -0.0561
 1266ERGO    C115843   2.051  11.892   7.469  0.0699  0.0319 -0.0549
 1266ERGO    C215844   2.276  11.729   7.819  0.1665  0.1780 -0.0507
 1267ERGO   ROH15845   5.958  10.939   6.056 -0.0536  0.1448 -0.0744
 1267ERGO    R115846   5.792  11.012   6.273  0.0060  0.1442 -0.0298
 1267ERGO    R215847   5.775  10.862   6.504  0.0189  0.1100 -0.0557
 1267ERGO    R315848   5.839  11.098   6.624  0.0916  0.0752 -0.0226
 1267ERGO    R415849   5.794  10.911   6.846  0.1127  0.0291 -0.0482
 1267ERGO    R515850   5.698  11.106   6.818  0.1380  0.0560  0.0159
 1267ERGO    C115851   5.864  11.161   7.158  0.2355 -0.0509 -0.0127
 1267ERGO    C215852   5.840  11.317   7.542  0.0799 -0.1605 -0.0992
 1268ERGO   ROH15853   1.944   6.866   6.431  0.0725 -0.4978 -0.1330
 1268ERGO    R115854   2.099   6.731   6.626  0.0979 -0.3239 -0.0321
 1268ERGO    R215855   2.225   6.864   6.834 -0.0437 -0.1630 -0.0522
 1268ERGO    R315856   2.089   6.684   6.986  0.0240 -0.1836 -0.0141
 1268ERGO    R415857   2.333   6.741   7.138 -0.0472  0.0383  0.0324
 1268ERGO    R515858   2.259   6.544   7.080  0.0908 -0.0376  0.0939
 1268ERGO    C115859   2.269   6.501   7.459  0.0143  0.1362  0.1176
 1268ERGO    C215860   2.522   6.554   7.772 -0.1833 -0.0199  0.1405
 1269ERGO   ROH15861  15.766   0.383   6.635 -0.1615 -0.1478 -0.0336
 1269ERGO    R115862  15.728   0.437   6.910 -0.0069 -0.0681 -0.0269
 1269ERGO    R215863  15.621   0.252   7.086  0.0278  0.0057  0.0741
 1269ERGO    R315864  15.849   0.302   7.225  0.1136 -0.0245 -0.0539
 1269ERGO    R415865  15.647   0.251   7.430  0.1556  0.2738  0.0676
 1269ERGO    R515866  15.776   0.425   7.417  0.2642  0.1816 -0.1256
 1269ERGO    C115867  15.875   0.297   7.762  0.3106  0.4017 -0.0563
 1269ERGO    C215868  15.910   0.294   8.125  0.0461  0.0420 -0.4096
 1270ERGO   ROH15869   9.276   8.333   7.754 -0.0568 -0.0937 -0.2292
 1270ERGO    R115870   9.254   8.063   7.838 -0.1128 -0.1128 -0.3081
 1270ERGO    R215871   9.278   7.851   7.663  0.3954 -0.0797 -0.2842
 1270ERGO    R315872   9.467   7.768   7.840  0.0413 -0.0076  0.1475
 1270ERGO    R415873   9.377   7.523   7.707  0.6379 -0.0129 -0.3069
 1270ERGO    R515874   9.384   7.559   7.922  0.0416 -0.1709 -0.2372
 1270ERGO    C115875   9.612   7.254   7.898  0.4468  0.0938  0.0851
 1270ERGO    C215876   9.872   7.058   8.001  0.1832  0.0825 -0.1305
 1271ERGO   ROH15877  16.727   2.080   6.525  0.1330  0.3450  0.0344
 1271ERGO    R115878  16.742   2.162   6.796  0.0771  0.2860  0.0550
 1271ERGO    R215879  16.683   2.420   6.876 -0.0768  0.2296  0.1169
 1271ERGO    R315880  16.511   2.294   7.045 -0.0070  0.0882  0.0846
 1271ERGO    R415881  16.606   2.526   7.196 -0.2337  0.1815  0.0966
 1271ERGO    R515882  16.611   2.318   7.261 -0.0701  0.1839  0.1062
 1271ERGO    C115883  16.401   2.469   7.541 -0.2600  0.0206  0.0544
 1271ERGO    C215884  16.104   2.686   7.718  0.1865 -0.1243  0.0163
 1272ERGO   ROH15885  17.931   3.337   6.146 -0.0586  0.0344  0.0857
 1272ERGO    R115886  17.934   3.520   6.362 -0.2789  0.1345  0.0064
 1272ERGO    R215887  17.708   3.581   6.509 -0.3312 -0.1678  0.0549
 1272ERGO    R315888  17.865   3.509   6.719 -0.1392  0.1725  0.0360
 1272ERGO    R415889  17.646   3.662   6.839 -0.4024 -0.1937  0.0481
 1272ERGO    R515890  17.859   3.699   6.865 -0.4528  0.2082 -0.0136
 1272ERGO    C115891  17.756   3.642   7.228 -0.2637  0.1108  0.0265
 1272ERGO    C215892  17.755   3.644   7.617  0.2409 -0.0029 -0.1118
 1273ERGO   ROH15893  13.079   7.331   6.459  0.1481  0.1289 -0.0223
 1273ERGO    R115894  13.121   7.188   6.699 -0.0527 -0.0081 -0.0677
 1273ERGO    R215895  13.256   7.294   6.915  0.1005 -0.2658 -0.0374
 1273ERGO    R315896  13.030   7.226   7.049  0.0027  0.0082 -0.0537
 1273ERGO    R415897  13.219   7.307   7.258  0.1343 -0.3134 -0.0312
 1273ERGO    R515898  13.110   7.119   7.248 -0.1335 -0.1655 -0.0857
 1273ERGO    C115899  12.986   7.250   7.584  0.0621 -0.0837 -0.0429
 1273ERGO    C215900  12.771   7.330   7.718 -0.3581  0.0711 -0.0135
 1274ERGO   ROH15901   9.079  10.252   6.082 -0.0352 -0.0023  0.0540
 1274ERGO    R115902   8.955  10.202   6.332 -0.1934  0.0275 -0.0177
 1274ERGO    R215903   9.083  10.249   6.573 -0.2471 -0.1914  0.0528
 1274ERGO    R315904   8.861  10.397   6.624 -0.1220  0.0146  0.0150
 1274ERGO    R415905   8.946  10.300   6.887 -0.1916  0.0276  0.0439
 1274ERGO    R515906   8.748  10.279   6.799 -0.2160  0.1652  0.0603
 1274ERGO    C115907   8.659  10.469   7.117 -0.0418  0.3483  0.0035
 1274ERGO    C215908   8.673  10.704   7.275 -0.2048 -0.2259 -0.1089
 1275ERGO   ROH15909  11.904   3.860   6.379 -0.0518 -0.0765  0.1424
 1275ERGO    R115910  12.025   3.821   6.631  0.0150 -0.0032  0.1215
 1275ERGO    R215911  11.975   3.986   6.847  0.0553  0.0446  0.0917
 1275ERGO    R315912  11.913   3.752   6.971  0.1079  0.0704  0.1686
 1275ERGO    R415913  11.983   3.934   7.189  0.0117  0.1815  0.1145
 1275ERGO    R515914  12.068   3.737   7.152  0.0830  0.1916  0.2037
 1275ERGO    C115915  11.930   3.684   7.504  0.0358  0.2854  0.1999
 1275ERGO    C215916  11.829   3.694   7.949 -0.0925  0.3266 -0.1678
 1276ERGO   ROH15917  11.947   1.497   5.981  0.0903 -0.0530  0.2114
 1276ERGO    R115918  11.994   1.242   6.096 -0.0066 -0.1008  0.1469
 1276ERGO    R215919  12.174   1.203   6.302  0.0004 -0.2273  0.1175
 1276ERGO    R315920  11.959   1.091   6.426 -0.0340 -0.1631  0.1159
 1276ERGO    R415921  12.160   1.123   6.638 -0.0033 -0.2738  0.1060
 1276ERGO    R515922  12.055   0.939   6.584 -0.0797 -0.2255  0.0847
 1276ERGO    C115923  11.950   0.972   6.950 -0.0377 -0.2406  0.0978
 1276ERGO    C215924  11.845   0.984   7.367 -0.2064 -0.1356 -0.0311
 1277ERGO   ROH15925   2.733   2.866   6.669  0.3937 -0.1347 -0.1002
 1277ERGO    R115926   2.725   3.010   6.912  0.3308  0.1127 -0.2438
 1277ERGO    R215927   2.820   2.906   7.149 -0.2098  0.1348  0.0030
 1277ERGO    R315928   2.968   3.135   7.154  0.2469 -0.1499 -0.0219
 1277ERGO    R415929   2.959   3.045   7.434 -0.5100  0.2446  0.0987
 1277ERGO    R515930   2.904   3.243   7.358  0.0372  0.2638 -0.2971
 1277ERGO    C115931   3.179   3.340   7.603 -0.2560  0.0412  0.1311
 1277ERGO    C215932   3.420   3.281   7.903 -0.2015  0.1594 -0.4431
 1278ERGO   ROH15933   7.268  15.063   6.263  0.0107 -0.0765 -0.1843
 1278ERGO    R115934   7.058  15.052   6.452 -0.1721 -0.1895 -0.3870
 1278ERGO    R215935   7.019  15.249   6.643 -0.0088 -0.5582  0.0534
 1278ERGO    R315936   6.769  15.255   6.538  0.0840  0.0913 -0.1716
 1278ERGO    R415937   6.729  15.290   6.826 -0.1120 -0.4592 -0.1306
 1278ERGO    R515938   6.634  15.141   6.700 -0.2612 -0.0314 -0.5380
 1278ERGO    C115939   6.325  15.320   6.834 -0.0850  0.2081 -0.4490
 1278ERGO    C215940   6.127  15.445   6.820  0.0332 -0.1564  0.0179
 1279ERGO   ROH15941  14.774   0.067   6.662 -0.0130  0.0103 -0.0565
 1279ERGO    R115942  14.792  -0.036   6.925  0.1122 -0.0135 -0.0743
 1279ERGO    R215943  14.609   0.027   7.123  0.2012 -0.0405  0.0137
 1279ERGO    R315944  14.585  -0.243   7.143  0.2219 -0.0436  0.0033
 1279ERGO    R415945  14.514  -0.142   7.409 -0.0848 -0.0342 -0.0741
 1279ERGO    R515946  14.664  -0.293   7.363 -0.0075 -0.0154  0.0968
 1279ERGO    C115947  14.436  -0.493   7.594 -0.2318 -0.0335 -0.1351
 1279ERGO    C215948  14.151  -0.565   7.844 -0.0422  0.0952 -0.0412
 1280ERGO   ROH15949   2.463   6.433   5.859  0.2201 -0.0931 -0.0173
 1280ERGO    R115950   2.555   6.668   5.985  0.2117 -0.0838 -0.0289
 1280ERGO    R215951   2.419   6.789   6.193  0.1204  0.0141 -0.1447
 1280ERGO    R315952   2.658   6.766   6.321  0.0384 -0.0183  0.0064
 1280ERGO    R415953   2.516   6.980   6.464  0.0084  0.0582 -0.1348
 1280ERGO    R515954   2.716   6.992   6.377  0.0655 -0.0190 -0.0176
 1280ERGO    C115955   2.797   7.071   6.741 -0.1337  0.0534  0.0128
 1280ERGO    C215956   2.785   7.005   7.087  0.0847  0.3013  0.2163
 1281ERGO   ROH15957  14.516  11.079   6.148  0.1349 -0.2498  0.0537
 1281ERGO    R115958  14.500  11.167   6.416 -0.0333 -0.1718  0.0212
 1281ERGO    R215959  14.334  11.047   6.603 -0.0132 -0.2450  0.0057
 1281ERGO    R315960  14.564  11.024   6.745 -0.0403 -0.0178  0.0872
 1281ERGO    R415961  14.353  10.986   6.942 -0.0525 -0.1200  0.0299
 1281ERGO    R515962  14.516  11.128   6.955 -0.1757  0.0064  0.0365
 1281ERGO    C115963  14.581  10.929   7.273 -0.1010  0.1660  0.1206
 1281ERGO    C215964  14.508  10.882   7.615 -0.0409 -0.0570  0.1504
 1282ERGO   ROH15965   8.436   0.864   6.556 -0.2207  0.0915  0.2164
 1282ERGO    R115966   8.497   0.877   6.832 -0.3245  0.0136  0.2439
 1282ERGO    R215967   8.644   1.084   6.943 -0.0080 -0.2269  0.2883
 1282ERGO    R315968   8.429   1.106   7.107 -0.0537  0.1693  0.1853
 1282ERGO    R415969   8.660   1.128   7.285 -0.0899 -0.2396  0.2936
 1282ERGO    R515970   8.493   0.990   7.306 -0.3551  0.0577  0.2230
 1282ERGO    C115971   8.467   1.174   7.639 -0.1804  0.1250  0.2000
 1282ERGO    C215972   8.571   1.273   8.007  0.0757 -0.0838 -0.1888
 1283ERGO   ROH15973   6.578  13.830   6.604  0.2196 -0.0601  0.0206
 1283ERGO    R115974   6.632  13.996   6.826  0.2093 -0.0087 -0.0147
 1283ERGO    R215975   6.598  13.912   7.087  0.0101  0.1149  0.0032
 1283ERGO    R315976   6.857  13.991   7.112  0.0506 -0.0493  0.1105
 1283ERGO    R415977   6.739  14.040   7.376 -0.0630  0.1515  0.0226
 1283ERGO    R515978   6.848  14.184   7.253  0.1028  0.0221  0.0161
 1283ERGO    C115979   7.064  14.187   7.567 -0.0676  0.0186  0.1346
 1283ERGO    C215980   7.158  14.254   7.893  0.0527  0.0011  0.2628
 1284ERGO   ROH15981   0.462   6.635   6.520 -0.2083 -0.0879 -0.0347
 1284ERGO    R115982   0.510   6.570   6.791 -0.0121  0.0707 -0.0293
 1284ERGO    R215983   0.529   6.762   6.989 -0.2186  0.1673 -0.1000
 1284ERGO    R315984   0.336   6.611   7.108  0.0406 -0.0786  0.0198
 1284ERGO    R415985   0.445   6.776   7.324 -0.2198  0.2669 -0.1043
 1284ERGO    R515986   0.426   6.559   7.324  0.1474  0.2271  0.0535
 1284ERGO    C115987   0.216   6.643   7.631  0.0228  0.0940  0.0056
 1284ERGO    C215988   0.270   6.664   7.984 -0.0794 -0.1559  0.0081
 1285ERGO   ROH15989  13.095  11.595   6.142  0.2231 -0.0238 -0.1866
 1285ERGO    R115990  13.284  11.486   6.323 -0.0082 -0.1741 -0.0304
 1285ERGO    R215991  13.450  11.643   6.477  0.1459 -0.3039 -0.0619
 1285ERGO    R315992  13.344  11.498   6.682 -0.1526 -0.0247 -0.0100
 1285ERGO    R415993  13.540  11.675   6.810  0.1875 -0.3448 -0.0689
 1285ERGO    R515994  13.529  11.458   6.828 -0.2329 -0.3258  0.0165
 1285ERGO    C115995  13.492  11.558   7.195 -0.0683 -0.1066 -0.0243
 1285ERGO    C215996  13.652  11.519   7.508 -0.0189 -0.0928  0.0586
 1286ERGO   ROH15997   2.748  15.490   6.923 -0.0337  0.0726  0.1212
 1286ERGO    R115998   2.807  15.574   7.187 -0.1080  0.1206  0.1229
 1286ERGO    R215999   2.624  15.556   7.393 -0.0773 -0.0940  0.1355
 1286ERGO    R316000   2.824  15.420   7.516  0.0828  0.1156  0.1109
 1286ERGO    R416001   2.652  15.512   7.735 -0.0560 -0.1702  0.1239
 1286ERGO    R516002   2.867  15.545   7.716 -0.0927  0.1049  0.1555
 1286ERGO    C116003   2.858  15.359   8.049  0.1068 -0.0178  0.0940
 1286ERGO    C216004   2.757  15.098   8.317  0.0949 -0.1467  0.0115
 1287ERGO   ROH16005   5.379   1.010   6.767 -0.1296  0.2716  0.0697
 1287ERGO    R116006   5.162   0.830   6.768 -0.0402  0.1621  0.0353
 1287ERGO    R216007   5.189   0.564   6.840  0.0718  0.1844  0.0882
 1287ERGO    R316008   4.989   0.624   7.014 -0.0083  0.1179  0.0194
 1287ERGO    R416009   4.900   0.380   6.880  0.1807  0.0129  0.0936
 1287ERGO    R516010   4.789   0.566   6.897  0.0554 -0.0559 -0.0013
 1287ERGO    C116011   4.543   0.329   7.067  0.1689 -0.1495  0.0321
 1287ERGO    C216012   4.374   0.095   7.342 -0.1978 -0.1154  0.1193
 1288ERGO   ROH16013  16.629   7.450   6.025 -0.1659 -0.2387 -0.1117
 1288ERGO    R116014  16.601   7.620   6.249  0.1043 -0.2956 -0.0318
 1288ERGO    R216015  16.355   7.697   6.348  0.2198  0.1475 -0.0745
 1288ERGO    R316016  16.454   7.598   6.581 -0.0493 -0.1761 -0.0902
 1288ERGO    R416017  16.283   7.823   6.661  0.4412  0.2032 -0.0439
 1288ERGO    R516018  16.492   7.793   6.716  0.3735 -0.3024 -0.0094
 1288ERGO    C116019  16.333   7.804   7.063  0.3175 -0.0683 -0.0407
 1288ERGO    C216020  16.265   7.778   7.471 -0.2354 -0.1612 -0.1170
 1289ERGO   ROH16021   9.943   9.610   6.092  0.0681 -0.2418  0.1714
 1289ERGO    R116022   9.982   9.794   6.303  0.1634 -0.0906  0.0241
 1289ERGO    R216023   9.831   9.791   6.534  0.0884  0.2423 -0.0172
 1289ERGO    R316024  10.073   9.777   6.655  0.0404  0.1360  0.0692
 1289ERGO    R416025   9.884   9.835   6.872  0.0056  0.4018 -0.0236
 1289ERGO    R516026  10.065   9.947   6.824  0.1061  0.2437 -0.0326
 1289ERGO    C116027  10.143   9.847   7.184 -0.0877  0.3946  0.0539
 1289ERGO    C216028  10.267   9.708   7.472  0.1625  0.0352  0.3808
 1290ERGO   ROH16029  13.979   7.843   6.252  0.1503  0.2554 -0.0257
 1290ERGO    R116030  13.879   7.855   6.516  0.1952  0.1589 -0.0044
 1290ERGO    R216031  14.044   7.857   6.738  0.2338  0.1426 -0.0353
 1290ERGO    R316032  13.904   8.082   6.799  0.1860  0.0900  0.0531
 1290ERGO    R416033  13.922   7.934   7.052  0.1579 -0.0434 -0.0174
 1290ERGO    R516034  13.740   8.009   6.957  0.1638 -0.0219 -0.0177
 1290ERGO    C116035  13.720   8.191   7.292  0.0687 -0.2011  0.0760
 1290ERGO    C216036  13.711   8.150   7.699 -0.1422  0.2438 -0.0276
 1291ERGO   ROH16037   9.824  17.930   6.070 -0.0551  0.2183 -0.2550
 1291ERGO    R116038   9.686  18.028   6.297 -0.0021 -0.1293 -0.0654
 1291ERGO    R216039   9.738  17.938   6.553  0.4887 -0.0980 -0.1405
 1291ERGO    R316040   9.773  18.203   6.604 -0.0006 -0.0290 -0.1239
 1291ERGO    R416041   9.781  18.073   6.868  0.4883 -0.0635 -0.1558
 1291ERGO    R516042   9.652  18.239   6.809  0.0985 -0.3081 -0.0150
 1291ERGO    C116043   9.838  18.400   7.100  0.0288  0.0211 -0.1491
 1291ERGO    C216044   9.681  18.603   7.362  0.0137 -0.0437 -0.1942
 1292ERGO   ROH16045  18.092  14.797   6.706 -0.1601 -0.2337 -0.2205
 1292ERGO    R116046  18.033  14.651   6.941 -0.1528  0.0024 -0.0670
 1292ERGO    R216047  18.200  14.649   7.161 -0.0011  0.0012 -0.1719
 1292ERGO    R316048  17.974  14.727   7.292  0.1614  0.3348 -0.0831
 1292ERGO    R416049  18.152  14.625   7.503  0.0215 -0.0890 -0.1757
 1292ERGO    R516050  17.947  14.563   7.465 -0.0978  0.2966 -0.1644
 1292ERGO    C116051  17.914  14.685   7.825  0.1869  0.1716 -0.0945
 1292ERGO    C216052  17.930  14.679   8.184 -0.1338  0.0679 -0.0608
 1293ERGO   ROH16053   9.219  14.012   6.328 -0.2299  0.0236  0.1125
 1293ERGO    R116054   9.256  13.904   6.587 -0.3675  0.0442  0.1428
 1293ERGO    R216055   9.499  13.914   6.719 -0.3067 -0.3493  0.0858
 1293ERGO    R316056   9.351  14.030   6.915 -0.0610 -0.0026  0.0738
 1293ERGO    R416057   9.518  13.835   7.055 -0.3628 -0.2207  0.1187
 1293ERGO    R516058   9.301  13.852   7.066 -0.3313  0.1549  0.1703
 1293ERGO    C116059   9.390  13.899   7.434 -0.1648  0.1798  0.1267
 1293ERGO    C216060   9.415  14.145   7.762 -0.1609  0.2054 -0.1403
 1294ERGO   ROH16061   1.151  17.808   6.561  0.0859  0.2354 -0.4177
 1294ERGO    R116062   1.287  17.805   6.808 -0.1426  0.0958 -0.2898
 1294ERGO    R216063   1.541  17.911   6.840 -0.0774 -0.1248 -0.0482
 1294ERGO    R316064   1.421  18.053   7.039 -0.1383 -0.0384 -0.1450
 1294ERGO    R416065   1.703  18.041   7.116 -0.1443  0.0551 -0.0922
 1294ERGO    R516066   1.533  17.982   7.238 -0.1557  0.0888 -0.0871
 1294ERGO    C116067   1.686  18.250   7.463 -0.2404  0.2412 -0.2088
 1294ERGO    C216068   1.707  18.364   7.839  0.0996  0.3799 -0.1557
 1295ERGO   ROH16069   8.879  12.693   6.199  0.0368 -0.0934 -0.1359
 1295ERGO    R116070   9.001  12.692   6.454 -0.0718  0.0012 -0.0843
 1295ERGO    R216071   9.268  12.635   6.491 -0.1095 -0.0606  0.0567
 1295ERGO    R316072   9.268  12.875   6.620 -0.0861  0.0046 -0.0607
 1295ERGO    R416073   9.537  12.766   6.664 -0.1277 -0.0671  0.0917
 1295ERGO    R516074   9.398  12.836   6.817 -0.1691  0.0533  0.0103
 1295ERGO    C116075   9.695  13.067   6.886 -0.1164 -0.0098  0.0018
 1295ERGO    C216076   9.996  13.190   7.003  0.1520 -0.0372  0.3842
 1296ERGO   ROH16077  16.296   5.681   6.209 -0.1406 -0.1496 -0.0753
 1296ERGO    R116078  16.256   5.539   6.450 -0.0629  0.0542  0.0590
 1296ERGO    R216079  16.385   5.302   6.508 -0.1858  0.0081  0.1333
 1296ERGO    R316080  16.459   5.435   6.733  0.0714  0.1203 -0.0112
 1296ERGO    R416081  16.350   5.180   6.829 -0.1240  0.2935  0.2525
 1296ERGO    R516082  16.290   5.380   6.893  0.1034  0.4081  0.1319
 1296ERGO    C116083  16.399   5.234   7.228  0.1535  0.5652  0.1863
 1296ERGO    C216084  16.628   5.039   7.459 -0.0202 -0.0399  0.2014
 1297ERGO   ROH16085   5.373  13.440   6.297 -0.0318 -0.0207  0.0940
 1297ERGO    R116086   5.326  13.542   6.558 -0.0334  0.0525  0.0664
 1297ERGO    R216087   5.167  13.411   6.742 -0.0952  0.1389  0.0812
 1297ERGO    R316088   5.388  13.433   6.899 -0.1049  0.1101  0.0971
 1297ERGO    R416089   5.176  13.351   7.083 -0.1304  0.1671  0.0861
 1297ERGO    R516090   5.307  13.524   7.105 -0.1013  0.1414  0.0819
 1297ERGO    C116091   5.388  13.338   7.428 -0.1600  0.1564  0.1039
 1297ERGO    C216092   5.531  13.279   7.738 -0.3432 -0.0690  0.0393
 1298ERGO   ROH16093  17.178  13.713   6.550 -0.0410 -0.0437  0.0275
 1298ERGO    R116094  17.106  13.687   6.823 -0.0234 -0.0180  0.0340
 1298ERGO    R216095  17.079  13.905   6.991 -0.0969  0.0019 -0.0089
 1298ERGO    R316096  16.833  13.799   7.036 -0.0577 -0.0778  0.0233
 1298ERGO    R416097  16.899  13.938   7.285 -0.0287 -0.1237  0.0482
 1298ERGO    R516098  16.838  13.730   7.265  0.0221 -0.1390  0.0064
 1298ERGO    C116099  16.564  13.857   7.497  0.0480 -0.2718  0.1117
 1298ERGO    C216100  16.390  13.768   7.735 -0.0395  0.0507 -0.1789
 1299ERGO   ROH16101  16.774   0.173   6.535  0.0484 -0.1805 -0.0872
 1299ERGO    R116102  16.711   0.130   6.808 -0.2107  0.1846 -0.0831
 1299ERGO    R216103  16.904   0.120   7.004 -0.3183 -0.2421  0.0006
 1299ERGO    R316104  16.749   0.312   7.121  0.1718  0.3006 -0.1890
 1299ERGO    R416105  16.929   0.220   7.335 -0.4778 -0.4837  0.0895
 1299ERGO    R516106  16.711   0.229   7.343 -0.4999  0.3180 -0.2715
 1299ERGO    C116107  16.799   0.457   7.636 -0.1105 -0.1149 -0.0368
 1299ERGO    C216108  16.697   0.675   7.942  0.2078 -0.1933  0.1345
 1300ERGO   ROH16109  13.814  17.915   6.420  0.1915 -0.1372  0.1326
 1300ERGO    R116110  13.753  17.764   6.651  0.1849  0.0091  0.2292
 1300ERGO    R216111  13.754  17.874   6.905  0.0042  0.2166  0.1499
 1300ERGO    R316112  13.502  17.773   6.914  0.0626  0.0675  0.1095
 1300ERGO    R416113  13.560  17.851   7.191 -0.0553  0.1492  0.1032
 1300ERGO    R516114  13.492  17.656   7.123  0.0787  0.1004  0.1238
 1300ERGO    C116115  13.211  17.744   7.365 -0.0352 -0.0299  0.0381
 1300ERGO    C216116  12.904  17.693   7.435  0.3680  0.0297  0.1731
 1301ERGO   ROH16117   8.398   0.369   6.511 -0.0488  0.2100  0.0974
 1301ERGO    R116118   8.413   0.259   6.771  0.0344 -0.0008  0.0084
 1301ERGO    R216119   8.650   0.166   6.880  0.1170  0.0891 -0.0617
 1301ERGO    R316120   8.586   0.337   7.082 -0.0287 -0.1204  0.0703
 1301ERGO    R416121   8.749   0.131   7.209  0.1944 -0.0249 -0.0989
 1301ERGO    R516122   8.551   0.196   7.271  0.1462 -0.2768 -0.0230
 1301ERGO    C116123   8.748   0.271   7.590  0.1024 -0.2879  0.0035
 1301ERGO    C216124   8.970   0.393   7.830 -0.3209  0.0289 -0.1938
 1302ERGO   ROH16125  16.261  16.934   6.121 -0.0615 -0.2421  0.0359
 1302ERGO    R116126  16.065  17.083   6.262 -0.0208 -0.0892 -0.0688
 1302ERGO    R216127  16.033  17.064   6.536 -0.1496 -0.0299 -0.0841
 1302ERGO    R316128  16.063  17.334   6.525  0.0348 -0.0488 -0.1049
 1302ERGO    R416129  16.003  17.277   6.807 -0.0853  0.0149 -0.1106
 1302ERGO    R516130  15.899  17.418   6.678  0.0434  0.0749 -0.1578
 1302ERGO    C116131  16.014  17.654   6.955  0.1253  0.0233 -0.1454
 1302ERGO    C216132  16.283  17.842   7.307 -0.2338  0.2369 -0.1184
 1303ERGO   ROH16133  11.002   7.562   6.222 -0.0779  0.0597 -0.2587
 1303ERGO    R116134  11.050   7.593   6.500 -0.0612  0.0281 -0.2581
 1303ERGO    R216135  11.190   7.807   6.603 -0.0769  0.0292 -0.2403
 1303ERGO    R316136  10.967   7.837   6.756 -0.0690 -0.0148 -0.2194
 1303ERGO    R416137  11.190   7.845   6.947 -0.0452  0.1351 -0.2513
 1303ERGO    R516138  11.016   7.714   6.956  0.0088  0.0659 -0.1877
 1303ERGO    C116139  10.981   7.895   7.290 -0.0192  0.1554 -0.2381
 1303ERGO    C216140  10.986   7.835   7.602 -0.0738  0.2759  0.2069
 1304ERGO   ROH16141   9.325   2.868   6.429 -0.0791 -0.0550 -0.0418
 1304ERGO    R116142   9.355   2.939   6.702 -0.0035 -0.1061 -0.0367
 1304ERGO    R216143   9.155   2.901   6.888  0.0348 -0.1047  0.0029
 1304ERGO    R316144   9.349   2.766   7.022  0.0438 -0.1588 -0.0636
 1304ERGO    R416145   9.102   2.705   7.168  0.0900  0.0068  0.0920
 1304ERGO    R516146   9.287   2.785   7.252  0.1780 -0.0563 -0.0334
 1304ERGO    C116147   9.254   2.465   7.457  0.1306  0.0209  0.0815
 1304ERGO    C216148   9.387   2.275   7.525 -0.0575 -0.0275 -0.0913
 1305ERGO   ROH16149   4.471   8.231   6.138 -0.1832 -0.1864  0.2452
 1305ERGO    R116150   4.504   8.322   6.404  0.0476  0.0302  0.1473
 1305ERGO    R216151   4.431   8.170   6.624 -0.1160  0.3521  0.3302
 1305ERGO    R316152   4.689   8.215   6.699 -0.0134  0.0325  0.1846
 1305ERGO    R416153   4.542   8.183   6.951  0.0848  0.2871  0.2656
 1305ERGO    R516154   4.671   8.350   6.896  0.2752  0.1032  0.1614
 1305ERGO    C116155   4.848   8.232   7.212  0.2981 -0.0508  0.0913
 1305ERGO    C216156   4.891   8.245   7.522  0.2231  0.0408 -0.0898
 1306ERGO   ROH16157   8.010   4.170   6.756 -0.0016  0.3677 -0.2045
 1306ERGO    R116158   7.842   4.327   6.921 -0.2422  0.0252 -0.1128
 1306ERGO    R216159   7.651   4.216   7.088  0.1678 -0.3893  0.1010
 1306ERGO    R316160   7.780   4.361   7.278 -0.0029 -0.0013 -0.0664
 1306ERGO    R416161   7.516   4.307   7.393  0.1827 -0.5377  0.1532
 1306ERGO    R516162   7.611   4.502   7.371 -0.2589 -0.3251 -0.0177
 1306ERGO    C116163   7.559   4.496   7.749  0.0310 -0.2597  0.0264
 1306ERGO    C216164   7.668   4.699   8.024  0.1634 -0.1732  0.1465
 1307ERGO   ROH16165   6.177  14.610   6.251  0.0254 -0.0213  0.0916
 1307ERGO    R116166   6.191  14.647   6.531  0.0296 -0.0029  0.0875
 1307ERGO    R216167   6.380  14.809   6.651 -0.0058  0.0423  0.0665
 1307ERGO    R316168   6.162  14.927   6.763 -0.0231  0.0016  0.0787
 1307ERGO    R416169   6.367  14.928   6.975 -0.0695 -0.1630  0.1419
 1307ERGO    R516170   6.164  14.848   6.990 -0.0919 -0.1484  0.0342
 1307ERGO    C116171   6.155  15.107   7.270 -0.1229 -0.3207  0.1973
 1307ERGO    C216172   6.240  15.318   7.413  0.0021  0.0176 -0.0107
 1308ERGO   ROH16173  15.874  11.145   6.066 -0.0701 -0.0687 -0.0947
 1308ERGO    R116174  15.724  11.196   6.301  0.0373 -0.0647 -0.0267
 1308ERGO    R216175  15.547  11.012   6.406 -0.0185 -0.0065 -0.0235
 1308ERGO    R316176  15.694  11.048   6.632  0.0776 -0.1512 -0.0607
 1308ERGO    R416177  15.424  10.983   6.728  0.0228  0.1495  0.0077
 1308ERGO    R516178  15.543  11.157   6.784  0.2292  0.0262 -0.0315
 1308ERGO    C116179  15.490  11.000   7.127  0.1370  0.1045 -0.0091
 1308ERGO    C216180  15.457  11.052   7.530  0.1655  0.0175 -0.1933
 1309ERGO   ROH16181   7.075  17.981   6.570  0.1881  0.1191 -0.0705
 1309ERGO    R116182   7.017  17.885   6.830  0.0288 -0.0381 -0.1640
 1309ERGO    R216183   7.113  18.007   7.059  0.0157 -0.2707 -0.0435
 1309ERGO    R316184   6.850  18.013   7.127 -0.0067 -0.1597 -0.1274
 1309ERGO    R416185   6.989  18.119   7.361  0.0042 -0.4011  0.0024
 1309ERGO    R516186   6.847  17.955   7.359 -0.1039 -0.3247 -0.1593
 1309ERGO    C116187   6.670  18.190   7.601 -0.0235 -0.3729 -0.0496
 1309ERGO    C216188   6.355  18.281   7.733  0.0559  0.1340  0.0981
 1310ERGO   ROH16189   6.445  13.396   6.751 -0.1513  0.0005 -0.1156
 1310ERGO    R116190   6.386  13.469   7.018 -0.0183  0.1393 -0.1234
 1310ERGO    R216191   6.433  13.301   7.232 -0.0752  0.1838 -0.0807
 1310ERGO    R316192   6.572  13.514   7.327  0.1065  0.1184 -0.1935
 1310ERGO    R416193   6.501  13.359   7.566 -0.2134  0.4012 -0.0875
 1310ERGO    R516194   6.462  13.570   7.532  0.0397  0.4241 -0.3048
 1310ERGO    C116195   6.672  13.592   7.850 -0.1234  0.4665 -0.1975
 1310ERGO    C216196   6.767  13.691   8.180  0.0219 -0.2953 -0.0211
 1311ERGO   ROH16197   4.012   8.291   6.257 -0.0945  0.1235 -0.0571
 1311ERGO    R116198   3.907   8.366   6.508 -0.0433 -0.0070  0.0044
 1311ERGO    R216199   3.797   8.184   6.685  0.2021 -0.1310  0.0307
 1311ERGO    R316200   3.977   8.292   6.858  0.1885  0.0035 -0.0375
 1311ERGO    R416201   3.733   8.257   7.017  0.3443 -0.4353  0.1290
 1311ERGO    R516202   3.847   8.441   6.993  0.0785 -0.2576  0.1574
 1311ERGO    C116203   3.865   8.401   7.372  0.4145 -0.4863  0.1223
 1311ERGO    C216204   3.661   8.397   7.724 -0.0988  0.1431 -0.1093
 1312ERGO   ROH16205   4.385   3.952   6.601  0.2666 -0.4347 -0.1662
 1312ERGO    R116206   4.490   4.021   6.855  0.2460 -0.1987 -0.2180
 1312ERGO    R216207   4.396   3.908   7.090  0.0416  0.2124 -0.0891
 1312ERGO    R316208   4.658   3.847   7.127 -0.0330 -0.0144  0.0790
 1312ERGO    R416209   4.540   3.830   7.394 -0.1588  0.3710  0.0482
 1312ERGO    R516210   4.714   3.947   7.337 -0.0185  0.1394  0.0002
 1312ERGO    C116211   4.869   3.726   7.606 -0.3455  0.2504  0.2860
 1312ERGO    C216212   4.984   3.560   7.907 -0.3488  0.2231  0.0646
 1313ERGO   ROH16213   9.354  11.167   6.189 -0.3283  0.1750 -0.0737
 1313ERGO    R116214   9.455  11.193   6.452 -0.1535  0.0067 -0.1205
 1313ERGO    R216215   9.463  11.435   6.585  0.1633 -0.0285 -0.0567
 1313ERGO    R316216   9.325  11.299   6.775  0.1280  0.0555 -0.0226
 1313ERGO    R416217   9.497  11.482   6.926  0.1259  0.0793 -0.0678
 1313ERGO    R516218   9.483  11.266   6.952  0.0977  0.0960  0.0062
 1313ERGO    C116219   9.388  11.381   7.303  0.0709  0.2210 -0.0423
 1313ERGO    C216220   9.416  11.488   7.677  0.3629 -0.0953  0.0607
 1314ERGO   ROH16221  18.040   5.472   6.057  0.0789 -0.3077  0.1278
 1314ERGO    R116222  18.207   5.543   6.275  0.0545 -0.2345  0.1254
 1314ERGO    R216223  18.153   5.758   6.440  0.1120 -0.0823 -0.0346
 1314ERGO    R316224  18.173   5.571   6.636 -0.0394  0.0375  0.0951
 1314ERGO    R416225  18.325   5.800   6.737  0.1410 -0.0295 -0.0607
 1314ERGO    R516226  18.396   5.595   6.719 -0.0276 -0.0926  0.0820
 1314ERGO    C116227  18.444   5.648   7.093  0.0158  0.1138  0.0459
 1314ERGO    C216228  18.441   5.631   7.382 -0.2720  0.2260  0.0116
 1315ERGO   ROH16229   9.717   1.918   5.964  0.0627 -0.0292  0.0512
 1315ERGO    R116230   9.765   1.983   6.236 -0.1046  0.1854  0.0313
 1315ERGO    R216231  10.012   1.947   6.355 -0.2405  0.0719  0.2661
 1315ERGO    R316232   9.984   2.210   6.418 -0.0490  0.1616 -0.0004
 1315ERGO    R416233  10.146   2.099   6.635 -0.4735  0.1435  0.3424
 1315ERGO    R516234   9.961   2.212   6.656 -0.3964  0.3728 -0.0212
 1315ERGO    C116235  10.198   2.434   6.857 -0.4291  0.2694  0.1366
 1315ERGO    C216236  10.264   2.675   7.071  0.1427 -0.4227 -0.0217
 1316ERGO   ROH16237  12.874   9.311   5.802  0.1775  0.0006  0.0427
 1316ERGO    R116238  13.100   9.346   5.969  0.0726 -0.1008  0.2093
 1316ERGO    R216239  13.148   9.580   6.108  0.1686 -0.0529  0.0979
 1316ERGO    R316240  13.161   9.412   6.321 -0.1629  0.0688  0.2209
 1316ERGO    R416241  13.266   9.667   6.421  0.2916 -0.0401  0.0483
 1316ERGO    R516242  13.365   9.473   6.432 -0.0590 -0.2186  0.1978
 1316ERGO    C116243  13.348   9.560   6.803  0.0520  0.0818  0.1350
 1316ERGO    C216244  13.553   9.572   7.029  0.2012  0.4598 -0.0346
 1317ERGO   ROH16245   3.338  14.247   6.469  0.1986 -0.1400  0.1300
 1317ERGO    R116246   3.207  14.182   6.712  0.1006 -0.2055  0.0605
 1317ERGO    R216247   3.293  13.976   6.877  0.1352 -0.1429  0.1217
 1317ERGO    R316248   3.295  14.172   7.065 -0.0930 -0.1284  0.1118
 1317ERGO    R416249   3.268  13.924   7.217 -0.1522 -0.1256  0.1055
 1317ERGO    R516250   3.138  14.099   7.230 -0.2184 -0.1645 -0.0216
 1317ERGO    C116251   3.255  14.078   7.592 -0.5339 -0.1019  0.0867
 1317ERGO    C216252   3.219  14.312   7.754 -0.0803  0.0649  0.0673
 1318ERGO   ROH16253   7.439   0.516   6.938  0.1014  0.2416 -0.0409
 1318ERGO    R116254   7.639   0.476   7.135  0.0473  0.0871 -0.0159
 1318ERGO    R216255   7.688   0.658   7.336  0.1960  0.0743 -0.0371
 1318ERGO    R316256   7.650   0.442   7.497 -0.0199  0.1302 -0.0103
 1318ERGO    R416257   7.808   0.628   7.659  0.2283 -0.0387 -0.0594
 1318ERGO    R516258   7.856   0.420   7.617 -0.0203 -0.0985 -0.0512
 1318ERGO    C116259   7.842   0.407   7.998  0.0444 -0.0520 -0.0473
 1318ERGO    C216260   8.010   0.461   8.232 -0.0724  0.0205  0.1157
 1319ERGO   ROH16261  17.849  17.434   6.562 -0.0004 -0.2092 -0.1392
 1319ERGO    R116262  18.020  17.318   6.755  0.0129 -0.1641 -0.1231
 1319ERGO    R216263  18.047  17.420   7.011  0.0344 -0.1015 -0.1481
 1319ERGO    R316264  17.983  17.167   7.084  0.0350 -0.0821 -0.0834
 1319ERGO    R416265  18.006  17.312   7.337  0.0850 -0.0345 -0.1197
 1319ERGO    R516266  18.108  17.128   7.284  0.0655 -0.0484 -0.0982
 1319ERGO    C116267  17.921  17.011   7.595  0.1150  0.0227 -0.0423
 1319ERGO    C216268  17.773  16.762   7.812 -0.1346 -0.0412  0.0111
 1320ERGO   ROH16269   4.109   6.961   6.277 -0.2232 -0.0498  0.1713
 1320ERGO    R116270   4.114   6.794   6.506 -0.2321 -0.0802  0.1483
 1320ERGO    R216271   4.312   6.809   6.698 -0.1534 -0.2156  0.0731
 1320ERGO    R316272   4.101   6.839   6.867 -0.0718 -0.1199  0.1611
 1320ERGO    R416273   4.335   6.826   7.042 -0.0033 -0.3302  0.0703
 1320ERGO    R516274   4.156   6.703   7.056 -0.0871 -0.2158  0.1017
 1320ERGO    C116275   4.150   6.864   7.401  0.1607 -0.3069  0.1514
 1320ERGO    C216276   4.267   6.940   7.785  0.0059  0.1708 -0.0527
 1321ERGO   ROH16277  12.696  10.468   6.007  0.0325  0.0625 -0.0522
 1321ERGO    R116278  12.543  10.501   6.243 -0.0876 -0.1198 -0.1049
 1321ERGO    R216279  12.440  10.287   6.384  0.1896 -0.2458 -0.1027
 1321ERGO    R316280  12.571  10.402   6.592 -0.0473 -0.0117 -0.0749
 1321ERGO    R416281  12.330  10.287   6.712  0.2463 -0.7036 -0.0756
 1321ERGO    R516282  12.397  10.493   6.729 -0.2690 -0.5197  0.0139
 1321ERGO    C116283  12.389  10.395   7.098  0.0570 -0.7504 -0.0337
 1321ERGO    C216284  12.347  10.411   7.453 -0.0325  0.1042  0.0850
 1322ERGO   ROH16285   7.297  17.501   6.561 -0.0461 -0.0193  0.0595
 1322ERGO    R116286   7.137  17.446   6.788 -0.1022  0.0657  0.0410
 1322ERGO    R216287   7.244  17.371   7.031 -0.1741 -0.0925  0.0252
 1322ERGO    R316288   7.099  17.581   7.124  0.0101  0.0161  0.0741
 1322ERGO    R416289   7.143  17.412   7.359 -0.1318 -0.0737  0.0362
 1322ERGO    R516290   6.951  17.484   7.285 -0.0716  0.1100  0.0562
 1322ERGO    C116291   6.948  17.633   7.637  0.0658  0.0391  0.0884
 1322ERGO    C216292   6.790  17.748   7.845 -0.1072 -0.2126  0.0316
 1323ERGO   ROH16293   0.725   6.289   6.266  0.0976  0.1682  0.0727
 1323ERGO    R116294   0.712   6.123   6.495  0.0233 -0.0818 -0.1089
 1323ERGO    R216295   0.918   5.954   6.568  0.0498 -0.0691 -0.1582
 1323ERGO    R316296   0.898   6.086   6.805 -0.1580 -0.3283 -0.0261
 1323ERGO    R416297   1.095   5.875   6.854  0.3619  0.0690 -0.3076
 1323ERGO    R516298   0.915   5.913   6.971  0.3100 -0.4529 -0.1890
 1323ERGO    C116299   1.180   5.951   7.243  0.3487 -0.0940 -0.2706
 1323ERGO    C216300   1.338   6.217   7.396 -0.0231  0.1736  0.0798
 1324ERGO   ROH16301  10.086  14.759   6.008 -0.1057 -0.1781  0.1241
 1324ERGO    R116302   9.964  14.872   6.237 -0.0017 -0.1122  0.1478
 1324ERGO    R216303   9.705  14.967   6.235  0.0866  0.1433  0.1621
 1324ERGO    R316304   9.676  14.799   6.447 -0.0817  0.1167  0.1200
 1324ERGO    R416305   9.566  15.055   6.540  0.0344  0.1565  0.1347
 1324ERGO    R516306   9.721  14.937   6.638 -0.0680  0.0495  0.1632
 1324ERGO    C116307   9.459  14.949   6.916 -0.1538  0.1391  0.0793
 1324ERGO    C216308   9.289  14.864   7.139  0.1430 -0.1162 -0.2281
 1325ERGO   ROH16309  11.021   9.444   5.990  0.3626 -0.3305 -0.0326
 1325ERGO    R116310  11.065   9.317   6.239  0.4019 -0.1452  0.0558
 1325ERGO    R216311  11.264   9.396   6.414  0.1204  0.2999  0.1826
 1325ERGO    R316312  11.058   9.413   6.590 -0.0554 -0.0058  0.0178
 1325ERGO    R416313  11.296   9.369   6.757 -0.1029  0.3401  0.2084
 1325ERGO    R516314  11.112   9.252   6.760  0.0554  0.0611  0.0559
 1325ERGO    C116315  11.120   9.370   7.122 -0.3979  0.0765  0.0685
 1325ERGO    C216316  11.098   9.485   7.355  0.0425 -0.2821 -0.1616
 1326ERGO   ROH16317  10.126   8.504   6.085  0.0829  0.0612  0.1158
 1326ERGO    R116318  10.279   8.586   6.308 -0.0067  0.2424  0.1138
 1326ERGO    R216319  10.221   8.813   6.455 -0.2350  0.2105  0.0787
 1326ERGO    R316320  10.221   8.639   6.663 -0.0800  0.2380  0.1022
 1326ERGO    R416321  10.334   8.886   6.773 -0.2342  0.3319  0.0508
 1326ERGO    R516322  10.423   8.687   6.782 -0.0945  0.3950  0.0639
 1326ERGO    C116323  10.399   8.764   7.154 -0.0883  0.4284  0.0567
 1326ERGO    C216324  10.424   8.693   7.454  0.1348  0.0801 -0.3460
 1327ERGO   ROH16325  15.011  16.998   6.324  0.0829 -0.1396  0.0245
 1327ERGO    R116326  15.055  17.118   6.577  0.0879 -0.0982  0.0043
 1327ERGO    R216327  14.874  17.097   6.785  0.0463  0.0178 -0.0188
 1327ERGO    R316328  15.089  17.004   6.921 -0.0101 -0.0336  0.0357
 1327ERGO    R416329  14.960  17.191   7.106 -0.0610 -0.0714  0.0367
 1327ERGO    R516330  15.169  17.194   7.044 -0.0389 -0.0718  0.1129
 1327ERGO    C116331  15.213  17.158   7.421 -0.1765 -0.1714  0.1201
 1327ERGO    C216332  15.324  17.340   7.691  0.1290 -0.0779 -0.0753
 1328ERGO   ROH16333   3.724   9.392   6.083 -0.0706 -0.4447 -0.0313
 1328ERGO    R116334   3.809   9.290   6.333 -0.0447 -0.2532  0.0395
 1328ERGO    R216335   3.948   9.444   6.517  0.0339 -0.1301 -0.1190
 1328ERGO    R316336   3.748   9.366   6.684  0.0476  0.0639 -0.0104
 1328ERGO    R416337   3.888   9.578   6.829  0.1685  0.1095 -0.1943
 1328ERGO    R516338   3.845   9.378   6.902  0.1088  0.1770 -0.0438
 1328ERGO    C116339   3.667   9.584   7.168  0.2599  0.4312 -0.1362
 1328ERGO    C216340   3.628   9.716   7.499 -0.1218  0.2084 -0.3440
 1329ERGO   ROH16341  14.580  12.254   6.032  0.2334 -0.1333  0.0343
 1329ERGO    R116342  14.466  12.273   6.291  0.1227 -0.2042 -0.0103
 1329ERGO    R216343  14.321  12.068   6.405  0.2136 -0.2907 -0.0709
 1329ERGO    R316344  14.499  12.098   6.608  0.1103 -0.1787  0.0082
 1329ERGO    R416345  14.257  11.994   6.737  0.1104 -0.3672 -0.1058
 1329ERGO    R516346  14.367  12.173   6.793 -0.0355 -0.2840 -0.0414
 1329ERGO    C116347  14.388  11.978   7.120 -0.0467 -0.3067 -0.0518
 1329ERGO    C216348  14.538  11.936   7.353  0.0838  0.0053 -0.0768
 1330ERGO   ROH16349  16.290   1.334   6.981  0.1914  0.0956  0.0824
 1330ERGO    R116350  16.308   1.353   7.262  0.1591  0.1924  0.0781
 1330ERGO    R216351  16.174   1.547   7.407 -0.0322  0.1085  0.0155
 1330ERGO    R316352  16.078   1.333   7.544  0.1626  0.0545  0.0718
 1330ERGO    R416353  16.010   1.563   7.711 -0.1513  0.0537 -0.0450
 1330ERGO    R516354  16.119   1.385   7.774  0.0302  0.1978  0.0649
 1330ERGO    C116355  15.825   1.371   8.016 -0.0377 -0.0289 -0.0274
 1330ERGO    C216356  15.512   1.365   8.221 -0.1418 -0.0504  0.0175
 1331ERGO   ROH16357   2.725   9.726   6.414 -0.0947 -0.2234  0.0232
 1331ERGO    R116358   2.788   9.845   6.663 -0.0549 -0.2411  0.0213
 1331ERGO    R216359   2.597   9.964   6.824 -0.0094 -0.1493  0.0053
 1331ERGO    R316360   2.695   9.794   7.011 -0.0960 -0.1842  0.0193
 1331ERGO    R416361   2.530   9.983   7.162  0.1887  0.0614  0.0358
 1331ERGO    R516362   2.738   9.932   7.202  0.1584 -0.1522 -0.0569
 1331ERGO    C116363   2.583   9.833   7.536  0.2228  0.1515  0.0667
 1331ERGO    C216364   2.515   9.548   7.770  0.0984  0.0289  0.2142
 1332ERGO   ROH16365   5.737  17.506   6.579 -0.0459  0.0329  0.0181
 1332ERGO    R116366   5.725  17.668   6.810 -0.1630 -0.0677  0.0855
 1332ERGO    R216367   5.714  17.564   7.066  0.0202 -0.1819  0.0568
 1332ERGO    R316368   5.930  17.724   7.105 -0.1405  0.0383  0.0473
 1332ERGO    R416369   5.812  17.691   7.371 -0.1263 -0.0103  0.0322
 1332ERGO    R516370   5.858  17.880   7.272 -0.3005  0.0067 -0.0000
 1332ERGO    C116371   6.071  17.916   7.587 -0.3624  0.2963  0.0089
 1332ERGO    C216372   6.001  17.906   7.956  0.1115  0.2599 -0.0307
 1333ERGO   ROH16373   3.801   3.137   6.803  0.0383 -0.1344 -0.0392
 1333ERGO    R116374   3.998   3.009   6.962  0.0818 -0.0111  0.0109
 1333ERGO    R216375   4.055   3.087   7.220 -0.0882 -0.0250  0.0624
 1333ERGO    R316376   4.006   2.825   7.276  0.0977 -0.0797 -0.0318
 1333ERGO    R416377   4.158   2.924   7.507 -0.2686  0.0269  0.1562
 1333ERGO    R516378   4.206   2.750   7.385  0.0399  0.0929  0.1887
 1333ERGO    C116379   4.171   2.584   7.727 -0.1990  0.0056  0.1224
 1333ERGO    C216380   4.063   2.343   7.929 -0.1182  0.0475 -0.1877
 1334ERGO   ROH16381  15.811   3.087   6.630  0.1521 -0.0531 -0.0584
 1334ERGO    R116382  15.721   3.069   6.898  0.2180 -0.2710 -0.0483
 1334ERGO    R216383  15.893   3.028   7.110  0.3474  0.1169 -0.0672
 1334ERGO    R316384  15.775   3.252   7.208 -0.1678 -0.1464 -0.0504
 1334ERGO    R416385  15.924   3.140   7.435  0.4300  0.3722 -0.1613
 1334ERGO    R516386  15.712   3.193   7.432  0.2614 -0.2165  0.0598
 1334ERGO    C116387  15.831   3.417   7.717 -0.0057  0.2736 -0.2003
 1334ERGO    C216388  15.951   3.490   8.118  0.3064 -0.1607  0.0316
 1335ERGO   ROH16389   1.563  10.292   6.870  0.0228  0.1777 -0.0617
 1335ERGO    R116390   1.464  10.431   7.096 -0.0394  0.0387 -0.0016
 1335ERGO    R216391   1.378  10.301   7.325  0.1819 -0.0915  0.0136
 1335ERGO    R316392   1.557  10.466   7.446  0.0585  0.0784 -0.0324
 1335ERGO    R416393   1.371  10.391   7.658  0.1859 -0.0914  0.0134
 1335ERGO    R516394   1.426  10.593   7.601 -0.0184 -0.0413 -0.0020
 1335ERGO    C116395   1.534  10.597   7.966  0.0723  0.0683 -0.0298
 1335ERGO    C216396   1.530  10.745   8.295  0.1810  0.0913 -0.0740
 1336ERGO   ROH16397   7.238  16.998   6.525 -0.0952  0.1321  0.0693
 1336ERGO    R116398   7.144  16.969   6.790 -0.0018  0.1709  0.1071
 1336ERGO    R216399   7.181  16.737   6.936 -0.0037  0.1703  0.1056
 1336ERGO    R316400   7.291  16.908   7.117  0.1077  0.1532  0.0556
 1336ERGO    R416401   7.180  16.690   7.279  0.1804  0.1491  0.1045
 1336ERGO    R516402   7.139  16.903   7.303  0.2075  0.1517  0.1389
 1336ERGO    C116403   7.281  16.823   7.648  0.3921  0.1205  0.0568
 1336ERGO    C216404   7.176  16.769   7.945  0.1180 -0.1050  0.1273
 1337ERGO   ROH16405  16.055  12.983   6.205 -0.1522 -0.3978 -0.0903
 1337ERGO    R116406  16.049  13.085   6.469 -0.0563 -0.1840 -0.1673
 1337ERGO    R216407  15.819  13.085   6.623 -0.0244  0.0159 -0.1098
 1337ERGO    R316408  15.977  12.954   6.801 -0.0246  0.1015 -0.0466
 1337ERGO    R416409  15.742  13.036   6.956 -0.0517  0.1101 -0.1026
 1337ERGO    R516410  15.950  13.077   7.005 -0.0679  0.1607 -0.0906
 1337ERGO    C116411  15.845  12.885   7.318 -0.0679  0.2454 -0.0391
 1337ERGO    C216412  15.759  12.787   7.659 -0.2877 -0.0464  0.0131
 1338ERGO   ROH16413  10.119   4.412   6.319 -0.2039  0.2506 -0.1054
 1338ERGO    R116414  10.273   4.423   6.556 -0.2333  0.0188 -0.0734
 1338ERGO    R216415  10.406   4.651   6.637  0.0804 -0.1682 -0.0350
 1338ERGO    R316416  10.266   4.612   6.867 -0.0285  0.0166 -0.0677
 1338ERGO    R416417  10.460   4.821   6.933 -0.0570  0.0490 -0.1315
 1338ERGO    R516418  10.429   4.634   7.041 -0.1163  0.1374 -0.0047
 1338ERGO    C116419  10.360   4.884   7.321 -0.2391  0.3490 -0.2184
 1338ERGO    C216420  10.164   4.938   7.575 -0.2286  0.0946 -0.0332
 1339ERGO   ROH16421   0.906   9.650   6.705  0.1546  0.1798 -0.3288
 1339ERGO    R116422   1.077   9.479   6.852 -0.0284  0.1934 -0.0934
 1339ERGO    R216423   1.346   9.453   6.795 -0.0548 -0.1897 -0.0749
 1339ERGO    R316424   1.375   9.517   7.057  0.0240  0.1562 -0.1637
 1339ERGO    R416425   1.606   9.348   6.996 -0.1630 -0.1879  0.0677
 1339ERGO    R516426   1.463   9.318   7.157 -0.1903  0.2002  0.1199
 1339ERGO    C116427   1.786   9.347   7.359 -0.1521  0.1380  0.0674
 1339ERGO    C216428   2.155   9.245   7.440  0.0194 -0.2837 -0.1755
 1340ERGO   ROH16429  13.483   3.335   7.513 -0.1565 -0.1063  0.3066
 1340ERGO    R116430  13.657   3.139   7.620 -0.1304 -0.1485  0.1858
 1340ERGO    R216431  13.931   3.151   7.589 -0.1512 -0.2046  0.0135
 1340ERGO    R316432  13.931   3.131   7.860  0.0211 -0.2231  0.0149
 1340ERGO    R416433  14.208   3.195   7.791 -0.0754  0.0791 -0.1450
 1340ERGO    R516434  14.140   3.027   7.912  0.1683 -0.0074 -0.1121
 1340ERGO    C116435  14.369   3.202   8.163  0.1304  0.2270 -0.2360
 1340ERGO    C216436  14.458   3.435   8.459  0.0378 -0.0624  0.2149
 1341ERGO   ROH16437   0.959   8.617   6.670  0.0279 -0.1373  0.0616
 1341ERGO    R116438   0.877   8.577   6.938 -0.0278 -0.0081  0.0643
 1341ERGO    R216439   1.008   8.406   7.110 -0.1767 -0.0699  0.1173
 1341ERGO    R316440   1.020   8.626   7.269 -0.0186 -0.0398  0.0653
 1341ERGO    R416441   1.105   8.406   7.442 -0.3936 -0.1015  0.1822
 1341ERGO    R516442   0.946   8.550   7.483 -0.2532  0.1010  0.0394
 1341ERGO    C116443   1.173   8.613   7.784 -0.3714 -0.0916  0.1711
 1341ERGO    C216444   1.246   8.830   8.027 -0.1283  0.1544 -0.0188
 1342ERGO   ROH16445   6.670  18.161   6.644  0.1595  0.0695 -0.2323
 1342ERGO    R116446   6.769  18.301   6.869  0.1612  0.0126 -0.1981
 1342ERGO    R216447   6.709  18.566   6.917  0.1196 -0.0168 -0.1035
 1342ERGO    R316448   6.628  18.471   7.158  0.1674 -0.1083 -0.1223
 1342ERGO    R416449   6.626  18.763   7.189 -0.1936 -0.0999 -0.1347
 1342ERGO    R516450   6.728  18.619   7.318 -0.0519  0.0244 -0.1002
 1342ERGO    C116451   6.501  18.788   7.574 -0.3312 -0.2343 -0.1706
 1342ERGO    C216452   6.507  19.037   7.810 -0.0948  0.0154 -0.1840
 1343ERGO   ROH16453  17.747   7.098   6.902 -0.0208  0.1406  0.1803
 1343ERGO    R116454  17.650   6.935   7.112 -0.1192 -0.1396 -0.0770
 1343ERGO    R216455  17.524   7.039   7.334  0.1390 -0.3955  0.1872
 1343ERGO    R316456  17.327   6.866   7.264 -0.1322 -0.0139 -0.0396
 1343ERGO    R416457  17.233   6.988   7.514  0.1598 -0.3120  0.2472
 1343ERGO    R516458  17.251   6.774   7.472 -0.1434 -0.2841 -0.1487
 1343ERGO    C116459  16.879   6.795   7.552 -0.0826  0.0949  0.0692
 1343ERGO    C216460  16.693   6.836   7.894  0.2729 -0.3177  0.1141
 1344ERGO   ROH16461   6.185   9.867   6.068 -0.0200 -0.1865  0.1821
 1344ERGO    R116462   6.096   9.959   6.321  0.0032 -0.0968  0.1582
 1344ERGO    R216463   6.188   9.853   6.559  0.0627  0.0216  0.1895
 1344ERGO    R316464   6.246  10.113   6.614  0.0218  0.0568  0.0689
 1344ERGO    R416465   6.330   9.966   6.853  0.0435  0.1817  0.1380
 1344ERGO    R516466   6.196  10.137   6.847  0.0171  0.1577  0.0574
 1344ERGO    C116467   6.467  10.276   7.076 -0.0062  0.3078 -0.0051
 1344ERGO    C216468   6.488  10.090   7.447  0.0124  0.0322 -0.3137
 1345ERGO   ROH16469   3.674  11.674   6.108  0.1776 -0.1543  0.0292
 1345ERGO    R116470   3.862  11.591   6.303  0.1195  0.0276  0.1663
 1345ERGO    R216471   3.912  11.735   6.533 -0.2457  0.0395  0.2454
 1345ERGO    R316472   3.855  11.499   6.655 -0.0658 -0.0609  0.1402
 1345ERGO    R416473   3.993  11.656   6.860 -0.3151  0.0100  0.2556
 1345ERGO    R516474   4.045  11.455   6.793 -0.0840  0.0825  0.2110
 1345ERGO    C116475   3.986  11.388   7.164 -0.1867 -0.1014  0.1626
 1345ERGO    C216476   3.877  11.213   7.306  0.1186 -0.3062 -0.0450
 1346W        W16477   2.069  16.848  11.394  0.2754  0.1614  0.1083
 1347W        W16478  10.960   4.814   4.896 -0.0018  0.1769 -0.2551
 1348W        W16479  14.099  16.893   2.999 -0.0355  0.0148 -0.3329
 1349W        W16480  11.984   7.121  13.924 -0.1524 -0.3984 -0.1031
 1350W        W16481   6.614   1.619  12.836  0.1174  0.0463  0.1328
 1351W        W16482   8.345   9.955  12.406  0.0861  0.2618 -0.3411
 1352W        W16483  16.460   4.089   0.754 -0.4597  0.4222  0.1112
 1353W        W16484   1.906   6.436  14.938  0.2030  0.1891  0.5085
 1354W        W16485   2.603   1.552  12.298 -0.3015 -0.0004 -0.0516
 1355W        W16486   4.303   3.027  14.188 -0.0339  0.0618 -0.4487
 1356W        W16487   2.980   4.077   5.002 -0.0335 -0.0370 -0.0395
 1357W        W16488   4.454  13.031   4.123  0.0808 -0.0794  0.0800
 1358W        W16489  10.242  15.679   3.828  0.0089 -0.1140 -0.0632
 1359W        W16490   6.308   5.079  14.104 -0.2718  0.0651 -0.0445
 1360W        W16491   5.094  16.227  11.210 -0.2360  0.1004 -0.5815
 1361W        W16492   8.406   9.141  12.824 -0.1191 -0.1322 -0.0085
 1362W        W16493  17.060  14.226  11.036 -0.1646 -0.1713 -0.0662
 1363W        W16494  12.335   5.087  14.118  0.2349 -0.1625 -0.1142
 1364W        W16495   2.998  12.266  12.093 -0.1521  0.0798  0.0180
 1365W        W16496  10.283   1.673   5.973 -0.3333  0.1520 -0.0036
 1366W        W16497  12.045  14.987  11.941 -0.2728 -0.0216  0.0109
 1367W        W16498   6.994   2.536   3.336 -0.1243  0.1556  0.1072
 1368W        W16499   8.348  17.234  11.337 -0.1263  0.4118 -0.0759
 1369W        W16500   1.518  11.963  15.776  0.1287  0.1814  0.0431
 1370W        W16501  13.931   9.206  12.918  0.0913 -0.3057  0.0396
 1371W        W16502  15.257   9.933   1.643  0.1274 -0.1915  0.0479
 1372W        W16503   1.205  17.368   2.109  0.1600 -0.3248  0.2390
 1373W        W16504   1.299   4.479  15.518  0.2285  0.2338 -0.3343
 1374W        W16505   5.970  11.361  15.355  0.0772 -0.1576 -0.2305
 1375W        W16506  10.884   6.279  16.026 -0.2274 -0.1545  0.0825
 1376W        W16507   6.110  10.490   5.544  0.1481 -0.0999  0.0836
 1377W        W16508   1.198  14.312  10.621 -0.0981 -0.1163 -0.0560
 1378W        W16509   0.867   0.788  11.513  0.0507  0.0160  0.0252
 1379W        W16510   2.615   6.319  15.595 -0.0137  0.1549  0.2197
 1380W        W16511  10.708  15.849   3.161 -0.1280 -0.0492  0.0149
 1381W        W16512   5.278   2.470  14.944 -0.1931 -0.1814  0.5011
 1382W        W16513   0.988  10.008   3.798  0.1162  0.0760  0.0298
 1383W        W16514   0.722  10.757   4.221 -0.0752  0.3007 -0.0291
 1384W        W16515  10.823  14.814   0.558 -0.0048 -0.1590  0.2172
 1385W        W16516   0.605   7.207  15.850  0.0002 -0.0764  0.1376
 1386W        W16517   7.095  16.185  12.678 -0.2043 -0.2775 -0.1203
 1387W        W16518   2.489  13.416   0.495  0.1671 -0.2993 -0.0342
 1388W        W16519   3.450   3.513  14.585 -0.1633 -0.0367  0.1004
 1389W        W16520  17.624  16.203  14.920 -0.0754  0.1714 -0.1542
 1390W        W16521  17.701   2.477  15.249 -0.0297  0.0859  0.1656
 1391W        W16522  10.354  16.512  14.238  0.2702 -0.4799  0.1678
 1392W        W16523   8.591   8.048   2.966  0.0685 -0.0354  0.4542
 1393W        W16524   8.082  16.771  11.152  0.2242  0.1703 -0.0416
 1394W        W16525   9.648  12.257  11.379  0.1765 -0.0288  0.2062
 1395W        W16526   7.586  18.105   5.173  0.0292 -0.0212 -0.2513
 1396W        W16527  12.332  17.780   5.483  0.0068  0.1011  0.1422
 1397W        W16528  17.071   3.789   4.580 -0.4329 -0.1454  0.1030
 1398W        W16529  16.449  15.490   3.521 -0.0052  0.1550  0.0827
 1399W        W16530  18.292   8.032   4.551 -0.3885  0.0794  0.5530
 1400W        W16531   4.203   9.076   2.222  0.1606 -0.0039  0.0279
 1401W        W16532  14.414   5.189  15.141  0.1111  0.0071 -0.0019
 1402W        W16533   2.394   9.759  12.009 -0.1483 -0.0341 -0.0321
 1403W        W16534   4.229  15.533  11.779 -0.1514 -0.0028  0.0955
 1404W        W16535  11.562   0.396  15.724 -0.0750 -0.2191  0.0466
 1405W        W16536  13.944   8.895   5.897 -0.1742  0.2992  0.3473
 1406W        W16537   9.154   0.378   0.423  0.0706 -0.0346  0.0838
 1407W        W16538   6.893   3.214  12.236 -0.1728 -0.1189  0.0788
 1408W        W16539   6.662  17.228  14.435 -0.2687 -0.0534 -0.0207
 1409W        W16540   5.458  14.684   5.516  0.0630 -0.4229 -0.3257
 1410W        W16541   0.945   6.337  14.553  0.0397 -0.1431 -0.0010
 1411W        W16542   1.953   9.218   1.470  0.0803  0.1837 -0.0726
 1412W        W16543   9.075  10.401   3.758  0.1271 -0.4132 -0.0888
 1413W        W16544  10.894   3.760  13.273 -0.0110 -0.1376  0.1758
 1414W        W16545   9.127  10.222   2.981  0.1195  0.0280 -0.0559
 1415W        W16546  11.230  15.070  15.904 -0.1012  0.0550  0.2896
 1416W        W16547  14.192   4.522  12.714 -0.0658 -0.0889 -0.2138
 1417W        W16548  10.563   8.090   6.069  0.1034 -0.0474 -0.2153
 1418W        W16549  12.723   6.311  14.248 -0.1542  0.3325 -0.0531
 1419W        W16550  12.391  11.288   1.650  0.0191 -0.1607  0.1027
 1420W        W16551  17.942   9.010  10.807 -0.0748  0.2917  0.1081
 1421W        W16552  12.389   7.448  11.986  0.0472  0.1211  0.1625
 1422W        W16553   8.372  16.504   4.429 -0.2146 -0.2224 -0.0339
 1423W        W16554  14.279  14.166   3.029 -0.2004  0.0266 -0.1312
 1424W        W16555   6.513   2.475   4.977 -0.1285 -0.0153  0.0878
 1425W        W16556   9.838   9.626   4.045  0.0320 -0.0678 -0.0643
 1426W        W16557   2.940   3.671   5.325 -0.0607 -0.0723 -0.0922
 1427W        W16558   0.291  10.789   2.180 -0.0187 -0.0887 -0.2113
 1428W        W16559   6.640  14.373   3.259  0.0164  0.4015  0.2520
 1429W        W16560  15.217   8.913  15.606  0.0578  0.0671 -0.0557
 1430W        W16561  12.460  17.058   5.671 -0.2160 -0.2681 -0.1344
 1431W        W16562  12.598   6.806   5.600 -0.0844 -0.1367 -0.1811
 1432W        W16563  10.472  11.510  15.946 -0.1131 -0.0470 -0.0527
 1433W        W16564  18.302   1.718   2.168  0.2507  0.2140  0.2032
 1434W        W16565   9.736   4.370  10.603 -0.0422  0.2208  0.0697
 1435W        W16566   5.298  13.496  13.051 -0.2380  0.2030 -0.2763
 1436W        W16567  11.739   3.768  15.183  0.0646 -0.1470 -0.0011
 1437W        W16568  12.209   2.218   4.714 -0.1373  0.2484 -0.2966
 1438W        W16569   7.338  13.898   5.967 -0.1981 -0.2672  0.0495
 1439W        W16570  17.575   7.774  11.733 -0.1578 -0.0345  0.2267
 1440W        W16571   2.322   7.272   1.604 -0.0279 -0.1156  0.1765
 1441W        W16572   9.797   0.676   1.281 -0.0697 -0.2378  0.1685
 1442W        W16573  10.005   1.681   5.102 -0.0578  0.3064  0.1961
 1443W        W16574   8.359   3.978   5.594  0.1862 -0.1041  0.0528
 1444W        W16575   9.034  13.765   4.666  0.1874 -0.1538  0.0626
 1445W        W16576   7.552  17.953  14.289  0.1893  0.3252 -0.0766
 1446W        W16577  12.187   4.316  11.991  0.0521 -0.1605  0.2777
 1447W        W16578   6.828   0.440  11.938 -0.5271 -0.4032  0.2218
 1448W        W16579  10.230   8.043   3.874  0.1755 -0.0659  0.0078
 1449W        W16580  13.003  13.950   1.588  0.2598  0.1145  0.1521
 1450W        W16581  17.969   2.413   2.624  0.1694 -0.0650 -0.0739
 1451W        W16582   7.904  15.262  15.850 -0.3062 -0.1851 -0.0712
 1452W        W16583  12.744  11.403  14.655  0.0350  0.0311 -0.2625
 1453W        W16584  14.136  15.452   2.710  0.2650 -0.2438  0.2759
 1454W        W16585  14.312   5.966   2.350 -0.1130 -0.0720  0.1085
 1455W        W16586   9.987   2.599  15.701 -0.0328  0.0650  0.0968
 1456W        W16587   6.871  17.684   4.794  0.0739  0.1243  0.2178
 1457W        W16588   1.482   9.727   0.715  0.0645  0.1394  0.1844
 1458W        W16589   6.157   9.720  14.364 -0.0718 -0.0346  0.0929
 1459W        W16590  15.137   5.378  11.336  0.1298 -0.0306 -0.0707
 1460W        W16591   6.956   6.416  10.763 -0.1537  0.0957  0.0251
 1461W        W16592   9.659   0.720  10.002  0.0824  0.0133 -0.1750
 1462W        W16593  14.918   7.694  12.017 -0.1893 -0.1026  0.0735
 1463W        W16594   0.200  13.695   1.358  0.0453 -0.0750  0.0941
 1464W        W16595   8.374   3.255   0.801  0.0341  0.2325  0.3685
 1465W        W16596  12.040   6.458  14.669  0.0099  0.2376 -0.2868
 1466W        W16597   2.051   5.565   0.099 -0.1143 -0.1755  0.1608
 1467W        W16598   8.322   0.797  13.152 -0.1189 -0.1753  0.0987
 1468W        W16599   9.730   7.306  14.842  0.3146 -0.0103 -0.1802
 1469W        W16600  11.013   3.885   2.099  0.1654 -0.1826  0.0590
 1470W        W16601   4.061  14.941   5.586  0.0809 -0.1340  0.0432
 1471W        W16602   9.515  11.027   4.932 -0.0232  0.1063 -0.1065
 1472W        W16603   0.829  15.093  14.091  0.0014  0.1137 -0.0145
 1473W        W16604  15.563  12.198  16.080 -0.1776 -0.0249  0.0571
 1474W        W16605   1.411   1.948  12.718 -0.0926  0.1828  0.2487
 1475W        W16606   1.690   9.175   4.383  0.4576  0.1510  0.0096
 1476W        W16607  12.819  14.490   1.529 -0.3115  0.0589 -0.3141
 1477W        W16608  17.164   4.934   4.510  0.3943  0.0893 -0.2375
 1478W        W16609  11.707   2.982   0.773 -0.1019 -0.2720 -0.1214
 1479W        W16610   3.371  17.844  14.784 -0.0107 -0.2086  0.0535
 1480W        W16611   2.355  14.173  12.237 -0.3237 -0.1183  0.1079
 1481W        W16612   9.310  12.986   2.853  0.3691 -0.0541 -0.0523
 1482W        W16613   0.989  10.336   4.572  0.1689  0.1432 -0.0783
 1483W        W16614  10.271   3.115   3.188 -0.2022 -0.2509  0.0165
 1484W        W16615   1.443  10.601  13.375 -0.0263 -0.3493  0.1006
 1485W        W16616   1.950   6.867  14.264  0.1043 -0.0518 -0.0981
 1486W        W16617   2.689  12.349  14.739 -0.1119 -0.0475 -0.0101
 1487W        W16618   7.893   7.943   2.060  0.2132 -0.1279  0.1083
 1488W        W16619   4.452   1.021  11.490 -0.0201 -0.0751 -0.0641
 1489W        W16620   9.806  15.489   1.387  0.0433  0.0756  0.2219
 1490W        W16621   9.428   9.974  10.620  0.0951  0.1688 -0.3640
 1491W        W16622   9.975  10.264   1.927  0.0952 -0.2861 -0.2116
 1492W        W16623  14.038   1.658   1.169  0.0503  0.0786 -0.0980
 1493W        W16624   4.854  13.437   2.904  0.0606 -0.0076 -0.2300
 1494W        W16625   4.838  10.303  12.752 -0.1189 -0.1221  0.4577
 1495W        W16626   0.142  11.671   1.962 -0.0023 -0.1117  0.0551
 1496W        W16627  11.827   0.410  11.221  0.2292  0.0353  0.0369
 1497W        W16628   6.711  17.600  15.158  0.0600 -0.3149 -0.1141
 1498W        W16629  15.567   4.573   1.490 -0.0237 -0.1453  0.2001
 1499W        W16630   8.434  17.173   3.486  0.1312  0.1427  0.2499
 1500W        W16631   6.639  14.212  12.811  0.1802 -0.1968  0.0103
 1501W        W16632  17.789  17.377   5.384  0.3207  0.0830  0.3484
 1502W        W16633  14.087   0.077  10.237 -0.1525 -0.2967 -0.0796
 1503W        W16634  16.502  12.636  12.695  0.2850 -0.2462  0.2592
 1504W        W16635   6.039  17.090  15.168 -0.2397 -0.4185  0.0055
 1505W        W16636   1.074   1.526   1.264  0.0811  0.3483  0.0688
 1506W        W16637  16.287  18.198  14.304  0.0067 -0.1206 -0.0077
 1507W        W16638  17.977   6.502   4.409 -0.0721 -0.3322  0.1032
 1508W        W16639   1.576   5.989  12.228 -0.2887 -0.2609 -0.2309
 1509W        W16640   2.545   1.806   3.567 -0.3098  0.1616  0.0874
 1510W        W16641   7.472   5.971  15.033 -0.1584  0.0559 -0.0944
 1511W        W16642  16.864  10.793  15.337 -0.3044 -0.0004  0.0034
 1512W        W16643  12.174   6.110   2.917  0.2789  0.1078 -0.0215
 1513W        W16644  14.223  11.483   2.706 -0.0003  0.0812 -0.0371
 1514W        W16645  18.169   9.397   1.119  0.0245  0.1284 -0.3345
 1515W        W16646   7.414  16.463   4.916  0.0572 -0.2595  0.1665
 1516W        W16647  17.962   5.192  12.993  0.3048 -0.1947  0.0286
 1517W        W16648   0.687  10.580   5.261  0.0712 -0.1638 -0.0500
 1518W        W16649  12.393  16.761   0.342  0.2183 -0.0998 -0.0337
 1519W        W16650  13.074   9.664  15.050 -0.0026  0.0170 -0.2728
 1520W        W16651   8.518  17.461   2.211 -0.1772 -0.1288  0.0275
 1521W        W16652   9.026   6.365   0.992 -0.0861  0.0266 -0.1470
 1522W        W16653  12.519   7.824  13.850  0.1306 -0.1627  0.2644
 1523W        W16654  15.124   8.190   0.610 -0.1849 -0.1378 -0.0331
 1524W        W16655  13.233  16.592  14.098  0.0838 -0.1374 -0.2699
 1525W        W16656  12.323   1.711  15.140 -0.2210  0.1207 -0.0724
 1526W        W16657   3.525  14.225   1.984  0.1897  0.3126 -0.2347
 1527W        W16658  10.127  16.892   0.252  0.0399  0.1583 -0.0949
 1528W        W16659   8.527  14.097   1.549 -0.0123 -0.1080 -0.1017
 1529W        W16660  13.866   2.728  13.370 -0.0931 -0.1161 -0.0949
 1530W        W16661   3.089   6.559   1.861 -0.0624 -0.2155  0.1009
 1531W        W16662   9.173  18.261  14.661 -0.1807  0.1621 -0.0039
 1532W        W16663   8.328   5.454  11.299  0.1179 -0.2243  0.1535
 1533W        W16664   8.412  10.100  15.627 -0.0702  0.0731  0.0914
 1534W        W16665   7.809   0.804  15.920 -0.2439 -0.3194 -0.0115
 1535W        W16666  11.391   1.631  14.671  0.0122  0.3791 -0.1207
 1536W        W16667  17.508   6.566  11.760 -0.1371  0.3680  0.1796
 1537W        W16668   5.388   6.204   3.184  0.3496 -0.0795  0.3046
 1538W        W16669   6.894   3.703  12.124  0.3329  0.2308  0.0752
 1539W        W16670  17.701   0.360  15.795 -0.2501  0.1944 -0.2913
 1540W        W16671  10.378   4.380   4.314 -0.4518  0.1642 -0.1201
 1541W        W16672   0.905   6.681   0.700  0.2594 -0.1780  0.2724
 1542W        W16673  11.655   5.178  14.761 -0.1252  0.1464 -0.2343
 1543W        W16674  14.537  13.950  11.384  0.2908  0.1417 -0.1187
 1544W        W16675   1.053   3.785   3.641  0.2626  0.2520 -0.1116
 1545W        W16676   9.946  12.119   2.085  0.0731 -0.3127  0.0638
 1546W        W16677   3.046   8.648   0.578  0.0915 -0.2239 -0.2666
 1547W        W16678   8.217  12.110   2.090  0.2862 -0.3929  0.2802
 1548W        W16679   6.860  11.104   1.339  0.2801 -0.0343 -0.0340
 1549W        W16680  17.238  11.612   0.847 -0.0184 -0.0755  0.1248
 1550W        W16681   9.279   7.277   0.650 -0.2992 -0.1054  0.1853
 1551W        W16682   1.111   0.739   3.672 -0.0488  0.1801  0.0480
 1552W        W16683  11.131   8.807   4.427  0.0467 -0.0337 -0.3101
 1553W        W16684   6.080  13.607  12.714  0.1827  0.0271  0.1618
 1554W        W16685   3.910  14.563   2.118  0.2128 -0.1216 -0.1943
 1555W        W16686   4.788   2.346  13.474 -0.0423 -0.0457  0.0109
 1556W        W16687  10.901   3.050   3.173  0.1006  0.0164 -0.1524
 1557W        W16688   5.312   3.794  14.249  0.1178 -0.1612  0.1445
 1558W        W16689   1.576   2.003  11.798  0.1332 -0.3390 -0.0648
 1559W        W16690  16.385   9.083   2.828  0.1504 -0.1229  0.1044
 1560W        W16691   4.014   0.990  14.297 -0.0763 -0.1020 -0.1700
 1561W        W16692  18.049  13.060  11.755  0.2356 -0.2049  0.0199
 1562W        W16693   7.210   2.118   4.242 -0.1308 -0.1503  0.1332
 1563W        W16694  17.688   6.699   5.696  0.4630 -0.2023 -0.0713
 1564W        W16695  13.284  14.410   1.293  0.2404  0.1002  0.3119
 1565W        W16696  16.636  14.510  10.775  0.3254 -0.1062  0.0150
 1566W        W16697   3.639   7.542   3.129 -0.2152  0.0983  0.1226
 1567W        W16698   4.885   7.742   1.061 -0.0464 -0.1420 -0.1320
 1568W        W16699   8.977   3.003  14.266  0.1858  0.0129  0.1637
 1569W        W16700  17.110   5.772  14.607 -0.1292  0.1276  0.0703
 1570W        W16701   3.420  13.269   3.126  0.2902  0.0312  0.0102
 1571W        W16702   2.731  10.024   1.331  0.2064 -0.1642  0.3205
 1572W        W16703  13.237  12.750   3.531 -0.2143  0.1785 -0.0835
 1573W        W16704   4.046   1.120  10.037  0.1098  0.0131  0.0806
 1574W        W16705   2.951  12.813  12.165 -0.0169 -0.0167  0.2467
 1575W        W16706   9.239   1.161   5.217 -0.1477  0.0627  0.0189
 1576W        W16707  16.060  10.373   1.089 -0.1503 -0.2942  0.2067
 1577W        W16708   2.683  14.982  13.601  0.0047 -0.2094  0.3169
 1578W        W16709   0.722  13.825  12.009  0.1885  0.2639 -0.4371
 1579W        W16710  12.221   3.772  15.038 -0.1810  0.0882  0.0124
 1580W        W16711   9.604   2.078  15.108  0.1889 -0.0633  0.2558
 1581W        W16712   4.704  13.360   5.252  0.0276  0.1322 -0.1688
 1582W        W16713  16.383  10.858  10.411 -0.0181  0.2634  0.0345
 1583W        W16714  13.241  15.800   4.639 -0.1417  0.1371  0.0087
 1584W        W16715  15.336   1.490  14.025 -0.1995 -0.0904 -0.1880
 1585W        W16716  13.496  17.221  13.621 -0.0789  0.0168 -0.3274
 1586W        W16717  11.171   7.612   4.897  0.2293  0.0219  0.1215
 1587W        W16718  17.900  13.762   2.242 -0.0038 -0.1564  0.1711
 1588W        W16719  10.838   4.321   2.217 -0.0248  0.0690 -0.0231
 1589W        W16720   5.704  14.374  13.844 -0.2884 -0.0593 -0.1921
 1590W        W16721  18.280   5.064   2.181 -0.0702  0.1543  0.1579
 1591W        W16722   5.783   9.303   3.923  0.3202  0.2475  0.2790
 1592W        W16723   1.144  13.746   9.983  0.2701  0.2381 -0.0373
 1593W        W16724   7.965  12.904   5.622  0.2369 -0.0958 -0.1084
 1594W        W16725  12.702  16.660   1.276  0.2072 -0.0384  0.2244
 1595W        W16726  16.249   5.574  11.544  0.0917 -0.1795 -0.1108
 1596W        W16727  16.109   5.491  14.757 -0.3083 -0.1758 -0.0514
 1597W        W16728   2.986  10.725  14.279 -0.2071 -0.4666  0.0965
 1598W        W16729   7.138  11.807   4.974  0.1346 -0.0300 -0.0813
 1599W        W16730   5.197   6.101  15.814 -0.4419 -0.0623 -0.2520
 1600W        W16731   7.848  13.674   0.296  0.1369  0.1725 -0.0035
 1601W        W16732  13.447  14.679  14.037  0.1026  0.2607 -0.3068
 1602W        W16733  18.083   4.250  15.530  0.0672  0.0862 -0.2238
 1603W        W16734   3.098  12.873   3.850  0.1422  0.1488  0.0364
 1604W        W16735  13.216  12.509  10.797  0.1430 -0.1625 -0.0017
 1605W        W16736   7.760  14.105  11.888  0.2599 -0.1984 -0.0688
 1606W        W16737  18.310  13.748  10.334 -0.3580  0.0663  0.0721
 1607W        W16738   7.678  17.559   3.349  0.1427  0.1193  0.2690
 1608W        W16739   6.933   5.698  10.433 -0.1086 -0.0803  0.0873
 1609W        W16740  12.268  11.703   4.920  0.1709 -0.1425  0.1292
 1610W        W16741  17.558   7.679   1.425  0.0589  0.0376  0.1892
 1611W        W16742   4.467   1.607   4.156 -0.2167  0.2280 -0.0945
 1612W        W16743   3.848  11.879   2.364 -0.1380 -0.1977  0.0888
 1613W        W16744   5.887   5.241   3.462  0.0189 -0.1399  0.1534
 1614W        W16745  17.705   3.221   2.283 -0.2571 -0.1994  0.3152
 1615W        W16746   1.646   4.661   4.120 -0.0150  0.1547  0.2535
 1616W        W16747  11.658  12.536  12.017 -0.2053  0.1605 -0.0016
 1617W        W16748   7.779   6.349  11.284  0.1789  0.5148  0.2780
 1618W        W16749   6.124  16.716  11.007  0.1278 -0.1967  0.0304
 1619W        W16750   9.355   9.395  11.462 -0.0841  0.1690  0.1413
 1620W        W16751   0.831  12.670   5.160 -0.2332  0.3411  0.1937
 1621W        W16752  10.735  17.785   0.086 -0.0984  0.1760  0.0194
 1622W        W16753   9.841   6.038   5.531 -0.0015  0.4029 -0.1842
 1623W        W16754  15.816  10.377   0.643  0.1798 -0.2236 -0.1690
 1624W        W16755  15.903   8.015   2.238 -0.0303 -0.1177 -0.3016
 1625W        W16756   5.684  17.724   0.333 -0.1962 -0.1675  0.1709
 1626W        W16757  11.487   4.813   1.868 -0.0408 -0.0311 -0.2292
 1627W        W16758  13.968  16.902  11.441 -0.0392 -0.1927 -0.2559
 1628W        W16759  10.735  10.445   1.428  0.0705 -0.2963  0.0536
 1629W        W16760  15.122   5.493  13.831 -0.0488 -0.4051 -0.0114
 1630W        W16761  15.241   2.308  15.313  0.2642  0.1072  0.0799
 1631W        W16762  17.508  10.010  11.001 -0.5264  0.0280  0.2169
 1632W        W16763  12.514   2.148   4.283 -0.1383 -0.1234  0.0633
 1633W        W16764   2.782   2.115   5.912  0.0691 -0.0749 -0.1724
 1634W        W16765   0.225  13.624   5.896  0.0262  0.0086  0.0161
 1635W        W16766  14.950  13.952  15.625 -0.0414 -0.1318  0.0670
 1636W        W16767   8.578  17.691   6.494  0.0667 -0.0303 -0.3170
 1637W        W16768  11.689  17.230  14.617  0.1184  0.0096 -0.0104
 1638W        W16769  17.178  16.054  13.269  0.1905 -0.0491  0.1665
 1639W        W16770   3.174  10.056   0.966 -0.1991 -0.0135 -0.1474
 1640W        W16771   5.725   3.758  11.503 -0.1552 -0.1295  0.0253
 1641W        W16772   4.632  17.610  14.069  0.0955 -0.0197 -0.3021
 1642W        W16773   6.433  12.660   0.968  0.2571  0.2217 -0.2608
 1643W        W16774   4.987  18.199   1.217 -0.1958 -0.0136 -0.0106
 1644W        W16775   0.182  13.976  16.044 -0.1156  0.0356 -0.2682
 1645W        W16776  11.566   7.878   4.794 -0.1300 -0.1345  0.1990
 1646W        W16777  18.161  10.845  12.346 -0.0803 -0.1557 -0.2695
 1647W        W16778  17.386   0.992  12.278 -0.2453 -0.1245  0.1264
 1648W        W16779   5.321  15.450   5.252  0.1449  0.0090 -0.2459
 1649W        W16780   1.490   9.875   3.373  0.3329 -0.1570 -0.2111
 1650W        W16781   4.887   9.187  15.158  0.1697 -0.0136 -0.1179
 1651W        W16782  14.757   6.414  10.902 -0.1184  0.1779 -0.0184
 1652W        W16783  14.218  12.800   0.339  0.1297 -0.3472  0.2475
 1653W        W16784   3.766   2.723   1.906 -0.0260  0.2306 -0.0905
 1654W        W16785  16.865  17.090  11.955  0.1169 -0.1354  0.1045
 1655W        W16786  18.212  14.305  14.696 -0.0614 -0.1814 -0.0801
 1656W        W16787   0.982   8.470   1.468 -0.0958 -0.2752 -0.3198
 1657W        W16788   8.170  17.778   2.301  0.1300 -0.3362  0.1702
 1658W        W16789   2.787   1.137   0.152  0.1292 -0.1129  0.0998
 1659W        W16790   9.851   7.825  13.872  0.0230  0.1347 -0.1690
 1660W        W16791   3.484  11.674  12.937  0.2141 -0.0814 -0.0269
 1661W        W16792   0.751  10.541  13.256 -0.1697  0.1502 -0.1545
 1662W        W16793   2.394   3.132  13.173 -0.2820 -0.1948 -0.0666
 1663W        W16794   0.069   3.893   3.079 -0.4159  0.0179 -0.0905
 1664W        W16795  17.801   8.422  15.240  0.1736 -0.3264 -0.0382
 1665W        W16796   0.176   5.860   4.308  0.1195 -0.1014  0.2465
 1666W        W16797   2.168   1.603   1.002 -0.1761 -0.2059 -0.2270
 1667W        W16798   8.243  13.251  14.628  0.0884 -0.1480  0.1577
 1668W        W16799   2.646  13.652   1.477  0.1810  0.1967  0.0352
 1669W        W16800   2.358  12.762  10.471  0.0271 -0.0202  0.4108
 1670W        W16801   9.816   9.159   1.902 -0.2094 -0.2774 -0.0260
 1671W        W16802  16.515   5.261  11.213 -0.0165 -0.1142 -0.3649
 1672W        W16803   5.814   9.944  14.629 -0.0800  0.0043 -0.1512
 1673W        W16804  10.779  16.223   5.602 -0.0086  0.5255 -0.2318
 1674W        W16805  15.874  12.286  14.486  0.0874  0.3418 -0.0955
 1675W        W16806   4.021   0.853   3.346  0.2359 -0.0768  0.2606
 1676W        W16807   9.473   8.883   0.065  0.3912  0.1815 -0.1449
 1677W        W16808   5.876   3.027   5.270  0.2116 -0.1205  0.0394
 1678W        W16809   9.380  14.656  12.146  0.0801 -0.2329 -0.0181
 1679W        W16810  12.023  12.448   1.105  0.0753 -0.1130 -0.0744
 1680W        W16811  17.943  14.506  16.109  0.0683  0.1391  0.1192
 1681W        W16812   5.575   6.546  11.628  0.1927 -0.2400 -0.0849
 1682W        W16813  14.733  16.013  15.044 -0.0202 -0.1187  0.4230
 1683W        W16814  17.753  15.730  14.123  0.0898  0.0380  0.2768
 1684W        W16815  18.074  17.286  11.813 -0.0935 -0.2043 -0.1278
 1685W        W16816   0.310   7.906  10.040 -0.1099  0.2102  0.1924
 1686W        W16817   2.621   1.089  10.983  0.1209  0.0332  0.1603
 1687W        W16818  10.161  13.428  13.797  0.0563  0.0535  0.0284
 1688W        W16819  12.288  16.865  14.502 -0.1276 -0.1001  0.1124
 1689W        W16820   5.755   7.170   4.447 -0.1089 -0.0541  0.0572
 1690W        W16821  13.593  10.761  15.023 -0.1318  0.1859  0.0456
 1691W        W16822   1.913   3.087   4.122 -0.0088 -0.1138  0.1383
 1692W        W16823   9.620   6.699   0.090  0.2461 -0.0796 -0.2568
 1693W        W16824   7.304  17.848   1.702  0.5172 -0.2520  0.1010
 1694W        W16825   2.861  14.176   0.736  0.1317  0.0171  0.0043
 1695W        W16826  12.760   7.871   1.091  0.3435 -0.0430 -0.1582
 1696W        W16827  14.987  17.306   4.624 -0.1097 -0.1001 -0.1405
 1697W        W16828  16.337  12.824  11.743  0.2547  0.0570 -0.3464
 1698W        W16829  10.694  16.408   2.855  0.0856  0.0271  0.0965
 1699W        W16830  18.206  12.083  13.312  0.2880  0.0557 -0.0639
 1700W        W16831   0.102  10.055  11.405 -0.0497 -0.0364  0.2389
 1701W        W16832  12.756  18.307  14.288  0.1306  0.0161 -0.0724
 1702W        W16833   6.447  16.080   0.573  0.0273  0.1210  0.2702
 1703W        W16834  15.512  17.804  15.614 -0.0666 -0.0605  0.1202
 1704W        W16835   4.877  11.025  11.468  0.1541  0.1046  0.2272
 1705W        W16836   7.469   5.581   1.458  0.0030 -0.1343 -0.0020
 1706W        W16837   2.766  10.477  15.930 -0.1908  0.1654  0.2454
 1707W        W16838   7.702   5.682  14.410  0.2244 -0.0487  0.0733
 1708W        W16839  10.657   9.048   1.950  0.1240 -0.3529 -0.0546
 1709W        W16840   4.983   5.621  13.855  0.0125  0.2140  0.1121
 1710W        W16841   2.653   5.281   1.979 -0.2074  0.0743  0.1406
 1711W        W16842  14.037  15.701   1.641  0.2308  0.2111 -0.0326
 1712W        W16843   4.916  12.950   2.699  0.0909 -0.3052 -0.1250
 1713W        W16844   0.783   9.726  13.783 -0.1320  0.1302 -0.1873
 1714W        W16845  15.243   0.920   3.733  0.1596  0.0794 -0.0027
 1715W        W16846   4.704   6.130  15.764 -0.3165  0.1023 -0.2257
 1716W        W16847  18.149   3.758  14.281  0.0172 -0.3104 -0.1227
 1717W        W16848   2.864  15.986   5.113  0.0466  0.0780 -0.1495
 1718W        W16849   9.987   4.287  11.989 -0.0401 -0.3202  0.1540
 1719W        W16850   5.929   8.220  11.071  0.1940 -0.0220  0.0923
 1720W        W16851   1.831   3.698  13.206  0.1853 -0.1848 -0.0318
 1721W        W16852   7.007  16.707   2.211 -0.2121  0.1266  0.0354
 1722W        W16853   8.441  16.820  11.978  0.2952 -0.0703 -0.1365
 1723W        W16854  13.801   1.577   2.040 -0.1038  0.2540  0.0552
 1724W        W16855  12.991   1.046  10.488  0.0917 -0.0409  0.2393
 1725W        W16856   6.337  17.875   2.121 -0.0144  0.0037  0.0763
 1726W        W16857   8.934  15.496   5.815  0.0583  0.2978 -0.2024
 1727W        W16858   5.808   0.916   5.173 -0.0120 -0.2170  0.3012
 1728W        W16859   3.058  17.770   1.984 -0.0198  0.0621 -0.4068
 1729W        W16860   1.136  11.676   3.424  0.2278 -0.1289 -0.2159
 1730W        W16861  18.062   7.615   2.953 -0.0330  0.3837  0.1175
 1731W        W16862   2.624   2.758   3.606 -0.1306 -0.0250 -0.0467
 1732W        W16863   8.027   4.992   4.329  0.0915 -0.0739  0.3342
 1733W        W16864  15.039   0.316  15.730 -0.0648 -0.1791 -0.2990
 1734W        W16865  13.054   1.440   3.131  0.1169  0.0049  0.0636
 1735W        W16866  16.929  14.089  11.913  0.2567 -0.0592  0.0183
 1736W        W16867  13.880  17.193   2.269 -0.1427  0.1380  0.0222
 1737W        W16868   6.636   3.523  15.211  0.1746  0.3003  0.1033
 1738W        W16869  16.231   7.672   4.638  0.0393  0.0643  0.0050
 1739W        W16870  11.835   4.774   4.071  0.0869 -0.2011 -0.3651
 1740W        W16871  15.446  17.930   2.831  0.2401  0.1583  0.1526
 1741W        W16872  12.198   2.729   0.396  0.3479 -0.3920 -0.0338
 1742W        W16873  14.246   9.216  15.777 -0.1231 -0.1477  0.1935
 1743W        W16874  11.718   4.073  14.740  0.0432 -0.2194 -0.0753
 1744W        W16875   5.972   5.782  10.657  0.1439 -0.0616 -0.2149
 1745W        W16876   0.712  15.735   2.523 -0.0821  0.0248 -0.1011
 1746W        W16877   2.959   5.775  12.821 -0.1869  0.1225  0.0316
 1747W        W16878  11.931   5.477  12.696 -0.0142 -0.4546 -0.1499
 1748W        W16879  18.260  10.986  13.767  0.2726  0.2653  0.0620
 1749W        W16880  12.731   5.696   5.591  0.1357 -0.0978 -0.0363
 1750W        W16881  12.380   2.372  13.206  0.1718 -0.0280  0.2891
 1751W        W16882   3.980  15.863   4.923  0.1258  0.0092  0.2829
 1752W        W16883   0.122  13.904   4.952  0.0518  0.0748  0.0428
 1753W        W16884   3.166  10.522  13.781  0.0980 -0.2489 -0.0145
 1754W        W16885   0.944  11.537  13.671 -0.1185  0.1234  0.2848
 1755W        W16886   1.190  12.745   0.830 -0.2981  0.0080  0.3239
 1756W        W16887   9.210  12.681  15.746 -0.1979 -0.1677  0.2139
 1757W        W16888  17.968  15.199  11.007  0.2832  0.1741  0.0362
 1758W        W16889   3.582  15.054  11.444 -0.1616 -0.1255 -0.0612
 1759W        W16890   1.929  12.496   1.284  0.1926  0.1430  0.0646
 1760W        W16891   4.550   5.472   4.163  0.0796 -0.0580  0.0310
 1761W        W16892   2.127   4.706   1.700 -0.4107 -0.3036  0.2790
 1762W        W16893  10.422   3.993  13.124  0.1447  0.0381 -0.1715
 1763W        W16894   2.520   0.106   3.726 -0.0460  0.1203 -0.0400
 1764W        W16895   8.446   3.162   1.387  0.2624 -0.2427  0.3638
 1765W        W16896  12.460   0.296   1.180 -0.2066 -0.0750  0.2090
 1766W        W16897   4.017   1.348   5.623 -0.1688 -0.3062  0.3199
 1767W        W16898   9.019  11.032  10.899 -0.0393  0.0329  0.0218
 1768W        W16899   9.686  17.637   3.636 -0.0583  0.1796 -0.2654
 1769W        W16900  11.836   5.679   2.824  0.2438  0.0520  0.2446
 1770W        W16901   9.765   8.439   0.797 -0.1028  0.0847  0.3364
 1771W        W16902   7.269  15.329  10.500  0.2096 -0.3141 -0.1963
 1772W        W16903  12.831   3.752   2.229  0.2033  0.2007  0.1437
 1773W        W16904  15.051  14.144   0.433 -0.0466 -0.2167 -0.0397
 1774W        W16905  17.780   7.744   5.374  0.1923 -0.3978  0.1215
 1775W        W16906   1.669   8.791  12.471  0.2773 -0.0210  0.0813
 1776W        W16907   1.517  18.038   3.631  0.2156 -0.0033 -0.0684
 1777W        W16908  13.807   7.636   0.580 -0.0195  0.0931 -0.2672
 1778W        W16909   0.355  12.922   0.584  0.0230  0.3150  0.0682
 1779W        W16910  15.073   8.125  12.199 -0.2091  0.0416  0.1387
 1780W        W16911   9.377  11.854   5.429 -0.3978  0.1778 -0.0480
 1781W        W16912   3.197   5.932  13.226 -0.0016  0.5079 -0.1603
 1782W        W16913  13.453   1.124  15.328 -0.0795  0.1075  0.1690
 1783W        W16914   5.463  10.317  14.732  0.3116 -0.2530 -0.1502
 1784W        W16915   1.893  16.741   3.504 -0.0006 -0.0302  0.0310
 1785W        W16916   5.873   1.087  14.491  0.1074  0.0762  0.0841
 1786W        W16917  16.467  10.782   0.583 -0.0173  0.0424 -0.0420
 1787W        W16918  13.344   7.293  15.543  0.0783  0.2831 -0.2522
 1788W        W16919   7.149  12.349  14.892  0.0586 -0.1320 -0.1671
 1789W        W16920  12.327   2.221  14.141  0.0793 -0.1064  0.1661
 1790W        W16921  13.461   8.835  15.853  0.0285 -0.1021 -0.1831
 1791W        W16922  16.234   1.115   2.432  0.1491 -0.1084 -0.0807
 1792W        W16923   0.804   5.980  12.584  0.2444 -0.3424 -0.0613
 1793W        W16924   7.997  15.339  15.222  0.0792 -0.2465 -0.0616
 1794W        W16925  12.534   6.415   3.587  0.2467 -0.0001 -0.0697
 1795W        W16926   4.580  17.073  15.798  0.1290 -0.0728 -0.0920
 1796W        W16927  16.058  16.737  12.237 -0.0808  0.3011 -0.0684
 1797W        W16928  13.797   1.996   3.043  0.0477 -0.4179  0.0063
 1798W        W16929  18.123  18.258  15.134 -0.2963  0.1950  0.0045
 1799W        W16930   8.514   6.698   3.826  0.0899  0.4592 -0.3118
 1800W        W16931   2.991   8.648   4.856  0.1725  0.0188  0.2257
 1801W        W16932   3.663  15.138   1.765  0.2335 -0.1031 -0.0818
 1802W        W16933   4.527   4.656  12.187 -0.1944 -0.1260  0.0788
 1803W        W16934  11.734   7.791  14.971  0.0835  0.0600 -0.2985
 1804W        W16935   8.620   6.787  11.242  0.6983  0.0923 -0.0270
 1805W        W16936   1.448  12.245   5.891  0.1093  0.0618  0.0530
 1806W        W16937  15.477   9.763   4.638  0.1579 -0.3643  0.0084
 1807W        W16938  14.346  16.325  15.847  0.1184  0.2045 -0.0955
 1808W        W16939   5.223   1.758  11.361 -0.2707 -0.1673 -0.0058
 1809W        W16940  14.834   2.824   0.623 -0.1110  0.1264 -0.1338
 1810W        W16941  15.428  16.899  11.884  0.1212  0.2920  0.0279
 1811W        W16942  13.761   0.464   1.130  0.0455 -0.0703  0.2543
 1812W        W16943   9.617  13.457  15.768 -0.1365 -0.2418 -0.2379
 1813W        W16944   1.682   4.783   2.767 -0.0659 -0.0433  0.2950
 1814W        W16945  17.072  12.177  15.431 -0.1818 -0.2425  0.0075
 1815W        W16946   5.766   1.582   2.839 -0.2433 -0.0187  0.0904
 1816W        W16947  15.073  15.058   3.560 -0.2030 -0.1010 -0.2114
 1817W        W16948  10.789   4.919  12.942  0.0411  0.1089 -0.3830
 1818W        W16949   4.275   5.063  15.356  0.2767  0.1054  0.1706
 1819W        W16950  12.205  12.162  11.368  0.2831  0.0732  0.1388
 1820W        W16951  12.946   3.395  12.409  0.4490 -0.1755  0.1057
 1821W        W16952  18.242  16.836   3.443 -0.1283  0.0421  0.0841
 1822W        W16953   3.061  12.043  13.436 -0.0267 -0.0311 -0.1195
 1823W        W16954  16.242   8.411   2.340 -0.1575  0.1549  0.0529
 1824W        W16955   3.739   3.899  11.929  0.1586 -0.1105  0.0874
 1825W        W16956  16.613   1.677   1.079  0.1829 -0.2264 -0.0920
 1826W        W16957   1.121   0.940   4.103 -0.1291 -0.1880  0.0843
 1827W        W16958  11.930   0.380  10.702 -0.2981 -0.0852 -0.0576
 1828W        W16959   9.078   0.195  11.361  0.1752  0.0535  0.3782
 1829W        W16960   0.075   4.791   2.624 -0.0022  0.0791  0.1722
 1830W        W16961   5.356  16.891   2.187 -0.1090  0.0570  0.1821
 1831W        W16962   6.615  12.182   2.789  0.0335 -0.0242  0.3474
 1832W        W16963   8.990   8.022  12.599 -0.1601 -0.0516  0.4051
 1833W        W16964   2.073  11.402   0.207 -0.0756  0.1355  0.1811
 1834W        W16965   0.037   2.141  14.346 -0.2936  0.1810 -0.0432
 1835W        W16966   8.502  10.308  14.253  0.1203  0.0345 -0.2008
 1836W        W16967  10.440  15.851  14.352  0.0747  0.0204 -0.0258
 1837W        W16968  15.772   6.276  10.515  0.2125 -0.1632  0.2420
 1838W        W16969   0.227   7.538  14.915 -0.0694  0.1287 -0.2795
 1839W        W16970  10.144   2.378   0.885  0.1024  0.0348 -0.2488
 1840W        W16971   4.768  17.085  10.861  0.0287 -0.0076  0.3677
 1841W        W16972  17.284  10.243  11.437  0.1359 -0.1306 -0.1748
 1842W        W16973  11.383  10.716  15.719  0.2659  0.0774 -0.1824
 1843W        W16974  16.196  13.074  12.523 -0.0618 -0.1813  0.1567
 1844W        W16975  11.686  13.209   9.829  0.0161  0.1723  0.0677
 1845W        W16976  15.385  10.827  15.991 -0.1109 -0.0573 -0.0157
 1846W        W16977  11.711   3.103  14.432 -0.3384  0.1187  0.0045
 1847W        W16978  17.034  18.020  14.881 -0.0281 -0.1654  0.1437
 1848W        W16979   1.452  18.233  11.578  0.2282  0.0242  0.0893
 1849W        W16980   1.740   1.595  12.680 -0.1324  0.1641  0.0918
 1850W        W16981   6.580   8.773   5.725  0.1491  0.0506  0.0098
 1851W        W16982  10.450  13.541   2.341 -0.0956 -0.2973  0.0687
 1852W        W16983  17.737   1.279  11.735  0.0033 -0.0147 -0.1679
 1853W        W16984  13.867   4.370   9.846  0.2210  0.1442 -0.0534
 1854W        W16985   3.793   0.247  12.249 -0.1476  0.0134  0.0218
 1855W        W16986  17.628   9.541   4.021 -0.3279 -0.0134  0.1821
 1856W        W16987  13.374   6.663   4.759 -0.0785 -0.2535  0.0428
 1857W        W16988  17.634  13.952   0.973  0.1758  0.1221  0.0162
 1858W        W16989   4.314   9.016  14.695 -0.0788 -0.3042 -0.2014
 1859W        W16990   0.435   3.813  16.040 -0.3910 -0.0949  0.1100
 1860W        W16991   5.291  12.618   2.872 -0.0079  0.1208  0.1461
 1861W        W16992   8.280   4.863   1.901  0.1962  0.0394 -0.1317
 1862W        W16993  15.455  16.253  15.613 -0.0724 -0.1025  0.0849
 1863W        W16994  13.827  17.396   0.280  0.0254 -0.0236  0.1077
 1864W        W16995   4.015  14.746   6.034 -0.1336 -0.1340  0.0576
 1865W        W16996  15.260  15.899  10.653 -0.2218  0.1855  0.0217
 1866W        W16997   5.987   0.798   2.252 -0.0760 -0.0607  0.1765
 1867W        W16998  10.707  13.894   4.865 -0.0756  0.0211 -0.0346
 1868W        W16999  16.310  11.206  12.708  0.1968  0.1590 -0.0672
 1869W        W17000  14.263  10.440  10.966  0.4046  0.0214 -0.0317
 1870W        W17001  16.393   5.678   4.713  0.0024  0.2312 -0.1159
 1871W        W17002   9.243  13.453  13.350 -0.3020  0.1103 -0.0820
 1872W        W17003   3.954   7.503  15.629 -0.2595  0.0382 -0.0573
 1873W        W17004  15.664   2.609  16.033  0.0636  0.0125  0.2870
 1874W        W17005  14.617  17.908  12.168  0.0832 -0.1344  0.3189
 1875W        W17006   4.277   3.756   4.314 -0.1551  0.1646  0.1153
 1876W        W17007  10.300  10.555  13.067 -0.1944  0.0099 -0.3473
 1877W        W17008   1.193  10.824  12.992  0.0429  0.0825 -0.2163
 1878W        W17009   8.821   6.251  11.634  0.1961 -0.0680  0.1807
 1879W        W17010  15.461   7.329  15.693 -0.2480 -0.0140  0.0905
 1880W        W17011   1.672  13.216  12.531 -0.0086  0.1447 -0.0018
 1881W        W17012   2.759   5.332  12.312 -0.0306  0.4990 -0.1574
 1882W        W17013   1.136   2.794   4.794 -0.1374  0.0675 -0.1440
 1883W        W17014   7.482  10.349   0.393 -0.1697  0.3836 -0.1730
 1884W        W17015  18.129  13.442  10.702  0.3412 -0.2367  0.0729
 1885W        W17016  16.892   3.760   0.529 -0.2623 -0.2596 -0.0646
 1886W        W17017   1.009   3.472   1.110  0.0128  0.0183 -0.0114
 1887W        W17018   2.312   2.067   2.040 -0.1683  0.1898  0.0773
 1888W        W17019   9.820  16.395   4.246  0.0516  0.0643 -0.0952
 1889W        W17020  10.043  15.381   0.263  0.2373 -0.2773 -0.1832
 1890W        W17021  16.212  10.434   0.297  0.1663 -0.1229  0.1983
 1891W        W17022  12.595   3.504  11.428  0.0017 -0.0664 -0.2154
 1892W        W17023  13.323  10.589  15.606  0.0894  0.2060 -0.2203
 1893W        W17024   2.248   5.014  11.888  0.0291 -0.0804  0.3135
 1894W        W17025   7.987   6.519  11.761  0.0793  0.0690  0.2993
 1895W        W17026   4.806   7.319  12.417  0.0647 -0.1926 -0.0474
 1896W        W17027   6.092  12.819  14.906 -0.2294 -0.1500 -0.0466
 1897W        W17028   2.839   6.926   2.832 -0.0960  0.1365  0.1308
 1898W        W17029   0.152   7.766   5.679 -0.1450 -0.2691 -0.0472
 1899W        W17030   7.892   9.147   2.101  0.2018  0.1440  0.5631
 1900W        W17031   1.545   3.664   1.505  0.1822  0.0502 -0.0890
 1901W        W17032  14.109   1.289  15.763 -0.0689 -0.1238 -0.2021
 1902W        W17033  11.865   9.622   3.366 -0.1630 -0.0906  0.2322
 1903W        W17034  16.356  17.902  11.817  0.0452  0.3100 -0.0942
 1904W        W17035   5.175   6.749   4.320  0.2039  0.3179  0.2982
 1905W        W17036  14.284   6.178  13.047 -0.2253 -0.3564  0.2456
 1906W        W17037   4.628  13.178   0.726 -0.1380 -0.0261  0.0922
 1907W        W17038  17.632  13.319   1.522  0.1694 -0.0134 -0.2215
 1908W        W17039   0.209   9.212   1.371 -0.0920  0.5732 -0.2555
 1909W        W17040   8.860  10.343  11.114  0.1174 -0.0544  0.3494
 1910W        W17041   7.467   4.906   2.362  0.2277  0.2481 -0.0856
 1911W        W17042   3.875   9.806   4.253 -0.4586 -0.0442 -0.1632
 1912W        W17043   9.231  15.115  12.411  0.0729 -0.2462  0.0506
 1913W        W17044  13.606   6.390  11.734 -0.2112  0.0514  0.0712
 1914W        W17045   7.472   3.648   6.347  0.0020 -0.1882 -0.2262
 1915W        W17046   1.353  17.702  12.728  0.1562 -0.0866 -0.2210
 1916W        W17047  12.409   4.495   4.811  0.2608 -0.2298 -0.0424
 1917W        W17048   7.387  10.372   4.792 -0.0702  0.1007  0.0819
 1918W        W17049   2.347   9.484   2.774  0.1959 -0.0854 -0.2975
 1919W        W17050   7.452  10.174  15.991  0.0428  0.2593 -0.2247
 1920W        W17051   2.820  11.640   5.017 -0.1197  0.0336 -0.0772
 1921W        W17052   3.892   2.218  13.497 -0.1687 -0.1847 -0.4916
 1922W        W17053   9.872   1.653   2.241 -0.2121 -0.1520  0.0709
 1923W        W17054  13.617  14.982  11.820  0.3860  0.1522  0.2661
 1924W        W17055   2.978   2.568   2.108 -0.3316 -0.2368  0.0755
 1925W        W17056  15.019   0.045  12.980 -0.1422  0.1302  0.0438
 1926W        W17057  17.440   8.839  14.068 -0.1917 -0.1452 -0.1808
 1927W        W17058   5.596   8.371  15.689 -0.1135 -0.3615  0.0069
 1928W        W17059  15.047  17.125  15.864  0.3618  0.2861  0.3606
 1929W        W17060  16.655   4.479  11.003 -0.1982  0.2630 -0.0381
 1930W        W17061   2.224   5.253   0.545  0.3243 -0.0938 -0.1462
 1931W        W17062   6.009  14.858  15.549  0.1729  0.1509  0.0964
 1932W        W17063  17.840   4.453   0.832 -0.0918  0.0137 -0.2866
 1933W        W17064   3.963  13.679  14.009 -0.0702  0.2953  0.0381
 1934W        W17065   2.471  13.338   5.200 -0.4263 -0.2001 -0.2496
 1935W        W17066  16.255  16.622   1.152 -0.0252  0.1284  0.4555
 1936W        W17067  10.332   3.567  14.302  0.3296 -0.1430  0.1665
 1937W        W17068   2.626   4.722   2.928 -0.1275  0.3359  0.1694
 1938W        W17069  16.897   2.498   3.608  0.1050 -0.1513 -0.2395
 1939W        W17070   6.266   5.996  14.537  0.1284  0.2309  0.2284
 1940W        W17071  11.666  13.456  13.046  0.0123  0.3366  0.0167
 1941W        W17072  14.410  11.240  11.617  0.4504  0.1121 -0.1796
 1942W        W17073  14.956  11.292  10.912 -0.1829  0.1247  0.3004
 1943W        W17074  14.310  11.113  14.448  0.1397 -0.1074 -0.4147
 1944W        W17075   8.392  12.174  12.949  0.2097  0.1472 -0.1520
 1945W        W17076  11.457   2.429  12.964  0.1176  0.0542  0.0297
 1946W        W17077   2.830  14.246  15.476 -0.0083 -0.0527 -0.1282
 1947W        W17078  16.784  18.267  14.410  0.2820 -0.1563  0.1237
 1948W        W17079   6.417   6.563  15.800 -0.1265 -0.1678  0.0684
 1949W        W17080  15.547   8.553   0.802  0.3349 -0.2834 -0.0208
 1950W        W17081  10.310   6.221  13.066 -0.0024  0.0868  0.1603
 1951W        W17082  14.351  10.330   4.482  0.0735  0.1484  0.0510
 1952W        W17083  17.597  11.409  15.295  0.3545  0.0502  0.0875
 1953W        W17084   3.332   9.372  14.343  0.1895  0.1767  0.1972
 1954W        W17085   7.888   6.339  15.226  0.0316  0.2611 -0.0069
 1955W        W17086  16.580  12.329   1.250 -0.1360 -0.3897  0.0620
 1956W        W17087  16.791   9.630  12.037 -0.1261  0.1696 -0.4360
 1957W        W17088  11.877   6.382  15.139  0.0807 -0.3234  0.1701
 1958W        W17089   1.759   7.903  15.776  0.0324  0.3010  0.1428
 1959W        W17090  18.142   9.905   0.946  0.1918  0.0288  0.1567
 1960W        W17091  16.529   0.157  11.991  0.1040  0.0597  0.4878
 1961W        W17092  18.300   5.742   5.631  0.2001  0.1416 -0.2802
 1962W        W17093   2.883   9.931   5.517 -0.2936  0.1085 -0.0085
 1963W        W17094   5.696   1.957  14.224  0.0315  0.1391  0.4182
 1964W        W17095   6.998   5.577   1.644  0.2803 -0.0704  0.0840
 1965W        W17096   7.944   1.401  14.146 -0.1138 -0.1626  0.1561
 1966W        W17097   1.326   1.734   0.857  0.1560  0.1393  0.0121
 1967W        W17098   2.278   2.846   0.717 -0.3173 -0.0683  0.0421
 1968W        W17099  12.864  16.298  14.528  0.3691 -0.2602  0.2611
 1969W        W17100  17.121   4.182   3.459 -0.3906  0.1437  0.0003
 1970W        W17101  17.222  10.484  13.330 -0.1657  0.1288  0.2937
 1971W        W17102   0.067   4.609   4.840  0.5589  0.1890  0.0448
 1972W        W17103  13.972  14.794   4.734  0.0060  0.3617  0.0553
 1973W        W17104  15.105   6.243   4.593  0.2496 -0.3175 -0.3106
 1974W        W17105  15.901  16.588  15.762  0.1819 -0.0139  0.0748
 1975W        W17106  13.653  15.306  15.251  0.2391  0.1234  0.2957
 1976W        W17107   4.176  15.651   1.386 -0.1991 -0.3834 -0.0563
 1977W        W17108   3.377   1.573   3.524 -0.1138  0.3578  0.1407
 1978W        W17109  14.034  12.706   9.789 -0.3156  0.0710 -0.0918
 1979W        W17110   3.834   4.985   4.033 -0.0144  0.0766  0.0169
 1980W        W17111   2.150  17.983   5.371 -0.0008  0.1430  0.1130
 1981W        W17112   5.569   5.109   1.404  0.2212 -0.3110  0.0971
 1982W        W17113   9.962  12.370  14.312  0.1191 -0.1692 -0.0058
 1983W        W17114  15.401  10.386  15.160 -0.2964  0.2604 -0.0858
 1984W        W17115   7.075  17.195   6.100  0.0394  0.0462 -0.2442
 1985W        W17116  17.772   5.158   2.145 -0.5044 -0.1469 -0.1473
 1986W        W17117   1.488   7.737  14.900 -0.3608 -0.1789  0.2573
 1987W        W17118   9.102   5.153   4.363  0.3339 -0.0671 -0.1835
 1988W        W17119   4.007   4.711   2.915 -0.2206 -0.1172  0.1103
 1989W        W17120   4.883  16.407   1.345  0.2008 -0.1323 -0.3608
 1990W        W17121   1.557  11.808  11.644  0.1130 -0.0327  0.0107
 1991W        W17122   4.387  16.867   0.771 -0.0296  0.0418  0.1041
 1992W        W17123   8.048   6.405   5.139  0.7308  0.1938 -0.0628
 1993W        W17124  16.928   0.335  11.695 -0.1904 -0.0481 -0.1383
 1994W        W17125  12.831  16.942   0.159 -0.2914  0.0412  0.0500
 1995W        W17126   0.911  17.654   4.098  0.0667 -0.0110 -0.0445
 1996W        W17127  14.452  16.424  12.531  0.0497 -0.0492  0.0438
 1997W        W17128   2.884  14.320  13.402  0.0702 -0.0875 -0.0205
 1998W        W17129  17.747  14.527   1.911  0.0231 -0.1919 -0.1749
 1999W        W17130   3.738  15.772  13.892  0.0914 -0.1975 -0.0464
 2000W        W17131  13.495  12.239  11.084  0.2037  0.2210  0.2367
 2001W        W17132   1.419   8.674  16.006  0.0106  0.4144  0.1484
 2002W        W17133  17.716  11.600   2.845 -0.0963 -0.3067 -0.1426
 2003W        W17134   8.678  12.659   5.244  0.1071 -0.0232  0.1801
 2004W        W17135  11.172  17.384   4.951  0.0386  0.3368 -0.1155
 2005W        W17136  15.718   1.707   6.499  0.5801 -0.2768 -0.1216
 2006W        W17137   2.336   2.902   1.559 -0.2404  0.0595 -0.0268
 2007W        W17138  15.952  17.790  11.527 -0.0251 -0.0210 -0.0399
 2008W        W17139  13.615  17.487  14.804  0.0842 -0.3890  0.1978
 2009W        W17140   4.837  13.719  13.127 -0.0550  0.1407 -0.1407
 2010W        W17141   9.634  15.312  14.697  0.1516  0.1425 -0.4151
 2011W        W17142   6.203   2.022  15.849 -0.1313 -0.0245 -0.0916
 2012W        W17143   0.761   4.690  14.313  0.1899 -0.1220 -0.3233
 2013W        W17144   7.240  17.317   4.628  0.3952 -0.0697  0.1078
 2014W        W17145   7.812   4.576   0.814 -0.1181  0.2424  0.1920
 2015W        W17146  10.304  11.435  10.797 -0.0348 -0.1032 -0.3357
 2016W        W17147  16.712   7.862  13.191 -0.3055  0.2698  0.1813
 2017W        W17148  18.185   6.778   0.300  0.0503  0.1651 -0.0528
 2018W        W17149   9.505   7.699  15.145  0.1055  0.3031 -0.1643
 2019W        W17150   7.260  12.946  10.869 -0.2676  0.1017  0.3033
 2020W        W17151   1.007   5.771   0.524 -0.0082 -0.0280  0.0140
 2021W        W17152   6.156   4.387  12.420 -0.1924 -0.4629  0.0297
 2022W        W17153   0.365   1.197   4.279  0.0579 -0.1544 -0.0694
 2023W        W17154  13.924   7.418   2.900  0.2504 -0.0452  0.4302
 2024W        W17155  13.200   0.311  13.546 -0.0892 -0.2610 -0.1347
 2025W        W17156   9.049   1.774  12.823  0.1009 -0.1131 -0.0767
 2026W        W17157   5.903   5.458  12.778 -0.0434 -0.1647  0.1170
 2027W        W17158   0.071  12.292   5.157  0.3936 -0.1298  0.2587
 2028W        W17159   7.452  12.600  14.562  0.2089 -0.3222 -0.2297
 2029W        W17160   8.393  15.562  15.944  0.0251  0.4051  0.1314
 2030W        W17161  17.670  10.055  12.144 -0.0977  0.0546 -0.2018
 2031W        W17162   7.890   3.599  11.577  0.1145 -0.2138  0.0316
 2032W        W17163   1.365  11.062   1.202 -0.1922 -0.1003 -0.1723
 2033W        W17164  14.093  14.383  10.799  0.0226  0.0827 -0.2699
 2034W        W17165  16.837  14.341  15.576  0.1739  0.1391 -0.0449
 2035W        W17166  11.501   2.565  15.657  0.1629 -0.0188 -0.0530
 2036W        W17167   6.942   1.367   5.841  0.4235  0.0061  0.2913
 2037W        W17168   4.124  10.800  14.768  0.0328  0.0427  0.0901
 2038W        W17169   6.402  13.171   1.189 -0.1159  0.2831 -0.0140
 2039W        W17170  13.952  17.220  14.380  0.6297  0.1254 -0.1718
 2040W        W17171   9.113   7.671   1.578 -0.0590 -0.4044 -0.1022
 2041W        W17172  14.213   7.977   2.077  0.0614  0.1095 -0.0380
 2042W        W17173  12.743   9.006   2.572  0.3007 -0.2015 -0.0671
 2043W        W17174   2.763  15.754  11.231 -0.0734 -0.0944  0.0567
 2044W        W17175   9.052   9.764   0.192 -0.0128  0.1053  0.1071
 2045W        W17176  16.339  15.851   1.632 -0.1955  0.0462  0.3286
 2046W        W17177   6.306   2.420   4.116  0.2628 -0.1559  0.3053
 2047W        W17178  10.080   6.708   3.810  0.0339 -0.1422 -0.0382
 2048W        W17179   4.315  18.214   0.501  0.0478  0.0150  0.4645
 2049W        W17180  14.142  17.482   6.271 -0.1770 -0.0009  0.0381
 2050W        W17181   9.780   0.805  12.179  0.0333 -0.0562 -0.1883
 2051W        W17182  17.124  15.612   0.655 -0.1109  0.0458 -0.0180
 2052W        W17183  10.609  11.231   1.172  0.2025  0.4019  0.0136
 2053W        W17184   7.755   7.392   2.757  0.1038 -0.0875  0.1353
 2054W        W17185   6.227   2.981   1.834  0.0310 -0.1600 -0.3792
 2055W        W17186  15.952  10.355  11.002 -0.0700  0.0508 -0.0676
 2056W        W17187   8.202   0.467   5.090 -0.2709  0.1036 -0.3422
 2057W        W17188   2.831   9.057  14.969 -0.1377 -0.0690  0.2479
 2058W        W17189  16.108   3.845  15.991 -0.2551 -0.0871 -0.2345
 2059W        W17190   9.559   5.961  13.800 -0.1853 -0.1079 -0.1266
 2060W        W17191  17.791   7.131   1.027  0.2982 -0.0302  0.1736
 2061W        W17192   0.518  10.398   1.915 -0.0849  0.3686 -0.2180
 2062W        W17193   9.854  17.906  13.248 -0.1788 -0.1011 -0.2000
 2063W        W17194  11.972  14.312  11.647 -0.5816  0.0486  0.0220
 2064W        W17195   1.027  14.574   4.309 -0.2644 -0.2349  0.5247
 2065W        W17196  17.264   5.036   3.094 -0.1475  0.3420 -0.0507
 2066W        W17197  10.586  15.080   1.405  0.0163  0.1769  0.2662
 2067W        W17198   3.252  10.502  15.669 -0.1962 -0.1105 -0.0218
 2068W        W17199   4.596  16.536   3.534 -0.0861 -0.2719 -0.0510
 2069W        W17200  18.037  10.944   4.344  0.1015 -0.0112  0.2191
 2070W        W17201  17.989   8.030   0.094 -0.0917 -0.3693 -0.0107
 2071W        W17202  12.453   8.148  13.477 -0.1447 -0.1332  0.1666
 2072W        W17203   0.947   9.916  13.265  0.0471 -0.2380 -0.0301
 2073W        W17204  15.535  14.470  15.797 -0.1194 -0.2597 -0.3080
 2074W        W17205   9.063   8.295  15.990 -0.3355  0.3804 -0.0994
 2075W        W17206  12.102  12.556  11.682 -0.0851 -0.0025 -0.1100
 2076W        W17207  11.183   3.891   4.002  0.1596 -0.0087 -0.0645
 2077W        W17208  11.469  12.642  11.507 -0.2020  0.1162 -0.0617
 2078W        W17209   4.251  13.456   5.470  0.1835  0.1488 -0.4049
 2079W        W17210  15.675   3.768   5.098  0.1186 -0.0577  0.0312
 2080W        W17211  11.587   8.607  14.704  0.3455 -0.0354 -0.0369
 2081W        W17212  13.274   5.576   1.704 -0.2604  0.0830  0.3155
 2082W        W17213   3.537   4.692   3.220 -0.0913 -0.0906  0.2040
 2083W        W17214   3.841  11.590   3.354 -0.2498  0.1353  0.0949
 2084W        W17215   1.661  10.526   5.614 -0.2426 -0.0081 -0.2598
 2085W        W17216  14.880   2.266  15.638  0.0360  0.1121 -0.1303
 2086W        W17217   5.142   8.759  14.978 -0.1900  0.2738 -0.2073
 2087W        W17218  10.489   5.176  11.939  0.1015  0.0063  0.0733
 2088W        W17219  17.479   7.192  12.560  0.1087 -0.1976  0.0825
 2089W        W17220   4.703   3.372   2.641  0.0261 -0.0816 -0.0699
 2090W        W17221   9.098  16.258   1.482  0.0289 -0.1998 -0.3199
 2091W        W17222   3.440   8.569  10.718 -0.0578 -0.1032  0.3033
 2092W        W17223   9.123  13.151  14.474 -0.0880 -0.0697 -0.2514
 2093W        W17224   8.951   3.922   0.959  0.0561 -0.0509 -0.1306
 2094W        W17225   5.592  18.022   6.005  0.1283 -0.0360  0.3891
 2095W        W17226   5.572  15.017   5.146 -0.1631 -0.0703 -0.0397
 2096W        W17227   8.793   0.179  10.922 -0.1101  0.2107 -0.1002
 2097W        W17228  12.909  12.686  12.684  0.4503 -0.0003  0.0486
 2098W        W17229  14.004   5.199   4.438 -0.0653  0.1456  0.0744
 2099W        W17230   1.865   5.967  15.954  0.1394 -0.1730 -0.0043
 2100W        W17231   4.481  11.431  11.459  0.0301  0.0633 -0.4699
 2101W        W17232   5.914   6.429  12.400 -0.0636 -0.1865  0.1449
 2102W        W17233   2.390   9.918   1.622  0.3323 -0.1539  0.0074
 2103W        W17234  16.991   1.759  12.155  0.1855 -0.0511 -0.2004
 2104W        W17235   4.632   8.101  15.972 -0.3264  0.2741  0.2120
 2105W        W17236  11.561   1.878   0.795  0.1215  0.1299 -0.0468
 2106W        W17237  16.687   3.293   2.925 -0.1668 -0.0899  0.0741
 2107W        W17238   1.415  16.093  12.260  0.2092 -0.1355  0.2597
 2108W        W17239   7.057   0.218   4.384 -0.2937  0.0717 -0.0143
 2109W        W17240   7.835  13.709   5.957 -0.3128  0.3544 -0.2412
 2110W        W17241   4.393   9.255   1.476  0.0163 -0.1452  0.3412
 2111W        W17242   8.242   6.278   4.458  0.0207  0.2060  0.1324
 2112W        W17243  14.043  12.709   1.483  0.0773  0.1498 -0.0717
 2113W        W17244   1.913  17.335   1.049 -0.0563 -0.0086  0.2996
 2114W        W17245   4.592  10.512  11.321  0.0144 -0.0679  0.0590
 2115W        W17246   6.661  15.391  15.713  0.0381 -0.0673  0.0915
 2116W        W17247   4.667   7.426   0.235  0.0113 -0.1026  0.3948
 2117W        W17248   9.270   6.119   3.611 -0.0639 -0.3689 -0.3361
 2118W        W17249   7.937  13.886  15.295 -0.2053 -0.0652  0.1440
 2119W        W17250  10.523   5.277  11.299  0.1355 -0.0742 -0.1987
 2120W        W17251   2.017  13.895   2.075 -0.1716 -0.1393 -0.1801
 2121W        W17252   1.216   0.314   0.469 -0.1946  0.2501 -0.0308
 2122W        W17253   0.717  11.902   5.704  0.1199  0.1954  0.0861
 2123W        W17254   7.459   0.237   2.103  0.2513  0.3224  0.1362
 2124W        W17255  15.743   8.946   3.561 -0.1579 -0.1677 -0.0422
 2125W        W17256   3.704   2.073   5.986 -0.0178 -0.0004 -0.2967
 2126W        W17257   0.604  16.055  11.090 -0.1131 -0.0916  0.1152
 2127W        W17258   8.254   9.436  11.716 -0.1913  0.3347 -0.0660
 2128W        W17259  16.513   4.834  13.220 -0.2397 -0.0397  0.3226
 2129W        W17260  16.605  15.930  10.150 -0.1422 -0.0107 -0.1078
 2130W        W17261   9.814  16.944  13.104 -0.0366  0.1089 -0.1398
 2131W        W17262  15.095  11.254  15.692 -0.3259  0.2430 -0.1939
 2132W        W17263   6.867  15.679  13.475 -0.0257  0.1345 -0.0460
 2133W        W17264  14.269   2.262   1.841 -0.2592  0.3273  0.3605
 2134W        W17265  12.887   7.444  11.822  0.0014 -0.1255  0.1307
 2135W        W17266   6.179   4.493   1.831  0.1178  0.2717  0.0443
 2136W        W17267   0.558   8.585   4.846  0.0296 -0.1089 -0.1375
 2137W        W17268   2.347  11.033   5.807 -0.1560 -0.2221  0.1867
 2138W        W17269   2.494  13.962  13.411  0.1462 -0.0579 -0.1538
 2139W        W17270  15.130  16.529  14.395  0.0227 -0.0125 -0.1268
 2140W        W17271  15.250  12.622   4.976 -0.1272 -0.1098 -0.3033
 2141W        W17272   9.003   1.637   1.910 -0.0031  0.1438 -0.0859
 2142W        W17273   4.262   4.871   1.442 -0.2817  0.2394 -0.0914
 2143W        W17274  11.544  14.910   4.790 -0.0431  0.0199 -0.3820
 2144W        W17275  10.023   3.617  10.717  0.1027 -0.1740 -0.4109
 2145W        W17276  16.874   5.658  11.025 -0.0827 -0.2437 -0.1418
 2146W        W17277  13.728  16.619   1.893  0.1463 -0.1343  0.0655
 2147W        W17278   3.247   2.911  10.639 -0.1335 -0.0747 -0.0388
 2148W        W17279   7.106   0.325   0.415  0.1033 -0.2858  0.3081
 2149W        W17280  12.981   0.789   3.758  0.5397 -0.1238 -0.0380
 2150W        W17281  17.710  17.170  14.850  0.0525  0.2809 -0.0701
 2151W        W17282   4.975  10.172  11.174 -0.1871  0.1746 -0.0042
 2152W        W17283  14.346  11.698  10.897  0.0489 -0.1216 -0.0560
 2153W        W17284  15.564   9.549  10.524  0.1476  0.1421 -0.1507
 2154W        W17285   6.362  11.632   9.813  0.4070  0.0640 -0.0250
 2155W        W17286  15.646  16.018   3.270  0.2070  0.0280 -0.0027
 2156W        W17287  13.713   8.744  11.695 -0.1022  0.0220 -0.2272
 2157W        W17288   8.754  15.033   3.171 -0.1200 -0.0981 -0.2186
 2158W        W17289   5.201  10.083  15.159 -0.0430  0.1001  0.0952
 2159W        W17290  14.828   9.550  15.027 -0.2269  0.0882  0.1569
 2160W        W17291   8.806   6.393  14.987 -0.0385  0.0896 -0.0454
 2161W        W17292  10.894   1.269  10.649  0.2661  0.1070 -0.1101
 2162W        W17293  15.864   5.523   2.995 -0.0218  0.0898  0.0063
 2163W        W17294   3.348   0.346   3.789 -0.0450 -0.0112 -0.0418
 2164W        W17295  10.210   9.794  12.537  0.0664 -0.3733  0.1509
 2165W        W17296   7.016   6.878  10.974  0.1264 -0.0931  0.0408
 2166W        W17297   3.889   4.461   1.415  0.0711 -0.0245 -0.0605
 2167W        W17298  13.440   0.818   3.854 -0.3523 -0.0313  0.2718
 2168W        W17299   5.758  15.812  15.367  0.0455  0.3252 -0.2230
 2169W        W17300  10.795  18.295  11.995  0.1072  0.0837 -0.2330
 2170W        W17301  13.828  11.303  14.180 -0.0065 -0.3270 -0.3513
 2171W        W17302   1.893  13.301  12.093  0.0537  0.0702 -0.2936
 2172W        W17303  10.773  13.004   5.789 -0.0253  0.0235 -0.0292
 2173W        W17304   5.466  15.249   0.946  0.3539 -0.1681  0.1030
 2174W        W17305   3.708  12.307   2.189  0.0457 -0.1149  0.0302
 2175W        W17306  12.924   9.952   2.080 -0.0784 -0.0791 -0.4331
 2176W        W17307  14.112   0.334  14.006 -0.2328  0.1978  0.0785
 2177W        W17308  10.887   5.445   4.755 -0.2747  0.1860  0.3400
 2178W        W17309   4.155  13.336  11.871 -0.1069 -0.2664  0.0853
 2179W        W17310   6.933   0.958   0.075 -0.0796 -0.0879 -0.0644
 2180W        W17311   5.695   3.266   1.332 -0.1708 -0.1257 -0.2587
 2181W        W17312  12.519   8.340  12.218  0.1864  0.1940  0.0957
 2182W        W17313   2.826   6.668  11.624  0.2095 -0.1651 -0.2428
 2183W        W17314   8.103   4.662  14.044  0.1239 -0.1508  0.0006
 2184W        W17315   1.597   8.694   5.231  0.2645 -0.2496  0.0950
 2185W        W17316  18.284   2.517  11.766  0.1290  0.0926  0.0841
 2186W        W17317   2.765   2.891   4.849 -0.0964 -0.0075 -0.2274
 2187W        W17318   2.925  17.016   2.953  0.0135  0.0565  0.2443
 2188W        W17319  18.318  12.407   2.128  0.0905 -0.2009  0.1050
 2189W        W17320  14.717  10.017   3.531  0.1061 -0.2456  0.0041
 2190W        W17321  13.172  14.862  13.707 -0.3325 -0.0347 -0.1842
 2191W        W17322   2.350   1.438   2.252 -0.0525  0.3381  0.1205
 2192W        W17323  11.138  15.249  12.222 -0.2174 -0.1455  0.1162
 2193W        W17324   3.673   4.547   6.505  0.1031 -0.2412  0.0187
 2194W        W17325  15.006  10.691  14.219 -0.1136 -0.0602  0.2414
 2195W        W17326  10.391   6.777   5.009 -0.0545  0.0975  0.2066
 2196W        W17327  13.390   0.297  12.433  0.2315 -0.0780  0.4195
 2197W        W17328   7.082   0.506  12.882 -0.1070 -0.2009 -0.0157
 2198W        W17329   9.051   9.128   3.538 -0.1362  0.3673  0.1392
 2199W        W17330   0.731  17.509  13.984 -0.1607  0.1955  0.3942
 2200W        W17331   9.702   4.837   0.148 -0.2663 -0.0748  0.3566
 2201W        W17332   4.044  13.472   4.917  0.1511  0.4042 -0.2230
 2202W        W17333   5.641   9.897   2.171  0.0250  0.0698  0.0198
 2203W        W17334   8.237   4.617   2.854  0.3625  0.2195 -0.2105
 2204W        W17335  18.139   0.195   3.944  0.1663  0.0534 -0.0443
 2205W        W17336   7.009   2.335  13.827 -0.1001 -0.3216  0.2228
 2206W        W17337   9.914   3.405   1.527 -0.0280 -0.1883 -0.3472
 2207W        W17338  10.445   9.678  13.550  0.0327 -0.3565  0.0706
 2208W        W17339   7.974   1.839  14.663  0.2770 -0.1376  0.0547
 2209W        W17340  14.547  11.481   1.678 -0.0779 -0.0248  0.2620
 2210W        W17341   2.464   3.922  13.561  0.0793  0.3138 -0.3099
 2211W        W17342   7.521  14.987  12.266  0.2457 -0.1181  0.0103
 2212W        W17343  11.086   8.641   5.353  0.2085 -0.3059  0.0839
 2213W        W17344  12.511  17.959  10.958 -0.1632  0.1746  0.1109
 2214W        W17345  14.863  14.086  13.057 -0.1138  0.1983 -0.2759
 2215W        W17346  17.104   9.653  13.996  0.1370 -0.0305  0.1292
 2216W        W17347  10.899  14.233  15.965  0.1855 -0.1754  0.2646
 2217W        W17348  11.043  14.176   1.922  0.0883 -0.0201 -0.1098
 2218W        W17349   4.115   6.701  11.132 -0.1136  0.0842  0.1153
 2219W        W17350  15.820  10.477   2.875  0.2169  0.0703 -0.2249
 2220W        W17351   9.443   8.523  14.074 -0.0315  0.0805 -0.2297
 2221W        W17352   0.425   4.525  15.211  0.0335 -0.3093  0.1721
 2222W        W17353   1.329  15.948  13.980  0.1467  0.0323 -0.2567
 2223W        W17354  15.491  17.881   1.911 -0.1821 -0.0155 -0.0743
 2224W        W17355  17.850   9.513  14.170 -0.0390  0.1244  0.0468
 2225W        W17356   7.657  10.482   2.124 -0.2266  0.0571 -0.0045
 2226W        W17357  16.193  17.149   1.629 -0.0343  0.1952 -0.1321
 2227W        W17358   2.560   1.618  10.996  0.0650 -0.0044  0.0326
 2228W        W17359  15.494   4.676   5.352  0.0135 -0.0643  0.4093
 2229W        W17360  10.393   8.153   4.694 -0.0282 -0.2542  0.1533
 2230W        W17361  10.272  12.748   2.911  0.3785 -0.0890 -0.2763
 2231W        W17362  17.581   9.161  15.622 -0.2198 -0.0823  0.3081
 2232W        W17363   6.717   7.980   2.472  0.0023  0.1207 -0.4459
 2233W        W17364   6.240  13.029   4.311  0.0151 -0.2290 -0.0134
 2234W        W17365   5.832   7.673   1.909 -0.1776  0.0116 -0.4190
 2235W        W17366   0.131   7.512   1.586  0.4647  0.0884 -0.3545
 2236W        W17367   3.787  15.177   6.281 -0.1225  0.0572 -0.1555
 2237W        W17368  17.115   9.800   4.293  0.1892 -0.2492 -0.1743
 2238W        W17369  12.726   2.967  12.509  0.1545 -0.2354 -0.0109
 2239W        W17370   1.181  18.167   4.935  0.0708 -0.0964 -0.0162
 2240W        W17371   1.745  10.767   0.614 -0.1596 -0.1118  0.1767
 2241W        W17372   7.441   2.682  13.837  0.0640 -0.1399  0.3169
 2242W        W17373   5.030  12.475  15.865 -0.0754 -0.0318 -0.3740
 2243W        W17374   6.356   5.417   3.628 -0.3071  0.0466  0.1272
 2244W        W17375  11.815  13.690   5.912 -0.0159  0.0984 -0.0024
 2245W        W17376  11.428   9.899   4.271  0.0400 -0.1603  0.1681
 2246W        W17377   7.313  14.850   0.507  0.4034 -0.3073 -0.1706
 2247W        W17378   5.615   3.460   0.189  0.1210 -0.0258 -0.0459
 2248W        W17379  10.193   8.656  15.059 -0.3091 -0.2653 -0.1630
 2249W        W17380   1.878   7.796   3.138 -0.4230  0.0426  0.1059
 2250W        W17381  13.795  14.789   0.470  0.1820  0.1476  0.3218
 2251W        W17382  11.069   5.010  12.550 -0.0084  0.0133  0.3425
 2252W        W17383   0.330  15.633   3.001 -0.0997 -0.3094  0.1287
 2253W        W17384   5.934   9.372   2.411 -0.5330  0.0367  0.1581
 2254W        W17385   4.145  12.500  14.987  0.3558 -0.0766  0.0579
 2255W        W17386   5.747   4.657   1.584  0.0450 -0.0642 -0.0039
 2256W        W17387  17.345   9.963  13.003  0.0452  0.0590 -0.3953
 2257W        W17388   5.054   4.639  16.100  0.1168 -0.0455 -0.2290
 2258W        W17389   6.933   9.151   5.533 -0.0872  0.2344  0.2593
 2259W        W17390   5.100   3.037   5.746  0.2895  0.0797  0.3363
 2260W        W17391   7.637   8.712   3.267 -0.2793  0.2621  0.1393
 2261W        W17392   2.819  10.000  15.460  0.0166  0.1129  0.2988
 2262W        W17393  10.045  10.364  13.894  0.0521  0.1791  0.2083
 2263W        W17394   6.449   0.196  13.375 -0.1607  0.0581  0.2381
 2264W        W17395  18.162   1.580  14.393 -0.1379 -0.1503  0.0461
 2265W        W17396  15.237  10.738  11.487  0.0662  0.2490  0.1548
 2266W        W17397  11.698  16.209   1.133  0.0498  0.0841 -0.3529
 2267W        W17398  17.882  16.887  11.940 -0.0586  0.1054 -0.1021
 2268W        W17399  17.087  10.418   2.192  0.1831  0.2306 -0.1677
 2269W        W17400  17.447  11.930  14.611 -0.0447  0.0024  0.2589
 2270W        W17401  16.235   9.574  13.310  0.0405  0.0687 -0.0202
 2271W        W17402   0.996   7.681   1.743 -0.0686  0.0564  0.0140
 2272W        W17403   4.418   6.094   2.730 -0.0542  0.2839  0.2001
 2273W        W17404   9.986   2.425   5.425  0.1495 -0.1315 -0.1735
 2274W        W17405  13.034  15.511   0.209  0.0188  0.1561  0.1673
 2275W        W17406   4.102   3.034   3.322  0.0209  0.0169  0.2264
 2276W        W17407  10.275  13.939  12.946  0.1080  0.0020  0.2146
 2277W        W17408   5.777   3.286  11.579  0.1893 -0.2098  0.0919
 2278W        W17409   5.972  15.001   3.342  0.0092 -0.1227  0.0276
 2279W        W17410   6.431  11.429  15.669 -0.1938 -0.1577 -0.0182
 2280W        W17411   9.823  15.819  14.882 -0.3121 -0.2921 -0.0388
 2281W        W17412  11.456  14.380  13.782 -0.1408  0.2639 -0.1508
 2282W        W17413   9.786   2.493  13.131 -0.0996 -0.2667  0.2567
 2283W        W17414  17.825  15.927   1.188  0.1494 -0.3786  0.0381
 2284W        W17415   6.162  15.118  11.704 -0.0641  0.1040  0.2887
 2285W        W17416   0.708  18.318  15.551  0.0184  0.4149  0.0783
 2286W        W17417  14.300   5.903  12.615 -0.1698  0.0651 -0.1075
 2287W        W17418  15.729  16.424  11.921 -0.1462 -0.1670  0.0319
 2288W        W17419  11.626   3.602  14.182  0.0216 -0.0980  0.2884
 2289W        W17420   4.531   7.151  13.308  0.2325 -0.4198 -0.0494
 2290W        W17421  15.939   0.064   4.491  0.0428  0.1607 -0.3729
 2291W        W17422  15.355   3.217  15.756 -0.0741 -0.0102 -0.0856
 2292W        W17423   6.124   1.112   1.874 -0.1315  0.1100  0.1306
 2293W        W17424  16.971   6.275  14.488  0.1857 -0.0827 -0.0661
 2294W        W17425  10.892  13.827   0.116 -0.1930 -0.2010  0.0487
 2295W        W17426  17.545   9.783   3.357 -0.1400 -0.3313 -0.0570
 2296W        W17427   3.328  16.775  16.083  0.0605  0.0800  0.1072
 2297W        W17428  14.401   9.533   2.064 -0.1197 -0.2069 -0.1632
 2298W        W17429   2.078  15.465   3.961 -0.3267 -0.2900  0.0579
 2299W        W17430  12.582   0.199  12.275 -0.0585  0.1323 -0.3302
 2300W        W17431  16.308   3.792  12.634  0.0102  0.1114 -0.3257
 2301W        W17432   3.512  14.009   2.634 -0.0746  0.0735  0.1696
 2302W        W17433  12.566  17.660   4.837  0.1820  0.2831 -0.4339
 2303W        W17434  13.076  14.012  14.055 -0.0649 -0.0836 -0.1879
 2304W        W17435  14.637   9.718  11.525  0.0445  0.2759  0.2554
 2305W        W17436   2.110  17.578   5.130  0.3881  0.2087  0.1725
 2306W        W17437  14.200  16.702  12.915  0.2896 -0.0209 -0.1527
 2307W        W17438  16.561  17.482  11.091  0.3075  0.1175 -0.0934
 2308W        W17439   1.374   0.761  10.454  0.0189  0.3386 -0.1329
 2309W        W17440  17.107  14.605   6.120 -0.0393 -0.0570  0.1172
 2310W        W17441  17.962   6.875   4.723 -0.1130 -0.0261 -0.0403
 2311W        W17442  10.222  15.162  12.072 -0.4352  0.0577 -0.1117
 2312W        W17443  13.866  17.322   1.245  0.0349 -0.1519 -0.0777
 2313W        W17444  12.325   7.394   3.186 -0.1971  0.0931 -0.0920
 2314W        W17445   1.688   7.850   2.606  0.0677 -0.0718 -0.2359
 2315W        W17446   0.586   6.476  13.953 -0.0135  0.1936 -0.0605
 2316W        W17447   4.932  10.125   5.254 -0.0451  0.4193 -0.1144
 2317W        W17448   1.120  11.544  16.107 -0.1481  0.0678 -0.2421
 2318W        W17449  15.052  16.513  10.723 -0.2226  0.1628  0.2048
 2319W        W17450   5.939  12.624   6.026  0.0012  0.0455  0.0989
 2320W        W17451   8.595   9.544   5.741  0.1377  0.0340  0.0383
 2321W        W17452   6.570   5.013  13.074  0.0584  0.0214  0.0459
 2322W        W17453   9.039  16.149  14.388  0.1882 -0.4424  0.1550
 2323W        W17454  17.356   4.377  15.232  0.0014 -0.0292  0.2592
 2324W        W17455   5.593   1.675  13.730  0.0190  0.1561 -0.1691
 2325W        W17456   1.046   5.041  11.550 -0.0572  0.3880 -0.0054
 2326W        W17457   4.387   5.623  10.049 -0.1467 -0.0085 -0.0342
 2327W        W17458   2.348   6.823   4.556  0.1066 -0.0378 -0.0849
 2328W        W17459  15.406  15.667   4.131 -0.1798 -0.0572 -0.1841
 2329W        W17460   6.237   1.070   4.088 -0.2454 -0.0244  0.4409
 2330W        W17461   5.839   5.225  15.551 -0.0358  0.0164 -0.2847
 2331W        W17462   5.822   3.409  11.048 -0.3914  0.1706  0.0620
 2332W        W17463   1.633  12.333  11.660  0.0288 -0.0938  0.2373
 2333W        W17464  15.856   5.377   3.567 -0.2567 -0.2977  0.1165
 2334W        W17465   0.278  14.502  14.437 -0.3250  0.1834 -0.1935
 2335W        W17466   6.156   8.753  13.118 -0.0662 -0.0953  0.0016
 2336W        W17467   4.423   2.334   4.730 -0.1316  0.1166  0.3680
 2337W        W17468   5.495   0.607   6.457  0.0183  0.2427 -0.4030
 2338W        W17469  16.240  15.237   2.641 -0.1322 -0.1431 -0.0190
 2339W        W17470   4.111   3.457   3.056  0.1556 -0.0332 -0.1421
 2340W        W17471   7.259   0.022  14.454  0.0548 -0.0965 -0.0668
 2341W        W17472   9.519   2.539  12.604  0.0120  0.0112  0.1636
 2342W        W17473  18.170   0.089  13.662  0.2496  0.0754 -0.0685
 2343W        W17474  13.408  14.947   3.924 -0.3220  0.3489  0.0995
 2344W        W17475  15.223   3.950  11.867 -0.0647 -0.1371  0.0738
 2345W        W17476  10.593  13.933   2.612  0.0485 -0.1127 -0.1252
 2346W        W17477   6.346   7.381  16.051 -0.1044  0.0708  0.3854
 2347W        W17478   4.794  13.600   4.820  0.1746  0.2331  0.1633
 2348W        W17479  14.377   5.389   0.553  0.2512  0.0403 -0.2032
 2349W        W17480  13.602   1.965   3.557  0.2890 -0.2026 -0.2080
 2350W        W17481   3.473   8.985  13.338 -0.2884  0.1172 -0.2142
 2351W        W17482   7.759  13.238   2.179 -0.1269 -0.0310  0.3763
 2352W        W17483   0.161   8.293   5.507 -0.0206 -0.0395 -0.0281
 2353W        W17484  12.295   0.794  12.474  0.0055  0.3581 -0.1588
 2354W        W17485  10.873   9.761  13.908 -0.1290  0.1858  0.1445
 2355W        W17486  14.034   1.317  12.629 -0.0959  0.1364 -0.2363
 2356W        W17487   3.565   4.185   1.730  0.0507  0.2532  0.4084
 2357W        W17488   7.240  14.203  12.110 -0.1792  0.0706  0.3201
 2358W        W17489  13.133   4.647   1.357 -0.3233  0.2013  0.3031
 2359W        W17490  16.543   7.049   3.326  0.3368 -0.0506 -0.0021
 2360W        W17491   9.694   4.254   5.602 -0.0170 -0.1647  0.0730
 2361W        W17492  16.619   8.695   3.790 -0.0249 -0.0345  0.1747
 2362W        W17493   0.323   5.537  15.017  0.1297 -0.1603 -0.0959
 2363W        W17494  13.662   8.087   0.477 -0.6204 -0.1563  0.1136
 2364W        W17495  10.524  11.685  11.718  0.3418  0.1838  0.1277
 2365W        W17496   5.211   3.938   4.424 -0.1760 -0.1887  0.1046
 2366W        W17497  10.429   7.222  10.621 -0.2930 -0.0726  0.0701
 2367W        W17498   8.548   5.740   4.127  0.1770 -0.1860  0.1131
 2368W        W17499  10.482   3.073  11.494  0.3544 -0.0586 -0.0199
 2369W        W17500   7.748  10.584   1.080 -0.1240  0.2151 -0.1113
 2370W        W17501   0.512   8.900   4.430  0.0330  0.2066 -0.1632
 2371W        W17502  11.261   7.962   2.673  0.0258 -0.3034  0.1575
 2372W        W17503  10.571  17.089  15.682 -0.0553 -0.0416  0.1777
 2373W        W17504   7.454   6.638   2.502  0.3976 -0.0236  0.0097
 2374W        W17505  15.048   0.468  14.260 -0.2817  0.0876  0.0869
 2375W        W17506  11.357  13.823  12.659  0.0709 -0.1204  0.2032
 2376W        W17507   8.570   1.789   1.120  0.3614 -0.4120 -0.1727
 2377W        W17508  14.713   5.940   1.966  0.0027 -0.0398  0.2661
 2378W        W17509  17.003   3.709  15.634 -0.2357 -0.2786 -0.0195
 2379W        W17510   6.717  16.832   5.796 -0.0473  0.2971  0.0049
 2380W        W17511  14.263   4.051   1.930 -0.1998 -0.0096  0.1759
 2381W        W17512   0.170  13.561   4.105 -0.1515 -0.3485 -0.1206
 2382W        W17513  13.660  11.682   3.567 -0.0895  0.3619 -0.2820
 2383W        W17514   6.037   0.717   0.958 -0.2111 -0.1984  0.0959
 2384W        W17515  11.282   5.682   0.088  0.1356 -0.3180 -0.1110
 2385W        W17516   8.725   6.967   2.103 -0.1103  0.0311 -0.1055
 2386W        W17517  14.617   8.605  10.804  0.2674 -0.2084  0.1501
 2387W        W17518  17.334   0.170  14.910  0.1727 -0.1809  0.0403
 2388W        W17519  15.215   7.229   2.000 -0.1155  0.3339  0.0588
 2389W        W17520   9.047  12.887   2.399  0.1187 -0.2250 -0.1176
 2390W        W17521   0.972   8.107   3.311  0.0424 -0.1423 -0.3112
 2391W        W17522   0.175   3.089  15.008 -0.0702  0.0791 -0.1012
 2392W        W17523   0.750  10.751   4.741 -0.1724 -0.2041  0.0632
 2393W        W17524   7.664  18.027   3.225  0.0412 -0.2039  0.1166
 2394W        W17525  15.092   1.332  13.595 -0.0569 -0.2930 -0.1662
 2395W        W17526   6.563   2.206   0.061 -0.1239  0.0416 -0.1982
 2396W        W17527  13.786  10.384  12.366 -0.1981 -0.2400  0.0587
 2397W        W17528  14.211   8.261   3.622 -0.0486 -0.1688  0.1293
 2398W        W17529   3.439  11.022   1.486  0.3450  0.1667  0.2102
 2399W        W17530  12.040   0.390  12.283 -0.2106 -0.1768  0.3654
 2400W        W17531  17.814  10.337  10.147  0.0113 -0.0704 -0.0898
 2401W        W17532  16.035  14.376  16.042 -0.2482 -0.0357 -0.0618
 2402W        W17533  15.910  17.235  13.024 -0.1683 -0.0969 -0.0665
 2403W        W17534  15.151   3.824   4.962  0.2815 -0.2060 -0.0659
 2404W        W17535  12.962   1.136  14.508 -0.1109 -0.2096 -0.0514
 2405W        W17536  11.670   1.587   0.397  0.1463  0.0230 -0.0421
 2406W        W17537   3.949  16.575  14.140  0.0650  0.0249  0.0996
 2407W        W17538  12.119   6.268   5.314  0.0777  0.1644 -0.1508
 2408W        W17539  15.107  15.952   5.641 -0.1885  0.2695  0.0094
 2409W        W17540   0.207   2.574  14.345  0.1878 -0.3136 -0.2122
 2410W        W17541  12.933  13.068  14.459 -0.4419  0.0775  0.1607
 2411W        W17542   2.356   9.326   0.702 -0.1837  0.1212 -0.0780
 2412W        W17543   2.958   0.626  13.513  0.2941 -0.0679  0.1586
 2413W        W17544   4.399  17.717   5.819 -0.0781  0.2930  0.0524
 2414W        W17545   8.606   3.476  15.912  0.0169  0.1217 -0.1037
 2415W        W17546   0.129  10.725  14.202  0.0943  0.0511  0.0553
 2416W        W17547   1.542   8.933   1.194  0.3128 -0.4456  0.0882
 2417W        W17548   1.580  13.513   3.897 -0.1148 -0.2817  0.3451
 2418W        W17549   4.448   4.563   2.633  0.0433 -0.0736 -0.0690
 2419W        W17550   6.837  16.536  14.102 -0.2613  0.2287  0.0515
 2420W        W17551   6.062  13.794   0.791  0.0487 -0.0124 -0.0965
 2421W        W17552   6.665   7.341   2.810  0.0986 -0.1385 -0.0162
 2422W        W17553  12.279   9.160   0.643 -0.1077 -0.1237 -0.0653
 2423W        W17554  14.151   5.105  14.508  0.0165 -0.1151  0.1065
 2424W        W17555  10.106   2.780   2.382 -0.2020  0.2782  0.1982
 2425W        W17556   7.749  17.244  11.123  0.1420 -0.0185 -0.0589
 2426W        W17557   6.619   3.254  14.064  0.2332  0.2802 -0.0023
 2427W        W17558  11.036  15.655  15.111  0.0046 -0.0407  0.2947
 2428W        W17559   9.323   5.197  15.170  0.0131 -0.3867  0.2705
 2429W        W17560  10.738   6.974   0.432  0.0156 -0.1516  0.0702
 2430W        W17561   3.715  10.465   0.831 -0.3352 -0.1580  0.0875
 2431W        W17562   6.631   2.643   1.347 -0.3102 -0.1567 -0.0945
 2432W        W17563   3.939   1.964  14.493 -0.0174  0.0444  0.3264
 2433W        W17564  12.748  14.869   1.889 -0.0432 -0.1527 -0.1399
 2434W        W17565   5.203  16.516   4.019  0.2716  0.5818 -0.3795
 2435W        W17566  16.997  16.375   3.300 -0.1272 -0.1093 -0.1606
 2436W        W17567  13.399  14.727   2.461  0.0628  0.3362 -0.2062
 2437W        W17568  15.449   9.621   0.099  0.1101 -0.0867  0.1177
 2438W        W17569  12.208   0.350   4.593  0.0972 -0.0454 -0.2624
 2439W        W17570  11.560  10.021   3.416 -0.2637  0.0941  0.0412
 2440W        W17571  17.994   8.341  13.976  0.1537  0.1239 -0.4210
 2441W        W17572  15.336   9.895  10.848 -0.0794 -0.1686 -0.3943
 2442W        W17573  13.894  18.111  11.974 -0.2993  0.2705  0.2560
 2443W        W17574  13.182  12.262  14.632  0.1063 -0.0782 -0.0165
 2444W        W17575  12.468   7.974  15.608  0.1427 -0.1363 -0.2854
 2445W        W17576  12.372   4.777   0.606 -0.0579 -0.0995  0.1306
 2446W        W17577   2.395   9.536   1.149  0.1621  0.4029 -0.1010
 2447W        W17578   7.313   9.670   2.707 -0.2159  0.4440  0.0656
 2448W        W17579   2.734   7.633  12.173  0.0057 -0.1363  0.1830
 2449W        W17580  17.696   7.402   2.762  0.2421  0.3542  0.0051
 2450W        W17581   4.748   4.898   1.681 -0.1433 -0.2296 -0.1708
 2451W        W17582   2.078  11.066   4.840 -0.0097  0.1107 -0.0154
 2452W        W17583  11.479   3.388  14.855 -0.1824  0.1107 -0.0467
 2453W        W17584   1.200  10.117  11.272  0.1027 -0.3036 -0.4711
 2454W        W17585   4.521  17.350   0.818 -0.2588 -0.0825 -0.2191
 2455W        W17586   3.711  15.898   2.446 -0.3158 -0.3740 -0.0794
 2456W        W17587  17.802  17.758   1.623 -0.2546 -0.0718 -0.0184
 2457W        W17588   4.683   5.904   3.359  0.0019  0.2476  0.0224
 2458W        W17589  11.211  12.244  11.392 -0.3075  0.1494 -0.0037
 2459W        W17590   0.877  12.509   6.266 -0.0644 -0.0867 -0.2288
 2460W        W17591   4.642  16.332  12.830  0.2783 -0.2506 -0.1658
 2461W        W17592  14.614   1.132   2.648 -0.4937 -0.1776  0.1607
 2462W        W17593   0.915   8.770   1.961  0.0339  0.0581 -0.2277
 2463W        W17594  11.466  13.175  14.241 -0.2909 -0.0689  0.0275
 2464W        W17595  16.944  10.227   4.442  0.0843 -0.4013  0.2837
 2465W        W17596   4.103   6.464   3.534  0.1471 -0.1923 -0.1486
 2466W        W17597  12.803   1.623  15.280 -0.1040  0.3437 -0.1133
 2467W        W17598  13.887   6.318   0.105  0.0083 -0.1388 -0.2536
 2468W        W17599  17.395   3.254   0.836 -0.0707  0.1037  0.2479
 2469W        W17600   8.327  17.946   5.377  0.1161  0.2341  0.0194
 2470W        W17601   2.462   1.623  13.585 -0.1179 -0.1116 -0.2438
 2471W        W17602   7.308   2.598   4.317  0.1109  0.3274  0.2420
 2472W        W17603   9.515   2.648   0.535  0.2425 -0.1077  0.3642
 2473W        W17604  16.656   6.485  14.106 -0.0772  0.1137 -0.2858
 2474W        W17605  14.199   2.815   0.585 -0.1402  0.1371 -0.0357
 2475W        W17606   7.791   7.229  14.044  0.0473  0.1013  0.1779
 2476W        W17607   4.214   2.343  14.591  0.2097 -0.2568  0.1964
 2477W        W17608   1.665  13.748   5.139 -0.0689  0.1300 -0.1183
 2478W        W17609  14.626   3.147  12.965 -0.3389  0.0334  0.1306
 2479W        W17610  14.038   4.516  15.916 -0.3823 -0.2977  0.1613
 2480W        W17611  17.183  14.275  13.090 -0.3208  0.0229  0.0879
 2481W        W17612  17.584  16.764   1.745  0.2260 -0.0512  0.2700
 2482W        W17613   0.461  14.322   2.552 -0.0492 -0.3069 -0.1833
 2483W        W17614   9.011   3.064   1.370 -0.1307  0.1952  0.0485
 2484W        W17615  10.004  17.016   5.176 -0.0331 -0.0728  0.0376
 2485W        W17616   3.942  15.347  10.461  0.0395 -0.1497 -0.1052
 2486W        W17617  17.336  11.688   3.513  0.1879  0.0557  0.1677
 2487W        W17618   2.242  15.237  12.481  0.0472  0.3044  0.1481
 2488W        W17619  18.015   9.421   0.061 -0.2390 -0.2261  0.0092
 2489W        W17620   5.138  13.339   0.814  0.0645 -0.1815  0.2708
 2490W        W17621   1.373   5.310   4.832 -0.0716 -0.1297 -0.1237
 2491W        W17622   7.243  10.579   1.343  0.1698  0.1647  0.0332
 2492W        W17623  15.687   4.455  12.899  0.0965 -0.0916 -0.0342
 2493W        W17624  11.560  14.867  12.204 -0.1205 -0.1598  0.0504
 2494W        W17625  12.445  14.057  10.766 -0.4986 -0.2114  0.1234
 2495W        W17626   4.818   4.420  13.771  0.2319  0.0215  0.0977
 2496W        W17627   1.681  11.354   0.517  0.1001  0.0219 -0.1160
 2497W        W17628   3.705   7.777  13.148 -0.0177  0.0288 -0.0082
 2498W        W17629  10.060  17.813   5.624 -0.0945  0.1240 -0.0755
 2499W        W17630   5.282   0.288   1.335  0.3950 -0.2317 -0.1110
 2500W        W17631  11.125   4.659  15.400  0.1147  0.1115  0.1863
 2501W        W17632  16.384  14.762  12.083  0.3627  0.2772  0.0586
 2502W        W17633  11.439  14.957   4.122 -0.4332  0.0934  0.0302
 2503W        W17634  12.419   3.851   5.086 -0.1750  0.2236 -0.2406
 2504W        W17635   0.991   8.377  13.553  0.1928  0.1854 -0.0273
 2505W        W17636   4.776  14.275   3.400 -0.1633  0.4341  0.1188
 2506W        W17637  16.527   3.348   5.273  0.3080  0.1205  0.4048
 2507W        W17638  13.449   6.008   1.617 -0.1391  0.0989  0.0503
 2508W        W17639   0.494   3.125   4.143  0.1026  0.1177  0.1863
 2509W        W17640   3.392   1.815   0.442 -0.1285  0.1705 -0.1866
 2510W        W17641   7.947  12.043  11.651  0.1643 -0.1625 -0.2384
 2511W        W17642  11.543   8.835  12.901  0.0558 -0.2654 -0.1627
 2512W        W17643   2.467   2.255   4.303 -0.0906 -0.1269  0.2074
 2513W        W17644  13.058  17.101  15.379  0.2301 -0.3443  0.1562
 2514W        W17645  13.270  10.647   2.612  0.3575  0.3224  0.2180
 2515W        W17646  12.692   1.391  13.731 -0.1313 -0.1507 -0.0674
 2516W        W17647   7.521  11.345  12.018 -0.0449 -0.0797  0.1752
 2517W        W17648   5.079  16.216  13.199  0.0960  0.0088 -0.1787
 2518W        W17649   0.557   5.475   4.013 -0.1698 -0.1534 -0.2055
 2519W        W17650   3.173   7.115   1.869 -0.2290  0.3131 -0.0333
 2520W        W17651  15.715   8.653   4.620 -0.2167 -0.0401 -0.0387
 2521W        W17652   8.383  12.755  14.066 -0.0918  0.2393  0.1915
 2522W        W17653  11.726   5.553  15.139  0.0113 -0.2061 -0.2167
 2523W        W17654  10.064  17.285  11.933  0.0557  0.0569 -0.0675
 2524W        W17655   2.417  18.214  10.349 -0.1641 -0.1389 -0.0123
 2525W        W17656  17.531   4.059  10.857 -0.0009  0.1661 -0.0978
 2526W        W17657   8.752   4.390   5.195  0.1526  0.0063  0.2196
 2527W        W17658   1.660   5.650   5.105  0.2702 -0.0200  0.1438
 2528W        W17659  16.200  16.787  11.405  0.2518 -0.2764  0.1012
 2529W        W17660   6.929   4.154  12.913 -0.1204 -0.3348  0.2149
 2530W        W17661   1.326   0.409   4.082  0.2019 -0.2580  0.0539
 2531W        W17662   1.043  10.492   2.291  0.3811  0.0882 -0.0642
 2532W        W17663  13.349  13.672  15.778 -0.2061 -0.2526  0.1237
 2533W        W17664   4.834  16.981   2.089  0.1916  0.0090  0.2395
 2534W        W17665   1.926   7.055  12.922 -0.3100  0.4755 -0.0196
 2535W        W17666   3.350  14.236   5.439  0.2229  0.1596 -0.3165
 2536W        W17667  10.920   4.920  11.147  0.0228 -0.3220  0.0539
 2537W        W17668   4.817  14.869  15.475  0.0239  0.1661  0.0110
 2538W        W17669  12.552   8.951   1.998 -0.2165 -0.1499  0.1656
 2539W        W17670   1.439  18.165  13.051  0.0524  0.0313  0.1749
 2540W        W17671  12.728   1.407   0.381 -0.1922 -0.1609 -0.1733
 2541W        W17672   4.061   0.837   1.939  0.1557 -0.1625 -0.0327
 2542W        W17673   5.825   5.323   4.870  0.0277  0.0986 -0.1462
 2543W        W17674  13.893   2.398   1.471 -0.1618 -0.0255 -0.3233
 2544W        W17675  11.184   1.423   0.110  0.2021  0.2694 -0.1588
 2545W        W17676  17.003  12.824   5.036 -0.2263  0.1273  0.0695
 2546W        W17677  15.886  15.117   5.069 -0.0108  0.0785  0.3358
 2547W        W17678  12.271  16.804  11.790  0.0437  0.0347  0.2618
 2548W        W17679   4.792   5.740   2.865  0.2186 -0.0080  0.2257
 2549W        W17680  12.563   6.279   0.366 -0.0056 -0.0403 -0.0814
 2550W        W17681   8.119  17.176   4.984 -0.0720  0.2115 -0.1210
 2551W        W17682   4.009   2.707  14.920 -0.0819 -0.0457  0.0949
 2552W        W17683   0.932   4.402   1.214 -0.0164 -0.0432 -0.2747
 2553W        W17684   7.832  14.372  12.327 -0.1318 -0.2613 -0.2083
 2554W        W17685   7.519   6.695   4.377  0.2210 -0.0168  0.1701
 2555W        W17686  16.542   2.950  13.912  0.0565 -0.3483 -0.3693
 2556W        W17687   0.324  14.009   5.419  0.0673 -0.4167  0.0643
 2557W        W17688   1.286   3.429   2.458  0.0571  0.0346 -0.0579
 2558W        W17689   2.054   3.672   1.463 -0.1286 -0.0201 -0.0159
 2559W        W17690  15.992   4.910   0.257  0.2314  0.2058  0.0273
 2560W        W17691   8.333   8.886  12.396  0.1095 -0.0344  0.1045
 2561W        W17692   2.572  17.979   4.388  0.2673  0.0654 -0.1008
 2562W        W17693   0.907  12.970  14.151  0.3277 -0.1913  0.1624
 2563W        W17694   0.030   7.714   0.155  0.1257 -0.0760  0.1220
 2564W        W17695  15.557  10.405  14.105 -0.0173  0.1531 -0.2379
 2565W        W17696  10.808  17.208   1.603 -0.0581  0.0627 -0.2684
 2566W        W17697  12.006  12.149  15.443  0.1825  0.3054  0.0258
 2567W        W17698   8.530   9.367   4.340 -0.1053 -0.1498  0.1023
 2568W        W17699   0.412  16.469  11.325 -0.0854 -0.4144 -0.0344
 2569W        W17700   0.188   7.324   3.468 -0.0238 -0.0890 -0.1377
 2570W        W17701  16.847   2.522   5.569 -0.0806 -0.2983 -0.3135
 2571W        W17702   6.205   1.263  11.570  0.0022 -0.1292  0.2168
 2572W        W17703   5.021  15.052   5.193 -0.2874 -0.0270  0.1705
 2573W        W17704   1.851  17.412   1.614  0.2191 -0.1864  0.1157
 2574W        W17705   5.678   7.034   3.338  0.1642 -0.0096 -0.0684
 2575W        W17706  11.306   1.311  13.976  0.0632 -0.1097 -0.0398
 2576W        W17707   4.227   9.259  15.918 -0.0395  0.0495 -0.2603
 2577W        W17708   9.788  17.467   0.120 -0.0845 -0.0102  0.1287
 2578W        W17709  10.651   5.034   1.240 -0.4149  0.2710  0.3360
 2579W        W17710   1.186   7.397   0.529 -0.0367 -0.2678 -0.2762
 2580W        W17711   6.017   2.868  15.729  0.1778  0.1704  0.4045
 2581W        W17712   7.056  14.202  14.310  0.0828  0.0242 -0.1121
 2582W        W17713   1.257   9.673  13.678 -0.1537  0.1011  0.0658
 2583W        W17714  16.609  11.361  14.094 -0.2172 -0.2298  0.1189
 2584W        W17715  13.373  14.049   3.826 -0.1259 -0.1157  0.1690
 2585W        W17716   0.366   0.173   5.013  0.1614 -0.0025  0.1218
 2586W        W17717  11.013   8.209   1.737  0.1763 -0.1183 -0.3558
 2587W        W17718   2.849  11.846   2.747 -0.3483 -0.0274  0.0091
 2588W        W17719   2.534  10.340   0.812 -0.0411  0.1071 -0.1236
 2589W        W17720  15.711   7.478   3.125  0.2124 -0.3005  0.1442
 2590W        W17721   4.411  14.456  11.625  0.3039 -0.0541  0.0841
 2591W        W17722   2.071  16.729  13.153  0.0690 -0.1912  0.1276
 2592W        W17723  16.229   5.406   2.098 -0.0153  0.0439  0.1229
 2593W        W17724  13.882  16.661   2.393 -0.0854 -0.0380  0.2995
 2594W        W17725  12.504   6.309  14.691  0.0608 -0.0810  0.3041
 2595W        W17726   1.888  13.140  15.309 -0.0591 -0.0988  0.0012
 2596W        W17727   7.709  17.404   4.421  0.0688  0.1124  0.3313
 2597W        W17728  17.056  15.664  12.375 -0.4499  0.1792 -0.0910
 2598W        W17729  10.432   3.517  11.269  0.1018  0.1043 -0.1404
 2599W        W17730  17.801  14.290   2.976 -0.1686  0.0059  0.1044
 2600W        W17731  10.097   4.935  15.970  0.0229  0.1146 -0.3848
 2601W        W17732   2.365   7.331   2.150 -0.1291  0.0217 -0.1604
 2602W        W17733  11.506  13.006   4.513 -0.1014 -0.1756 -0.0589
 2603W        W17734   2.649   7.448   2.539  0.2048 -0.1061  0.2208
 2604W        W17735   2.343  13.600  10.607  0.0295  0.3481 -0.1043
 2605W        W17736   1.934  14.665   2.664  0.0698 -0.1918  0.0164
 2606W        W17737  14.322   2.320   5.974 -0.2103  0.1114  0.2086
 2607W        W17738  18.109  14.372  12.860 -0.0558 -0.0723 -0.1848
 2608W        W17739  16.318   0.072  12.708  0.0539 -0.2467  0.1644
 2609W        W17740  10.527   3.601   0.815 -0.1686 -0.1458 -0.0178
 2610W        W17741   9.057   7.334  11.742  0.0584  0.1536 -0.1444
 2611W        W17742   3.972   9.931   1.818  0.1140 -0.1986  0.0265
 2612W        W17743  13.036   5.150   3.430  0.0457 -0.0759 -0.3115
 2613W        W17744  16.426  13.156  10.865  0.0590  0.1254  0.3486
 2614W        W17745  13.711  17.628   5.501  0.0204 -0.0837  0.2368
 2615W        W17746   0.286   6.979   1.435  0.2760  0.0395 -0.1304
 2616W        W17747   6.916   8.618   1.198 -0.2525 -0.1698 -0.1363
 2617W        W17748  17.475   8.355  13.182 -0.0281  0.0472  0.2230
 2618W        W17749   1.937   9.926   0.176  0.1454  0.1467 -0.1023
 2619W        W17750   7.508   6.932  12.066  0.2076 -0.1832  0.1633
 2620W        W17751  14.346   8.896   1.099  0.1176 -0.2503  0.1780
 2621W        W17752  16.037   1.310   4.750 -0.1755 -0.1031 -0.0992
 2622W        W17753  16.498  12.358   4.937  0.3157 -0.1385  0.3068
 2623W        W17754  11.293   9.197   2.744  0.4078 -0.1205 -0.1135
 2624W        W17755   5.974  13.831   3.395 -0.1974  0.1280 -0.1406
 2625W        W17756   0.603   8.500   5.321 -0.1162 -0.0661 -0.1168
 2626W        W17757  15.886   9.454  16.023  0.0602 -0.0706 -0.0560
 2627W        W17758  18.173   2.493  10.365  0.1468 -0.2062  0.0626
 2628W        W17759  10.418   9.803  15.004  0.3725 -0.0866  0.4555
 2629W        W17760   3.110  14.768   1.034 -0.2283  0.0766  0.1791
 2630W        W17761  15.081  11.944   0.054 -0.0536  0.2002 -0.0092
 2631W        W17762   9.546   6.086  14.282  0.0208 -0.2438 -0.0650
 2632W        W17763   8.397   1.580   2.756  0.1912  0.1431  0.3595
 2633W        W17764   5.765  15.717   4.450 -0.2029 -0.0240 -0.2370
 2634W        W17765  16.147  11.853  14.410  0.0787  0.2629 -0.3148
 2635W        W17766   2.154  13.859   4.505  0.0758 -0.1143 -0.0450
 2636W        W17767  14.572   4.328   0.076  0.1190 -0.3189 -0.2442
 2637W        W17768   1.183  13.183  14.579  0.2672 -0.5184 -0.0212
 2638W        W17769  12.539   1.255   0.829  0.1154  0.0653 -0.0280
 2639W        W17770   8.728   5.941  14.743  0.2008  0.0441 -0.0501
 2640W        W17771  15.622  14.254   5.081  0.0089 -0.1043 -0.0320
 2641W        W17772   6.123   3.360   3.690  0.4636  0.1342  0.0689
 2642W        W17773   7.060   1.302  11.998 -0.0064 -0.3919 -0.0828
 2643W        W17774   0.299   3.723   5.167 -0.0255  0.2384  0.3127
 2644W        W17775   5.812  10.008   1.170 -0.0286 -0.1018 -0.1231
 2645W        W17776  11.055   0.110  13.344  0.0835  0.1320  0.2233
 2646W        W17777   6.460  10.150   5.746  0.2173  0.0076  0.2002
 2647W        W17778  12.477   7.579   1.438  0.0157  0.4535  0.2410
 2648W        W17779   6.593   7.955  13.494 -0.0534 -0.2870  0.1588
 2649W        W17780   3.222   0.397  13.894 -0.0929 -0.0759  0.0174
 2650W        W17781  15.717  10.763   0.300 -0.1739 -0.1042  0.0283
 2651W        W17782   2.682  14.614   0.728  0.1714 -0.0671  0.2793
 2652W        W17783  13.405   4.858   4.127  0.1212  0.2544  0.1043
 2653W        W17784   1.305   7.485  11.645 -0.0461 -0.1541  0.0606
 2654W        W17785  18.268   6.636   1.652  0.0961 -0.0834  0.2657
 2655W        W17786  14.347  14.729  11.639 -0.2401 -0.2991  0.1524
 2656W        W17787   6.112   8.616   3.995  0.2409  0.1522  0.1649
 2657W        W17788  11.956   9.224   4.065 -0.0425 -0.0088  0.1334
 2658W        W17789   2.594  14.482   2.429 -0.0162 -0.2497 -0.1370
 2659W        W17790  15.304   5.955  14.540 -0.0240 -0.0900  0.0982
 2660W        W17791  16.307   6.564  12.088  0.4045 -0.0914 -0.3192
 2661W        W17792   8.294   7.216   3.416  0.1367 -0.3265 -0.0505
 2662W        W17793   8.674  17.683   4.310 -0.0279 -0.4140  0.1095
 2663W        W17794  17.500  12.761  13.247 -0.1667  0.0422 -0.0811
 2664W        W17795  10.668  11.947  15.263 -0.0170 -0.3371  0.1318
 2665W        W17796   8.790   2.001  15.599  0.2399  0.0018  0.0517
 2666W        W17797  13.074   9.390  15.699 -0.1738 -0.1768 -0.0513
 2667W        W17798   2.844  13.073   4.356  0.1731 -0.0208 -0.3762
 2668W        W17799   6.436   6.171  12.471  0.3761  0.1552  0.1889
 2669W        W17800   5.364   4.381   1.762  0.1516  0.1325  0.0863
 2670W        W17801  11.537   5.307   0.765  0.1978  0.1647  0.2585
 2671W        W17802  10.768   5.644  15.939 -0.1130  0.0653 -0.0712
 2672W        W17803  13.466   2.498   1.178  0.1880 -0.1150  0.0197
 2673W        W17804  12.914  16.989   2.533  0.0026 -0.1309 -0.2916
 2674W        W17805   7.660  15.386  10.868  0.0400 -0.1354 -0.1190
 2675W        W17806   8.958   4.715  13.462 -0.0114 -0.0561  0.1108
 2676W        W17807  17.677  11.138  15.879 -0.1380  0.3661 -0.0433
 2677W        W17808  14.446   9.225  15.140 -0.1163  0.1950  0.1100
 2678W        W17809   5.579  12.040   1.352  0.1815 -0.0138  0.0093
 2679W        W17810   3.509   6.983   3.308  0.1426 -0.2987  0.0692
 2680W        W17811   2.250   1.374  14.344 -0.0880  0.2742  0.0649
 2681W        W17812   5.906  11.772  15.007  0.2730 -0.0326 -0.1031
 2682W        W17813   9.683   4.546   2.123  0.0643 -0.3214 -0.0319
 2683W        W17814   8.113  13.508  11.661 -0.2474 -0.0791  0.2312
 2684W        W17815   0.736  13.784  13.346  0.0758 -0.0397 -0.1381
 2685W        W17816   4.888  15.857  15.490  0.3308 -0.2335 -0.0910
 2686W        W17817   7.658   9.913  14.213  0.0881 -0.0102 -0.0576
 2687W        W17818   8.819   9.773  15.695  0.5246 -0.2619  0.0001
 2688W        W17819  13.225   7.322   9.708  0.2538 -0.0734 -0.2944
 2689W        W17820  12.399   7.832   5.005  0.2475  0.0226 -0.3395
 2690W        W17821  17.230   9.645   3.693  0.0474 -0.3376  0.0482
 2691W        W17822  17.019  13.163  10.957 -0.1183  0.0468 -0.2467
 2692W        W17823   3.794   0.059   1.400  0.0099  0.0829  0.3338
 2693W        W17824  11.177  16.045  10.612  0.1059  0.1856  0.2966
 2694W        W17825   6.838   5.443  10.852 -0.0587  0.1497  0.1555
 2695W        W17826   4.595   0.019   3.476  0.1815  0.0569 -0.2465
 2696W        W17827  13.297   4.245  13.562  0.2042  0.0746  0.1346
 2697W        W17828  12.973   2.383   5.332 -0.0881  0.1160 -0.0677
 2698W        W17829  13.946   4.752  14.160  0.2418 -0.2540 -0.0784
 2699W        W17830   5.985   3.127  10.707  0.1650 -0.2048 -0.1138
 2700W        W17831  17.183   5.108   2.175  0.0217 -0.3216 -0.1048
 2701W        W17832  14.466   2.750  14.162  0.0499  0.0723  0.4543
 2702W        W17833  11.367   3.878   2.472 -0.0968 -0.1592  0.0599
 2703W        W17834   2.165   1.447   6.098 -0.4679 -0.1335  0.5799
 2704W        W17835   3.882  12.213   3.897 -0.0378  0.3935  0.0568
 2705W        W17836   9.717   9.329   2.381  0.0760 -0.4569  0.0378
 2706W        W17837   3.803  17.277  15.849  0.2041  0.1879  0.0819
 2707W        W17838   0.099   3.539   1.723  0.0773  0.0465  0.0557
 2708W        W17839  12.258   9.976   3.193 -0.0725 -0.3123  0.1185
 2709W        W17840   0.678  14.884   0.451  0.2173 -0.1927  0.1310
 2710W        W17841   0.918   3.045  14.618  0.3959 -0.3276 -0.0034
 2711W        W17842   8.542   2.207  15.186  0.3717 -0.4021  0.2243
 2712W        W17843   8.532  16.203  14.074 -0.2315  0.1701  0.1174
 2713W        W17844   9.892   4.758  13.750 -0.0384  0.1298  0.2031
 2714W        W17845  11.869   3.096   9.753  0.1990 -0.3140 -0.0001
 2715W        W17846  12.568   8.828  15.288  0.0032 -0.0214 -0.1486
 2716W        W17847   8.458   4.282  13.980  0.2801 -0.1135 -0.1821
 2717W        W17848  14.627   3.687   1.875 -0.0272 -0.1488  0.1712
 2718W        W17849  18.061  17.142   3.029 -0.2589  0.2284 -0.2405
 2719W        W17850   6.298   0.636  15.278 -0.1079 -0.1450  0.1713
 2720W        W17851  10.566  17.048  12.695 -0.0532 -0.2382 -0.0517
 2721W        W17852  15.735   3.845  15.276  0.1020 -0.0014 -0.1557
 2722W        W17853  14.929  11.606  14.920  0.2577  0.0534 -0.3677
 2723W        W17854  15.298  10.997  14.605  0.5185  0.2855  0.0050
 2724W        W17855  17.368  10.710   1.885  0.2830  0.0950 -0.2078
 2725W        W17856   4.813  12.476  15.211  0.1362 -0.2810 -0.0465
 2726W        W17857   2.494  15.574   0.508 -0.0339  0.0504 -0.1444
 2727W        W17858  16.165   8.045  11.143 -0.1613 -0.0147 -0.1241
 2728W        W17859   8.729   5.075  13.117 -0.2115 -0.0543  0.0347
 2729W        W17860   5.302   2.183   0.627  0.3742 -0.0172  0.1810
 2730W        W17861   2.414  10.901   1.843 -0.1891 -0.0685 -0.0200
 2731W        W17862   8.940  14.304   2.830  0.1055  0.0331  0.0324
 2732W        W17863   0.752  10.580  11.513  0.1272 -0.0249  0.0344
 2733W        W17864   4.596   5.637  11.884 -0.0810  0.1279 -0.3750
 2734W        W17865   0.730  12.443  11.477  0.0106  0.3024  0.0960
 2735W        W17866   3.881  14.176  14.449  0.1368 -0.2364  0.0548
 2736W        W17867  11.339  16.577   1.466  0.0000  0.0342  0.3903
 2737W        W17868   0.677  14.399  12.382 -0.1860 -0.1713 -0.2787
 2738W        W17869   0.326  13.382  12.976  0.0973  0.2300 -0.0165
 2739W        W17870   9.395   6.888  13.819 -0.2389 -0.1339  0.2043
 2740W        W17871   6.249   4.368   3.543 -0.0473 -0.3829  0.2499
 2741W        W17872  12.270  18.136  12.322  0.2073  0.2443  0.3637
 2742W        W17873   7.582   5.112  13.049 -0.0957  0.1416 -0.0894
 2743W        W17874   2.019  13.974  15.679 -0.1792  0.0170  0.0736
 2744W        W17875  11.086   2.817  15.990  0.1996  0.0215 -0.2621
 2745W        W17876  16.828   1.055  13.240  0.0140  0.2587  0.1148
 2746W        W17877  13.035   2.808   0.352  0.3025 -0.3787  0.0457
 2747W        W17878  17.981   3.390   1.568  0.0281 -0.2437  0.1675
 2748W        W17879  16.497   9.235  11.203 -0.0687  0.1228 -0.2052
 2749W        W17880  12.443   7.812  11.397 -0.0001  0.0334 -0.0878
 2750W        W17881   8.343  13.779   0.364 -0.0079  0.1541 -0.1243
 2751W        W17882  17.294   1.907  13.353  0.0024 -0.3565 -0.2098
 2752W        W17883   5.536  12.920  12.039 -0.0021  0.1099  0.2965
 2753W        W17884   9.237  15.554  16.081  0.1622  0.0193 -0.0125
 2754W        W17885   5.348   2.577   4.190 -0.1970  0.0194  0.0487
 2755W        W17886   7.642   6.249   4.820  0.1575 -0.0968 -0.1183
 2756W        W17887  12.779   9.100   4.382  0.0863  0.0624  0.1538
 2757W        W17888   4.283   5.129   3.872  0.1738 -0.2058  0.1253
 2758W        W17889   5.201   7.323   2.501  0.2890  0.0355  0.1819
 2759W        W17890  10.257  17.162   2.182  0.0344 -0.0010 -0.2655
 2760W        W17891  13.893  15.074  14.493 -0.4173  0.0308  0.2241
 2761W        W17892  12.645  16.281  11.813  0.2647 -0.1096 -0.1364
 2762W        W17893   4.424  17.398  13.630  0.0593 -0.1416 -0.0067
 2763W        W17894   8.924  11.052   2.352  0.2515  0.0905 -0.2200
 2764W        W17895  12.345   9.281  12.328  0.2808  0.2044  0.2253
 2765W        W17896   9.304  16.822   3.539  0.2278  0.0596 -0.3123
 2766W        W17897   2.313   8.673   2.262  0.0270  0.0526 -0.0050
 2767W        W17898   6.012   2.815  15.196  0.1288  0.1194  0.1995
 2768W        W17899   2.167   8.709  12.392 -0.1758  0.2705 -0.0513
 2769W        W17900   1.158   7.071   0.875  0.0856  0.1158  0.0284
 2770W        W17901   5.131  10.954  11.923 -0.2573 -0.0417 -0.5313
 2771W        W17902   3.422  17.936  14.282 -0.1528 -0.2477  0.1129
 2772W        W17903  15.891   6.704  13.435 -0.1010 -0.0674  0.2210
 2773W        W17904  11.630   5.789  15.823  0.0184 -0.1327  0.1730
 2774W        W17905   2.124   2.496   4.984  0.0558 -0.1990  0.0174
 2775W        W17906   8.768   5.018  14.850 -0.2353 -0.2501  0.3322
 2776W        W17907  18.183   7.493  13.690 -0.2803  0.1208 -0.5061
 2777W        W17908   7.576   3.354  11.077 -0.0210 -0.2460  0.1858
 2778W        W17909  13.794  15.340  12.429 -0.2110 -0.0899  0.0052
 2779W        W17910   0.122   9.645  15.744  0.1282 -0.1924  0.0349
 2780W        W17911  14.803  11.524  12.280 -0.2737 -0.4209 -0.1635
 2781W        W17912  16.955  17.179  12.836 -0.0315 -0.2274  0.0211
 2782W        W17913  14.714  18.311   3.898 -0.1283 -0.1061 -0.1422
 2783W        W17914  14.568  12.027   5.080 -0.3165  0.1331 -0.1766
 2784W        W17915  10.663   0.638  15.693  0.0115 -0.1706 -0.1652
 2785W        W17916   7.272   8.865  10.632 -0.3067  0.1621 -0.1787
 2786W        W17917   9.242   8.258   4.205 -0.5329 -0.0377 -0.1166
 2787W        W17918   3.278   1.252   2.085 -0.0987  0.1750 -0.6690
 2788W        W17919  10.701  13.639  13.082 -0.1641  0.1516  0.1269
 2789W        W17920   3.939  12.683   3.613  0.2684  0.1690  0.1979
 2790W        W17921  12.771   3.073  11.638 -0.0159 -0.1871 -0.0448
 2791W        W17922  10.896  12.319  13.557  0.3517  0.0168  0.1747
 2792W        W17923  12.410   0.501  10.547  0.3323  0.0956  0.0781
 2793W        W17924  14.149   5.016   4.849 -0.1125  0.4547  0.3421
 2794W        W17925  10.685   7.891   1.850  0.0696 -0.1172 -0.1920
 2795W        W17926   2.930   6.542   5.721  0.0714  0.0478 -0.2601
 2796W        W17927   8.121   5.840  12.172 -0.1495  0.1971 -0.0472
 2797W        W17928   4.641   6.774   4.313  0.0863 -0.1498 -0.0376
 2798W        W17929  12.086   9.526   1.911  0.1131 -0.1080  0.1706
 2799W        W17930  18.211   8.031   0.668  0.1681  0.3184  0.1655
 2800W        W17931   1.661   0.734   4.818 -0.1616 -0.0637  0.0572
 2801W        W17932  14.154   1.138   2.944 -0.1715 -0.0927  0.0514
 2802W        W17933   7.874  15.976   0.861 -0.0481 -0.0372  0.3822
 2803W        W17934   5.578   9.430   2.885 -0.2193  0.0319 -0.0248
 2804W        W17935   0.812   8.997   5.800 -0.0271  0.1460 -0.1593
 2805W        W17936   8.497  17.908   0.240 -0.1081 -0.1811  0.1327
 2806W        W17937   9.700   1.399   0.599  0.2143  0.0633  0.2142
 2807W        W17938   2.500  14.234  16.012 -0.1948 -0.1029  0.3711
 2808W        W17939  16.010   0.241  12.283 -0.0915 -0.1905  0.0280
 2809W        W17940   3.819   8.871  11.406  0.1369  0.1596  0.0593
 2810W        W17941  16.193   8.937   4.465  0.2615 -0.3402 -0.3633
 2811W        W17942   7.919  13.043   3.584  0.1732 -0.0982 -0.2256
 2812W        W17943  17.893   2.695   2.259  0.3340  0.0411 -0.1089
 2813W        W17944   4.510  15.007   5.289  0.0878  0.2518  0.1244
 2814W        W17945   1.493   1.166   1.987 -0.1124 -0.0039  0.2590
 2815W        W17946  10.973  13.540  12.546  0.1836  0.0960  0.1477
 2816W        W17947   3.645  13.577   3.830 -0.0437  0.2118 -0.3158
 2817W        W17948  13.286  12.194   0.309 -0.1424  0.1744 -0.3698
 2818W        W17949   0.862  17.686   5.549  0.1169 -0.2111  0.0562
 2819W        W17950   2.454   2.276  15.628 -0.0160 -0.2143  0.0857
 2820W        W17951   8.711  17.375   5.139  0.0152 -0.2266 -0.0818
 2821W        W17952  12.868   1.561  12.040  0.1462  0.2631 -0.0308
 2822W        W17953   9.502   6.262   3.179  0.0697 -0.1084  0.1275
 2823W        W17954   5.211  12.284  14.745 -0.1316 -0.1301  0.0045
 2824W        W17955  17.236  17.286  15.656  0.2079 -0.0360  0.0180
 2825W        W17956  10.120  10.271  10.375 -0.0388  0.0627  0.0591
 2826W        W17957  10.541   4.928  13.351  0.3231 -0.0974 -0.1586
 2827W        W17958   5.938  15.778   5.832  0.2602  0.0052  0.1578
 2828W        W17959   3.538  12.961   2.753 -0.2101 -0.1764 -0.1601
 2829W        W17960   4.705  11.142   3.373 -0.1947  0.3269 -0.2300
 2830W        W17961   4.887   0.967   2.950  0.3425 -0.0251 -0.1744
 2831W        W17962  17.480  12.421  15.481 -0.0171 -0.0824  0.1098
 2832W        W17963  17.096  11.253   1.668 -0.0970  0.1375 -0.3806
 2833W        W17964   3.458   5.577   5.837  0.1756 -0.1124 -0.1421
 2834W        W17965   8.947  17.371  15.124  0.0015 -0.2101  0.1694
 2835W        W17966   2.825  10.732   3.631  0.2530 -0.1319 -0.1849
 2836W        W17967   5.781   0.765  13.530 -0.0223 -0.3340 -0.0492
 2837W        W17968   6.608  10.651   2.041 -0.0232 -0.0259  0.0456
 2838W        W17969  17.233   7.871   0.723 -0.1854 -0.0351  0.2683
 2839W        W17970   2.680   8.703   3.743 -0.0424  0.0995 -0.3711
 2840W        W17971  16.345  11.489   2.876  0.1695  0.1526 -0.0362
 2841W        W17972  14.903  17.761  14.859 -0.1727  0.1848  0.1323
 2842W        W17973   0.616   6.073   4.056 -0.0592  0.1206 -0.0700
 2843W        W17974  14.696   4.741  12.748  0.2431 -0.2636 -0.0120
 2844W        W17975   1.931   9.118   3.926 -0.0293  0.1592 -0.3217
 2845W        W17976  17.796  17.447  13.324  0.0493  0.1481  0.2599
 2846W        W17977   2.257   8.515  13.272  0.1004  0.0188  0.1668
 2847W        W17978  16.646  15.343  15.209  0.0795 -0.0061 -0.0732
 2848W        W17979   5.811   8.265   0.589  0.0112 -0.1669 -0.1632
 2849W        W17980  12.313  14.822   3.610  0.1149 -0.2400  0.2764
 2850W        W17981   7.830  16.890  14.539  0.0480 -0.1303  0.2003
 2851W        W17982  16.479   2.212   3.641 -0.0588 -0.0905  0.0696
 2852W        W17983   1.092   7.276   2.756  0.0028  0.0109 -0.0471
 2853W        W17984   7.020  11.953   4.032 -0.0204  0.1780  0.0688
 2854W        W17985   4.687  14.206  14.743 -0.1428  0.2489 -0.2229
 2855W        W17986   9.313  13.438   2.442  0.1082  0.1671  0.1270
 2856W        W17987   8.211  15.866  14.156 -0.0559  0.0911 -0.2257
 2857W        W17988  13.642   9.298  15.984 -0.3225  0.0708  0.2543
 2858W        W17989   1.353  14.063   2.288 -0.3118 -0.0340 -0.0651
 2859W        W17990  16.533   2.684  10.494 -0.0254  0.0366 -0.2388
 2860W        W17991  14.855   7.737   2.730  0.1079  0.1085  0.0102
 2861W        W17992  12.423   4.884   5.652  0.0338  0.0651 -0.0387
 2862W        W17993  12.324   9.879  15.670  0.0607  0.1412  0.0692
 2863W        W17994  17.288  10.521  15.267  0.1522 -0.3851  0.0301
 2864W        W17995  14.700   0.083  16.025 -0.1156  0.2143 -0.1584
 2865W        W17996  17.715   5.603  13.317  0.2066  0.1390 -0.0509
 2866W        W17997   3.781  10.885  11.665 -0.2375 -0.1879  0.2685
 2867W        W17998   2.167   6.932  13.811  0.0502  0.3978  0.1837
 2868W        W17999   8.332  13.406   4.554 -0.0340  0.1872 -0.2400
 2869W        W18000   3.447  15.634   0.317 -0.3065 -0.3784 -0.0752
 2870W        W18001  10.832   9.635  15.769 -0.0719 -0.3358  0.1851
 2871W        W18002  11.218   1.085   4.513  0.0704 -0.1261 -0.0395
 2872W        W18003   9.217  13.405  15.088  0.1396 -0.0538  0.1208
 2873W        W18004   8.803   9.455   0.579  0.1529  0.0751 -0.0783
 2874W        W18005  12.928   9.097  11.681 -0.0210  0.0601 -0.2353
 2875W        W18006   8.074   9.539   1.836 -0.1124 -0.3409 -0.2543
 2876W        W18007  10.227   2.990  11.949 -0.0283  0.1655 -0.4096
 2877W        W18008   6.084  14.410   4.716 -0.3564 -0.6077 -0.1479
 2878W        W18009   8.771  14.458  13.671 -0.0972 -0.2248  0.6170
 2879W        W18010   5.337  14.768   0.188  0.1046  0.0976  0.1562
 2880W        W18011   3.368  14.927   2.754 -0.0123 -0.0835  0.1259
 2881W        W18012  14.881   5.035  13.991 -0.0826 -0.2070  0.2321
 2882W        W18013  12.500   4.268  15.276 -0.1119 -0.0992 -0.0271
 2883W        W18014  10.760   0.420  14.901  0.2042 -0.0115  0.0934
 2884W        W18015  14.159  16.685  14.175 -0.1832  0.1902 -0.0820
 2885W        W18016   4.200  17.219  16.076  0.2931  0.1013  0.1236
 2886W        W18017  10.629  14.082   4.111  0.2558 -0.3381  0.0667
 2887W        W18018   4.942   7.119  14.778 -0.0595  0.2066 -0.2467
 2888W        W18019  13.979   3.504  12.792  0.0137 -0.3187 -0.2973
 2889W        W18020   0.211  11.342  11.182 -0.2067 -0.1712 -0.1448
 2890W        W18021   2.827   0.924  11.357 -0.0393  0.1709 -0.0190
 2891W        W18022   9.705  16.939  10.913 -0.0295 -0.1069  0.0021
 2892W        W18023   7.754   0.433   3.868  0.1367 -0.1638 -0.1989
 2893W        W18024  11.383  13.589   0.015  0.0568 -0.1100 -0.2588
 2894W        W18025  14.917  10.799   4.401  0.0704  0.0242  0.1025
 2895W        W18026   9.503   4.361   0.486 -0.1928 -0.2330  0.4070
 2896W        W18027   0.147  11.647  15.614  0.1150 -0.1515  0.1908
 2897W        W18028  17.930  13.055  13.491 -0.0546  0.2984  0.2201
 2898W        W18029  17.653   1.406   1.963  0.1025 -0.0390 -0.0668
 2899W        W18030   8.439  15.754   2.064 -0.6935  0.0439  0.4150
 2900W        W18031  12.969   8.597  14.305 -0.0768  0.1306 -0.0915
 2901W        W18032  16.586   5.884  14.746  0.2623  0.1907 -0.2754
 2902W        W18033   3.981   0.422   0.945 -0.0211 -0.0406 -0.6080
 2903W        W18034   5.399   6.678   3.027  0.0705 -0.0353  0.1122
 2904W        W18035  11.767   0.722   0.036 -0.1662 -0.2371  0.0171
 2905W        W18036   2.022   6.110  11.182  0.1459 -0.4109  0.0607
 2906W        W18037  13.653   9.411  13.890  0.5617 -0.2164  0.2438
 2907W        W18038  12.246   5.744   0.150  0.2674 -0.3664  0.1933
 2908W        W18039   3.081   2.279  11.036  0.2044 -0.1485  0.1192
 2909W        W18040   3.152   3.946   3.003 -0.0802 -0.0022  0.0424
 2910W        W18041  12.120  13.783   0.595 -0.1368 -0.1491  0.2062
 2911W        W18042  15.736  10.158  12.263  0.2591  0.1683  0.2440
 2912W        W18043   3.112   4.147  14.952  0.4541  0.2636  0.1858
 2913W        W18044   6.681   1.531  11.339 -0.1045  0.1605  0.1517
 2914W        W18045  15.214  16.778   3.670 -0.0250 -0.1587  0.0060
 2915W        W18046   7.492  17.590  12.337 -0.4399  0.0110 -0.0647
 2916W        W18047  12.410  13.250   1.340  0.3860 -0.0338  0.0689
 2917W        W18048   6.991   8.658   4.960 -0.1282  0.2851 -0.2999
 2918W        W18049  13.233   9.439   2.785 -0.0002  0.2163  0.1189
 2919W        W18050   0.337  14.541   0.483  0.1585  0.2341 -0.1285
 2920W        W18051   4.016   7.167  13.046 -0.1556 -0.1489 -0.1483
 2921W        W18052  15.245  12.511  13.447  0.2960  0.1903 -0.0475
 2922W        W18053  13.112  16.097  14.975  0.2136 -0.3092  0.0440
 2923W        W18054   7.440   8.497  11.725  0.0676  0.0237 -0.1760
 2924W        W18055   4.019  15.137   0.505 -0.2721 -0.1567  0.0829
 2925W        W18056   1.501   0.353  13.758 -0.1112  0.0367 -0.1055
 2926W        W18057  10.414   3.348   1.783 -0.0156 -0.0837  0.2305
 2927W        W18058  14.612   1.551   2.301 -0.0659 -0.1702  0.1547
 2928W        W18059   1.195  18.136   0.971  0.2729 -0.1020 -0.0222
 2929W        W18060   9.237   1.059   4.312 -0.0311  0.1240 -0.0700
 2930W        W18061   1.550  14.342  14.262 -0.0494 -0.0091  0.0880
 2931W        W18062  12.107  13.612  13.790 -0.2875  0.1937 -0.0964
 2932W        W18063  12.800  10.909  10.988 -0.0692  0.4377 -0.1287
 2933W        W18064   8.188   5.363   2.535  0.3787 -0.0111  0.3071
 2934W        W18065  13.652   7.983  15.381  0.2239 -0.0976 -0.4015
 2935W        W18066  11.447   7.412   3.648 -0.0890 -0.3875  0.3141
 2936W        W18067   1.198   5.176   1.746  0.0366  0.0040 -0.2239
 2937W        W18068   6.557   3.833   5.527  0.0999  0.0480 -0.1256
 2938W        W18069   9.520   9.498  14.935 -0.0302  0.1091 -0.0771
 2939W        W18070   4.453  14.370   2.575  0.1600  0.0154  0.1050
 2940W        W18071   6.283   4.662  14.808  0.1810  0.2677 -0.0959
 2941W        W18072  11.022  12.774   3.223 -0.0037 -0.1002  0.2481
 2942W        W18073  10.605   2.457  15.209 -0.2142  0.0572 -0.0132
 2943W        W18074  16.835   5.955   0.316 -0.0052  0.1267 -0.0386
 2944W        W18075   6.329  17.274   1.916  0.0772 -0.0643 -0.4601
 2945W        W18076   9.678  12.777  15.196  0.0236  0.2662 -0.2602
 2946W        W18077   8.703   3.040   4.826  0.0569  0.3259 -0.1995
 2947W        W18078   2.116   0.569  14.615 -0.0555 -0.0170 -0.2168
 2948W        W18079   5.683  15.280  10.532  0.0487 -0.1582 -0.0817
 2949W        W18080  16.637   9.167  13.459 -0.4324  0.0255  0.1070
 2950W        W18081   0.035  10.328  12.215 -0.0318  0.4290  0.0419
 2951W        W18082   5.690  11.603  14.473  0.3298  0.2038 -0.3767
 2952W        W18083   4.640   1.514   4.965 -0.1139  0.1486  0.0875
 2953W        W18084  12.754  13.375   2.435 -0.2112  0.1444 -0.2814
 2954W        W18085  10.436   1.880   2.348 -0.2339  0.0473 -0.0597
 2955W        W18086   8.691   3.063   1.798 -0.0418 -0.1159 -0.0636
 2956W        W18087   0.637   1.641  15.447  0.2338  0.0440 -0.0453
 2957W        W18088  16.092   5.732   3.863 -0.1001 -0.1162 -0.2180
 2958W        W18089   2.908  16.779   1.558  0.1298  0.5016 -0.0229
 2959W        W18090  15.832   9.820  11.836  0.2744 -0.4040  0.2403
 2960W        W18091  11.586  17.932  12.506 -0.2654 -0.0775 -0.0657
 2961W        W18092  10.633  15.369   5.023  0.1782 -0.0021 -0.0022
 2962W        W18093   8.553  16.073   1.589 -0.3520 -0.3308  0.0690
 2963W        W18094   2.360   6.199   1.756  0.0914 -0.1289 -0.1223
 2964W        W18095  11.117  10.672   0.770 -0.1495 -0.0091  0.0247
 2965W        W18096  18.216   9.862  12.461  0.0305 -0.4062 -0.0959
 2966W        W18097   3.599   5.442   4.148 -0.1198  0.3955 -0.2825
 2967W        W18098  17.557   2.230   1.287  0.1582  0.0006  0.2128
 2968W        W18099   2.365   0.733  13.706 -0.1943  0.3098 -0.1110
 2969W        W18100   0.006   5.330   3.870  0.0761  0.1254 -0.2152
 2970W        W18101   9.526  15.381  14.205 -0.1680 -0.0046 -0.1074
 2971W        W18102   4.862   8.234  14.253  0.0480 -0.0933 -0.2154
 2972W        W18103  15.458   5.517   5.146 -0.2097 -0.0023 -0.0825
 2973W        W18104  11.706  15.719   2.026  0.0981 -0.0151 -0.1128
 2974W        W18105  15.708   5.418   2.109  0.1421 -0.2495  0.4192
 2975W        W18106   3.630   8.013   1.087  0.0068  0.0552  0.3469
 2976W        W18107   6.501  16.823   4.062  0.1302  0.0896 -0.2112
 2977W        W18108   3.050   0.086   2.621  0.1565 -0.1241  0.2522
 2978W        W18109   2.557   6.743  15.880  0.0582 -0.1002  0.3410
 2979W        W18110   1.520  12.504   4.965 -0.1614 -0.3184 -0.0944
 2980W        W18111   6.605   1.063   3.033  0.1280 -0.1018  0.0344
 2981W        W18112  12.767   7.124  16.045  0.3751 -0.0165 -0.0557
 2982W        W18113   8.082   7.939  12.130 -0.1264  0.2959  0.2542
 2983W        W18114   6.460   5.860  15.229  0.0796  0.3421 -0.1440
 2984W        W18115  15.319  17.286   0.700  0.3851 -0.0627 -0.3586
 2985W        W18116  11.783   6.269  13.587  0.0708 -0.1433  0.0672
 2986W        W18117   8.476   3.858  10.472 -0.1067  0.0050 -0.0296
 2987W        W18118   0.629   6.383   2.624  0.1729  0.0601  0.0227
 2988W        W18119   5.692   6.500  13.119  0.3724 -0.3774 -0.1707
 2989W        W18120  13.700  12.477   9.454 -0.0742 -0.2464  0.1096
 2990W        W18121  10.994   0.357  12.343 -0.0450  0.0068 -0.2385
 2991W        W18122  15.010   5.497   0.130 -0.2291  0.0324 -0.0183
 2992W        W18123   7.747   0.090  13.338 -0.0114 -0.3235 -0.0064
 2993W        W18124  10.783   6.368  13.162 -0.0075  0.2451 -0.1999
 2994W        W18125   8.732   4.170  15.909 -0.5146  0.3367  0.2730
 2995W        W18126   6.174   6.882   4.513  0.0241  0.1091 -0.1979
 2996W        W18127  15.195   8.320   1.608  0.2221 -0.3127  0.0368
 2997W        W18128   8.181  11.337   0.408 -0.2166 -0.1437 -0.2066
 2998W        W18129  17.943  17.578  14.878  0.0774 -0.0005  0.0394
 2999W        W18130  11.390  13.167  14.855  0.0291  0.4089 -0.0895
 3000W        W18131   4.878   6.266  13.637 -0.0539 -0.0933 -0.0812
 3001W        W18132  10.276   9.011  11.201  0.1022 -0.0057  0.2106
 3002W        W18133  13.368   0.499  11.818  0.1419 -0.1793 -0.1347
 3003W        W18134   8.898   3.915   5.670  0.1112  0.0837  0.2132
 3004W        W18135  11.864   0.046  12.574  0.0968 -0.1345  0.0433
 3005W        W18136  10.877   1.682  14.699 -0.1014 -0.0140 -0.0210
 3006W        W18137   3.335  16.323  14.860 -0.0862  0.2394 -0.4067
 3007W        W18138   4.893  15.952   0.428 -0.0892 -0.0933  0.2420
 3008W        W18139  15.943   0.903   3.416  0.2722  0.1313  0.0910
 3009W        W18140   1.837  17.075   4.304 -0.2201 -0.1200  0.0694
 3010W        W18141   6.759   4.476  15.261 -0.0939 -0.0906  0.0406
 3011W        W18142   2.885   9.384  16.074  0.0435  0.0835  0.0542
 3012W        W18143   6.646   1.980   2.004  0.0502 -0.0248 -0.1764
 3013W        W18144  14.564  14.059   1.651 -0.0661  0.2286  0.1083
 3014W        W18145   1.259  13.424   3.090 -0.1009 -0.2588  0.0220
 3015W        W18146  11.691   6.101   5.179  0.1369 -0.0508 -0.0799
 3016W        W18147   6.736   2.278   2.895 -0.0027 -0.0846 -0.0564
 3017W        W18148   0.066   7.667   2.220  0.2306 -0.1662  0.0601
 3018W        W18149   0.548   4.456   2.006 -0.3699  0.0572  0.0636
 3019W        W18150  12.118   7.664   2.289 -0.0807  0.2399  0.0016
 3020W        W18151   6.624  17.271   0.226 -0.2432 -0.0137 -0.0002
 3021W        W18152  17.101   6.057   0.817  0.0667 -0.1658 -0.1068
 3022W        W18153  17.524   2.473  14.691 -0.0224 -0.3582 -0.0579
 3023W        W18154  10.943   1.394   5.386  0.0571  0.0295 -0.1922
 3024W        W18155  14.109  10.128   2.873 -0.0647 -0.0089 -0.3007
 3025W        W18156   5.695  12.110   1.968  0.0602 -0.2489  0.0671
 3026W        W18157  16.161   7.349  10.546  0.1260 -0.2615 -0.1271
 3027W        W18158  15.708   2.719   1.964  0.1727  0.3985  0.0195
 3028W        W18159   4.405  11.124   3.803 -0.3294 -0.1687  0.1949
 3029W        W18160   4.738   5.103  13.891  0.0947 -0.1237  0.2347
 3030W        W18161  12.586   6.790   0.368 -0.0149  0.1436  0.0843
 3031W        W18162   8.430   3.998   5.020 -0.0904 -0.0164  0.1053
 3032W        W18163   8.830  17.164  11.125  0.0702  0.0154 -0.3470
 3033W        W18164   4.044  16.259  15.809 -0.2514 -0.0976  0.2001
 3034W        W18165   6.282   8.817   2.139 -0.4289  0.0409  0.2444
 3035W        W18166   1.913   6.115   3.746  0.2322  0.1562 -0.0665
 3036W        W18167  15.914   9.792  11.152 -0.0151  0.1638 -0.2563
 3037W        W18168   5.845   2.296   4.360  0.4963 -0.2594  0.2901
 3038W        W18169   5.536   9.615  11.234 -0.3052 -0.1743  0.0322
 3039W        W18170   0.076  16.883  11.862  0.2031  0.0998 -0.3700
 3040W        W18171   5.677  15.519   0.078 -0.0274  0.0263 -0.3002
 3041W        W18172  10.054  13.117  16.029  0.2496  0.2241 -0.0168
 3042W        W18173  14.006  10.314   0.871  0.1128 -0.0004  0.0792
 3043W        W18174   5.863  18.290  15.769  0.0715  0.1609  0.2313
 3044W        W18175  13.839   9.190  13.422 -0.0989 -0.2148 -0.1666
 3045W        W18176  14.763   1.290  10.671  0.1918  0.2425 -0.2492
 3046W        W18177  11.000  10.880   2.763 -0.2053  0.1075 -0.0093
 3047W        W18178  17.114   1.029   0.745  0.2175  0.2880  0.2904
 3048W        W18179   8.907   9.280  12.969  0.2672  0.0306  0.1909
 3049W        W18180   3.223   8.036  12.860  0.4260  0.1650 -0.2682
 3050W        W18181   5.429  13.660  12.028 -0.2633 -0.0684 -0.1671
 3051W        W18182   0.517   1.137   5.124  0.0233 -0.3010  0.1889
 3052W        W18183   6.884   6.799   1.442 -0.3058  0.0187 -0.0511
 3053W        W18184  11.179   1.787   1.635  0.1780  0.3791 -0.2345
 3054W        W18185  12.414   3.876   4.067 -0.1473 -0.2307 -0.1148
 3055W        W18186  10.741   8.193  12.637 -0.3142 -0.0894 -0.0864
 3056W        W18187  13.069  12.036   4.370  0.0439  0.2176 -0.0106
 3057W        W18188  16.352   2.715   4.420  0.0247 -0.1233 -0.2373
 3058W        W18189   9.818  11.739  15.296  0.2582 -0.0069 -0.1581
 3059W        W18190   3.387  10.536   5.008  0.1400  0.1320  0.2142
 3060W        W18191  13.605   3.156   5.671  0.0619  0.2273  0.4350
 3061W        W18192   4.202   3.023   3.767 -0.0271 -0.0227  0.0499
 3062W        W18193   1.892  14.310  12.196  0.0294 -0.0022  0.5646
 3063W        W18194   3.526  14.691   5.715 -0.0733  0.1330  0.1861
 3064W        W18195   5.290  11.983   3.698 -0.0444  0.0678  0.1609
 3065W        W18196  15.951  14.133  11.555  0.0183  0.2141 -0.0739
 3066W        W18197   5.051   8.586   4.606  0.2446 -0.4303 -0.0667
 3067W        W18198  14.028   9.380   5.145  0.1384  0.0190 -0.2070
 3068W        W18199   8.944   3.515   1.672  0.0703 -0.0486  0.1122
 3069W        W18200   7.989  13.765   5.440 -0.0854 -0.1085 -0.2907
 3070W        W18201   5.181   5.005   1.007 -0.4990  0.3820 -0.2122
 3071W        W18202  11.447   2.119  12.454 -0.4287  0.0012 -0.2376
 3072W        W18203  15.229   9.353  11.988 -0.0218  0.3277 -0.1057
 3073W        W18204  14.005   0.704   1.483 -0.0899  0.3733 -0.1605
 3074W        W18205  17.101   9.127  12.233  0.1047  0.1509  0.1865
 3075W        W18206  10.645   1.180   4.484  0.0403  0.1125 -0.1759
 3076W        W18207   3.578   2.499   5.069 -0.0691  0.2568 -0.1506
 3077W        W18208  18.218   0.680   3.618  0.1042 -0.1245  0.0163
 3078W        W18209   8.416  16.493   1.407 -0.2070 -0.1589 -0.0237
 3079W        W18210   4.343  16.975   3.958 -0.3699 -0.2839 -0.1965
 3080W        W18211   2.166   3.771   1.931 -0.0905 -0.2163 -0.3362
 3081W        W18212   7.569  15.312   2.564 -0.0314  0.0744  0.0870
 3082W        W18213   7.386  11.061  13.361 -0.4253 -0.1253 -0.4952
 3083W        W18214  10.123   0.858   3.718  0.2324  0.0038 -0.3462
 3084W        W18215   2.574   1.932   0.867  0.1779 -0.0800  0.0134
 3085W        W18216   7.016  10.934   0.839 -0.2433  0.3186 -0.0338
 3086W        W18217  16.567  13.717  13.248 -0.0478  0.1170  0.0624
 3087W        W18218  15.208   6.842  15.094  0.2296  0.1536  0.1949
 3088W        W18219  18.232   7.072   1.899 -0.0531 -0.0794  0.5481
 3089W        W18220   7.119  17.614  14.359  0.1379 -0.1410 -0.2925
 3090W        W18221  11.353  12.185  13.863  0.0496 -0.0751 -0.0123
 3091W        W18222   6.524   8.544  11.756  0.0062  0.0078  0.1963
 3092W        W18223   8.317  14.554   0.293 -0.0287  0.0727  0.0115
 3093W        W18224   9.879   3.765   6.064  0.2713 -0.0684  0.1194
 3094W        W18225  15.037   7.701  15.877 -0.1752  0.0143 -0.1227
 3095W        W18226   3.308   7.168   5.749  0.2910  0.1230  0.0864
 3096W        W18227  17.480   3.810  15.397  0.1048  0.2135  0.3850
 3097W        W18228  13.543   9.948  14.474  0.2282  0.1611 -0.0149
 3098W        W18229   6.376  14.914   5.764  0.2665 -0.1275 -0.0369
 3099W        W18230   8.346  17.301  13.050 -0.1152  0.3285 -0.2163
 3100W        W18231  16.567   7.247  10.912 -0.2444  0.0137 -0.2576
 3101W        W18232  16.814  11.493  12.564  0.1331 -0.2024 -0.1473
 3102W        W18233  18.139  11.405  13.536  0.1904 -0.0146 -0.2354
 3103W        W18234   4.686  17.558  12.255 -0.0103  0.2308  0.1975
 3104W        W18235  12.394   5.759  12.860 -0.0662  0.2502 -0.0683
 3105W        W18236   1.247   2.943   5.233 -0.0579  0.2995 -0.0515
 3106W        W18237   5.247  10.102   2.359  0.0357 -0.0249 -0.0609
 3107W        W18238   9.027   8.815   2.655  0.0200  0.1398 -0.0299
 3108W        W18239   4.175  10.726   3.543  0.2854  0.0982 -0.0104
 3109W        W18240  16.008  11.351  15.071  0.0390  0.1950 -0.0746
 3110W        W18241  15.052  13.950  11.155 -0.2228 -0.2322  0.2739
 3111W        W18242   0.268   4.476   3.895  0.0950 -0.1603 -0.1924
 3112W        W18243   9.307   2.092  10.990  0.0737 -0.0765  0.0257
 3113W        W18244  17.610   4.583  10.711  0.0094  0.0282 -0.0362
 3114W        W18245   2.425  15.637  16.109  0.1000 -0.1902 -0.5032
 3115W        W18246  12.168  18.217   5.116  0.2205  0.1485 -0.1923
 3116W        W18247   7.272   6.564   3.496  0.2041 -0.6449 -0.1491
 3117W        W18248  12.891  11.547  10.992  0.1074  0.3179 -0.2101
 3118W        W18249  17.293   5.639  10.782 -0.2555  0.0866 -0.3220
 3119W        W18250   4.086  16.412   0.761  0.1986  0.1493 -0.0535
 3120W        W18251  11.666   4.395  15.501  0.0467 -0.0926 -0.0547
 3121W        W18252   8.232   9.732   3.100  0.1880 -0.0004 -0.1427
 3122W        W18253  13.392  17.722  10.313  0.0862  0.2768 -0.3097
 3123W        W18254   6.910  13.841   2.945 -0.0428  0.1277 -0.2062
 3124W        W18255   0.712   3.951   4.874 -0.3337 -0.0609 -0.0944
 3125W        W18256   2.380  18.153  11.779 -0.2578 -0.0020  0.0308
 3126W        W18257  16.495  13.240   5.509  0.0673 -0.3815  0.0297
 3127W        W18258  17.880   3.452  13.217 -0.0231  0.3498 -0.0701
 3128W        W18259   9.250  16.091   0.138 -0.0074 -0.2490  0.4302
 3129W        W18260  17.889   0.284  14.710 -0.1572  0.1696 -0.0888
 3130W        W18261   8.640   3.596   1.248 -0.0699  0.0091 -0.0233
 3131W        W18262   5.223   1.578   1.494 -0.0878 -0.0208  0.1091
 3132W        W18263   2.612   8.869   0.670 -0.0580 -0.0495  0.2581
 3133W        W18264   3.328   8.123   1.468  0.1970  0.1281 -0.0934
 3134W        W18265  18.172   3.255   0.356  0.2835 -0.1468  0.1035
 3135W        W18266   8.141  16.630   2.308  0.0024  0.4071  0.0541
 3136W        W18267   9.649   7.873   3.489 -0.1655  0.0594  0.3002
 3137W        W18268   0.031  16.480  10.367 -0.1628 -0.3222  0.2402
 3138W        W18269   6.071   1.800  15.247 -0.1576  0.4290 -0.0413
 3139W        W18270   9.407   2.513  11.319  0.0092  0.1458 -0.0474
 3140W        W18271  18.256  15.687  13.309  0.1008 -0.0712 -0.0940
 3141W        W18272   8.543  17.293   0.307  0.0511 -0.1546  0.0584
 3142W        W18273  18.300   0.079  14.643 -0.3925 -0.1473 -0.4065
 3143W        W18274   4.307  15.810  13.882 -0.1373  0.1655  0.2947
 3144W        W18275  10.620  11.750   3.107 -0.1581 -0.0284  0.0278
 3145W        W18276  13.181  14.237   4.853  0.0238  0.0735 -0.2311
 3146W        W18277  10.159  15.006   3.082 -0.0033 -0.1015  0.2609
 3147W        W18278  11.356  11.040  12.505  0.1124 -0.1581  0.0081
 3148W        W18279  12.750  14.246  13.738  0.0469  0.1900 -0.0417
 3149W        W18280   4.373  14.873  12.940  0.0514 -0.3167  0.1361
 3150W        W18281   1.251   8.567  14.440  0.1891 -0.1275 -0.2657
 3151W        W18282   6.033  12.595   3.559  0.2126  0.1307  0.2142
 3152W        W18283  14.824   5.858  14.661  0.0590 -0.0408  0.1023
 3153W        W18284   1.823   7.971   1.818  0.1963  0.4280 -0.0750
 3154W        W18285   0.983  11.642   4.383 -0.0005 -0.2735  0.1959
 3155W        W18286  13.574  17.076  10.783 -0.0257  0.3382  0.0331
 3156W        W18287  14.390   5.088  11.115 -0.1865  0.1763 -0.1256
 3157W        W18288  13.090   8.365   2.702 -0.0655  0.1535 -0.1233
 3158W        W18289  12.362  11.801   9.738  0.0664  0.0834  0.0641
 3159W        W18290  15.808   2.798  13.390 -0.0599  0.0400 -0.3575
 3160W        W18291   6.516   4.847   2.717  0.1202  0.2149  0.3099
 3161W        W18292  15.931   7.461  12.189 -0.1103  0.0762  0.0565
 3162W        W18293   1.680   5.891   3.400  0.0558  0.0778 -0.0752
 3163W        W18294   4.251   8.530  15.523 -0.1796  0.0518  0.0311
 3164W        W18295   6.347  17.149  13.441 -0.2753  0.2265 -0.2193
 3165W        W18296   4.589   7.281   1.936  0.0171 -0.0535 -0.1487
 3166W        W18297   6.139  16.846   2.099 -0.1284 -0.2076  0.0494
 3167W        W18298  11.757   8.854  14.322 -0.0450 -0.1140 -0.1112
 3168W        W18299   1.854  11.200  11.632 -0.0835 -0.1416 -0.1030
 3169W        W18300   7.017  12.386  11.570  0.2923 -0.1532 -0.1274
 3170W        W18301   7.915   4.538   1.860  0.0177  0.1196 -0.1287
 3171W        W18302  13.172  10.436  10.722  0.1501  0.0215  0.2042
 3172W        W18303  12.972   9.746  12.765  0.3018 -0.2804  0.3791
 3173W        W18304   7.339   4.253   4.225  0.1817 -0.2791  0.1615
 3174W        W18305   0.126   5.061   4.732  0.0051  0.2684 -0.2427
 3175W        W18306   6.262   9.607  12.453  0.2728 -0.2544  0.2329
 3176W        W18307   4.077  15.382   4.713 -0.3419  0.2879 -0.3097
 3177W        W18308   4.204  10.677  13.389  0.0498  0.2488  0.0704
 3178W        W18309  12.714  11.950   4.741  0.1074 -0.1258 -0.1654
 3179W        W18310  18.255  17.064  14.129  0.0305  0.1262  0.1575
 3180W        W18311   1.541  11.199   4.207  0.3885 -0.1601  0.0463
 3181W        W18312  16.731  18.090  13.120 -0.2126  0.2119  0.0350
 3182W        W18313  17.972  18.219   1.314 -0.1014  0.0788 -0.0358
 3183W        W18314  14.986   1.801  14.594 -0.2653 -0.1701  0.1218
 3184W        W18315   2.913  13.443   4.051 -0.2439  0.3551 -0.1960
 3185W        W18316   0.608   6.450   0.366  0.0411 -0.1408  0.3012
 3186W        W18317   2.112  13.782   3.115  0.2379 -0.2298  0.1484
 3187W        W18318  12.282   2.621  14.975  0.0817 -0.0384  0.0042
 3188W        W18319  10.302  14.357  13.419  0.2282  0.1057  0.0175
 3189W        W18320  11.600  13.661   3.790  0.3804  0.0649  0.0065
 3190W        W18321   4.708  10.201   1.349  0.1369 -0.0122 -0.0803
 3191W        W18322  10.180   1.406   4.363  0.2069  0.2227 -0.0754
 3192W        W18323   1.849   1.567   4.559  0.0790  0.4827 -0.2542
 3193W        W18324  10.237  16.085   2.348 -0.0694  0.0256  0.1881
 3194W        W18325   5.078   7.807   1.621  0.2368 -0.0630 -0.1249
 3195W        W18326   0.465   4.379   1.490  0.1510  0.1619 -0.2720
 3196W        W18327  15.198   7.248  13.828  0.0451 -0.0554  0.1992
 3197W        W18328   5.830   4.001   3.144 -0.0262  0.1490 -0.1025
 3198W        W18329   2.354   2.972   2.655  0.4023  0.0168  0.0088
 3199W        W18330   6.051  17.134   3.905 -0.0982 -0.0139 -0.1723
 3200W        W18331  12.786  14.420  15.906 -0.0317 -0.2533  0.0294
 3201W        W18332  16.948   9.984   0.721 -0.2515 -0.1708 -0.2827
 3202W        W18333   1.038  15.655   3.615 -0.2775 -0.0267 -0.1309
 3203W        W18334   5.407   0.422  12.410  0.2049  0.1966  0.0320
 3204W        W18335  12.232  14.216   4.898 -0.0648 -0.0029 -0.0584
 3205W        W18336  11.596   9.481   0.006 -0.1080  0.0164  0.0019
 3206W        W18337   1.253  16.842  13.400  0.1920 -0.1105  0.0432
 3207W        W18338  13.442   9.708  15.524  0.0598 -0.1614 -0.1641
 3208W        W18339  11.885   0.834  14.655  0.0460  0.1577 -0.1765
 3209W        W18340   9.354  12.713  14.158 -0.2574 -0.0697  0.0379
 3210W        W18341  11.676  12.190  11.564  0.1178  0.3193  0.0222
 3211W        W18342  12.795  14.885   3.732 -0.0149  0.0638 -0.0415
 3212W        W18343  17.737  11.331   3.646  0.2228  0.1890  0.0993
 3213W        W18344  17.015   8.951   4.710  0.0752 -0.1961  0.0318
 3214W        W18345   5.975   5.523  12.159 -0.1206  0.0318 -0.0237
 3215W        W18346  15.445  14.969  11.498  0.3737  0.4154 -0.1548
 3216W        W18347   0.113  10.389  13.842 -0.0422 -0.3246 -0.1465
 3217W        W18348  13.871   5.165   2.956 -0.1802 -0.0100  0.0149
 3218W        W18349   7.420   6.683  12.581  0.0871 -0.4237  0.0303
 3219W        W18350  10.047  13.398  12.305 -0.0306 -0.2832  0.1761
 3220W        W18351   2.431  15.897   1.215  0.1521 -0.1757  0.1868
 3221W        W18352   4.455  15.448  13.449 -0.0076  0.1132  0.0696
 3222W        W18353   1.540  14.362   2.672 -0.1448 -0.1819  0.0309
 3223W        W18354  11.935  14.287   5.304  0.1188  0.0702  0.0127
 3224W        W18355  18.282   0.943   3.129 -0.1270  0.3537  0.0672
 3225W        W18356   2.260  16.594  12.602  0.1029  0.0795 -0.0072
 3226W        W18357  11.520  14.180  11.366 -0.0708  0.2411  0.1803
 3227W        W18358   6.466   5.736  12.120  0.0870  0.2459  0.4019
 3228W        W18359   4.290  15.277  15.006 -0.0687  0.2504 -0.1957
 3229W        W18360   0.218  15.273   1.554 -0.0068  0.1624  0.1662
 3230W        W18361  13.615   1.982  14.665 -0.0910 -0.0735 -0.2588
 3231W        W18362   0.202  11.551   2.709 -0.4315  0.2553  0.2033
 3232W        W18363  13.741  17.780  13.520  0.2664  0.0617  0.0518
 3233W        W18364  11.769  12.059   1.468 -0.2427 -0.0760  0.1113
 3234W        W18365  16.771   1.433  12.979 -0.3657  0.0526  0.0865
 3235W        W18366   4.045   5.382   1.595  0.1198 -0.1571 -0.0241
 3236W        W18367   9.852  13.041  12.596 -0.4605  0.1974  0.2455
 3237W        W18368  14.208  11.478  14.726  0.0767 -0.3332 -0.0448
 3238W        W18369  11.272  16.088  15.956 -0.1616 -0.2093 -0.2807
 3239W        W18370  11.599  11.817  11.891 -0.3791 -0.5473 -0.1515
 3240W        W18371   4.305  14.977  12.380 -0.1697  0.2274  0.0578
 3241W        W18372  17.462   3.125  11.710  0.0706  0.1264  0.2042
 3242W        W18373   4.185  12.970  13.216  0.0567  0.2518  0.0494
 3243W        W18374   8.238   7.067   4.008 -0.0545 -0.0520 -0.2874
 3244W        W18375   9.602  16.159  12.670 -0.0061  0.2114 -0.3140
 3245W        W18376   6.115  16.759  15.521  0.1747 -0.1112 -0.1101
 3246W        W18377   1.253  11.573  11.212 -0.3083 -0.0601  0.0024
 3247W        W18378   2.761   3.549   4.289 -0.2423 -0.0714  0.0515
 3248W        W18379   5.117  11.876  12.300 -0.0844  0.1472 -0.1871
 3249W        W18380   7.704  14.471   1.457 -0.0652 -0.0221 -0.0540
 3250W        W18381  12.162   9.857  13.150  0.1488  0.0737  0.0328
 3251W        W18382  17.374   8.400  11.138 -0.1605  0.0914  0.2887
 3252W        W18383  15.086  12.980  15.340 -0.2069  0.1609  0.0336
 3253W        W18384  11.860  17.608  13.165  0.0284 -0.3118  0.1951
 3254W        W18385   4.027   3.457  11.005 -0.2023 -0.1358  0.0194
 3255W        W18386  18.228  10.252   5.144 -0.0798 -0.1636  0.0656
 3256W        W18387  12.597   0.893   2.498 -0.0956 -0.2136 -0.3870
 3257W        W18388   3.689   3.007   0.694 -0.0692 -0.1702  0.0564
 3258W        W18389  12.600  15.011   5.202 -0.4336  0.0021 -0.2615
 3259W        W18390  18.017   5.459  15.665  0.0518 -0.0022  0.0263
 3260W        W18391   6.230  11.786   3.550  0.1729 -0.1278  0.1391
 3261W        W18392   5.368   6.401   2.583  0.2339 -0.0304 -0.3574
 3262W        W18393   9.248  16.971  12.363  0.3454 -0.0702  0.2127
 3263W        W18394  11.759   6.178  14.094 -0.2811  0.1854 -0.4049
 3264W        W18395  13.812   4.460  10.721 -0.0101 -0.0602 -0.0057
 3265W        W18396  13.986  13.993  13.556  0.4332  0.0653 -0.0977
 3266W        W18397   2.093  15.949   3.786  0.0706 -0.2449  0.0325
 3267W        W18398   8.934   1.895  15.113  0.1249  0.2099  0.2318
 3268W        W18399   6.761  13.368   3.306  0.2131 -0.0893 -0.1457
 3269W        W18400   0.299  16.753   1.054 -0.1903 -0.1469 -0.2248
 3270W        W18401   8.604  17.094  14.256  0.0445  0.0789 -0.1083
 3271W        W18402   8.509   3.808   0.634  0.0644 -0.0345 -0.0770
 3272W        W18403   5.805  14.365   4.269  0.2007  0.2695 -0.0774
 3273W        W18404   1.327  16.278  11.756  0.0096  0.1479  0.3347
 3274W        W18405  16.951   8.683   4.268 -0.1112 -0.1846  0.0748
 3275W        W18406  10.246  18.297   1.077  0.1919  0.0544 -0.2461
 3276W        W18407  16.830  15.760   2.564 -0.3106  0.0585  0.0909
 3277W        W18408   7.954   8.254   3.615  0.0394 -0.0093 -0.1275
 3278W        W18409  11.920  11.009   2.915 -0.2026 -0.1855  0.0841
 3279W        W18410   8.872  18.299   0.138 -0.1319 -0.4812 -0.0051
 3280W        W18411  17.220  11.438  13.394  0.0058 -0.2066  0.0261
 3281W        W18412  17.095  15.411  11.619  0.2109  0.1120  0.0569
 3282W        W18413   8.205  18.206  13.607  0.1039 -0.1539 -0.0158
 3283W        W18414  11.933  12.840  13.482 -0.2226  0.2503  0.0349
 3284W        W18415  16.395   8.530   0.727  0.0822 -0.0163 -0.0517
 3285W        W18416   3.839  12.316  12.443  0.1105  0.2208  0.2267
 3286W        W18417  12.359  17.035   3.958  0.0479 -0.0787 -0.1626
 3287W        W18418   6.238  10.087  12.609  0.3684 -0.0881 -0.1581
 3288W        W18419   9.581   2.736  15.350  0.1942  0.1549  0.0189
 3289W        W18420  15.977   0.607   4.361  0.1470 -0.0667  0.0401
 3290W        W18421  14.533  15.834   4.134  0.1219 -0.1605  0.0280
 3291W        W18422   0.454   4.213   5.342  0.1639  0.1319  0.1703
 3292W        W18423   3.735  16.737   1.015 -0.0492  0.1230  0.3460
 3293W        W18424   2.927  12.886  14.081  0.2373  0.0956  0.0275
 3294W        W18425  13.598  12.985   4.667 -0.0391  0.0820  0.1811
 3295W        W18426  13.470  15.639  16.045  0.2561 -0.1863 -0.0374
 3296W        W18427   6.283  15.020  10.495 -0.2501 -0.2823 -0.2726
 3297W        W18428  11.299   6.796  12.593 -0.4210  0.2366  0.4562
 3298W        W18429  12.321   5.328   2.220  0.0562 -0.0947  0.1534
 3299W        W18430   8.824   8.251   3.877 -0.4128 -0.0927 -0.0473
 3300W        W18431  10.308   3.217  10.731  0.3057  0.2351 -0.1029
 3301W        W18432   4.239   2.496   3.939  0.1631 -0.1022 -0.0578
 3302W        W18433   4.217   0.203  14.176 -0.2359 -0.0067 -0.1197
 3303W        W18434   8.591   8.675  15.784  0.1434  0.0405 -0.1980
 3304W        W18435  17.907   3.433   4.311 -0.1661 -0.1499  0.2440
 3305W        W18436   9.958  17.179   5.643 -0.0218 -0.2238 -0.1396
 3306W        W18437  18.285   9.758  14.207  0.1570  0.1753 -0.0720
 3307W        W18438   7.342  17.459  13.377  0.1697 -0.1217  0.2334
 3308W        W18439   9.503   1.355  10.582  0.0813  0.1799  0.1470
 3309W        W18440  17.148  10.308  15.829  0.0436  0.0248 -0.2185
 3310W        W18441  17.660  16.164   2.035 -0.1008 -0.1062  0.1750
 3311W        W18442   3.114  16.763   3.838 -0.1677  0.1688  0.0262
 3312W        W18443   5.460   4.718  10.927  0.3589 -0.1823 -0.1514
 3313W        W18444   9.476   0.967   0.938 -0.2415 -0.0203  0.2451
 3314W        W18445  13.333   8.308   4.335  0.0882  0.4124 -0.0428
 3315W        W18446  10.887   6.204  15.124  0.1644 -0.2429  0.2541
 3316W        W18447  11.713   6.062   3.120 -0.1640 -0.0015  0.3168
 3317W        W18448  17.061  13.392   2.169  0.2287 -0.2050  0.1008
 3318W        W18449  14.149  17.368   3.122 -0.2008  0.2398  0.1538
 3319W        W18450   3.990  17.645   3.285 -0.2516  0.4021  0.0444
 3320W        W18451   0.460  15.936   0.363 -0.2191  0.0747 -0.1315
 3321W        W18452  13.502  10.250   4.087  0.3569  0.0068 -0.0499
 3322W        W18453   6.951   7.600   4.042  0.0214 -0.2005 -0.0823
 3323W        W18454   2.311  18.211  15.223 -0.0770  0.0349 -0.1054
 3324W        W18455   1.281   7.092  12.106  0.0199  0.0554  0.0975
 3325W        W18456   1.872  14.775  11.933 -0.2108 -0.2475  0.4530
 3326W        W18457  11.860   2.087  12.963  0.2598  0.1205 -0.1037
 3327W        W18458  16.238   6.521   0.321  0.2802 -0.0666 -0.0190
 3328W        W18459   2.807   0.313  13.044 -0.2681 -0.1743 -0.0104
 3329W        W18460   9.962   0.032   4.331 -0.0362  0.0795  0.0724
 3330W        W18461  18.302   4.191   1.750  0.4469  0.3277 -0.1668
 3331W        W18462   2.650  17.675   4.807 -0.0120  0.2530  0.0588
 3332W        W18463  10.653  17.646  11.296  0.1005  0.1997  0.2075
 3333W        W18464   8.071  12.999  12.607  0.0339 -0.0685  0.0719
 3334W        W18465  10.799  17.279   2.231 -0.1234  0.2169 -0.3331
 3335W        W18466  11.203   3.480   2.726 -0.0679  0.1112  0.2061
 3336W        W18467  15.603  13.282   5.337  0.3134 -0.1263  0.1751
 3337W        W18468  16.335  17.976  11.261 -0.2413 -0.1203  0.1506
 3338W        W18469   4.023  12.433  11.653  0.0785 -0.1859  0.3794
 3339W        W18470   2.203  11.832   4.194  0.1935 -0.1522 -0.2718
 3340W        W18471   1.016   8.703   4.580 -0.0588 -0.2085 -0.1170
 3341W        W18472  14.770  14.418   4.652 -0.2203  0.0525 -0.1322
 3342W        W18473  16.923  13.455   0.743  0.1868 -0.0620 -0.0090
 3343W        W18474  10.224  18.120  15.628 -0.2407 -0.1172  0.2286
 3344W        W18475  18.322  10.884  11.891 -0.1060 -0.3220  0.1402
 3345W        W18476   1.477   5.478   3.125  0.1432  0.0918  0.3071
 3346W        W18477  11.994   2.494  11.181 -0.0402 -0.3572 -0.0111
 3347W        W18478  17.606   5.992   3.152 -0.2174 -0.1824  0.2217
 3348W        W18479  16.535  12.900   4.717  0.0734 -0.0125 -0.1588
 3349W        W18480   1.906  10.909  12.149  0.1822 -0.2180 -0.3225
 3350W        W18481   5.587  11.895  12.096  0.1582 -0.1166 -0.2877
 3351W        W18482   7.316   3.098   4.436 -0.0109 -0.1557 -0.1142
 3352W        W18483   1.088   3.066   0.779  0.0320 -0.0387 -0.0034
 3353W        W18484  13.721   0.890  11.826 -0.1593 -0.1901  0.0856
 3354W        W18485   8.638  14.860   4.519 -0.0923 -0.0149 -0.0567
 3355W        W18486  10.760   2.395  13.780 -0.2390 -0.0757  0.0097
 3356W        W18487   3.518   0.683   1.290 -0.0504 -0.0617 -0.1079
 3357W        W18488  17.196   6.029   1.648 -0.1230 -0.0661 -0.0512
 3358W        W18489  10.665  18.090   4.773 -0.0174  0.0851 -0.0717
 3359W        W18490   1.057  17.993  15.051 -0.1218  0.0514  0.0779
 3360W        W18491   4.598  10.478   4.434 -0.2007  0.2241  0.1860
 3361W        W18492   1.563   5.855   3.973  0.2674  0.1319  0.0175
 3362W        W18493  13.155  11.576   3.506 -0.0064  0.0230  0.1864
 3363W        W18494   7.925   8.398  13.257  0.0039 -0.1484  0.2148
 3364W        W18495  10.719  14.538   4.404 -0.0890  0.0468 -0.2811
 3365W        W18496  10.563   1.547  15.179  0.1628 -0.1559 -0.3520
 3366W        W18497  16.564   7.692  10.674  0.0948 -0.1219  0.0196
 3367W        W18498  13.457   8.035  11.362 -0.2678  0.1642 -0.0281
 3368W        W18499   2.933  15.947   0.460  0.1685  0.0181 -0.1392
 3369W        W18500   4.220   1.105  13.802  0.0325  0.0891  0.2529
 3370W        W18501   7.480   8.574   4.242  0.0553  0.2343 -0.1157
 3371W        W18502   0.655  16.846   3.511  0.0841 -0.1442 -0.5886
 3372W        W18503  16.482   6.512   4.223 -0.0484 -0.4021  0.1427
 3373W        W18504  16.077   8.645  12.848 -0.0270  0.1641 -0.0577
 3374W        W18505   0.377  16.603   4.469 -0.1784 -0.3477 -0.1078
 3375W        W18506  12.535   6.211  12.639  0.0126  0.0013  0.2276
 3376W        W18507  13.260   6.076  13.546 -0.3252 -0.2222  0.2218
 3377W        W18508   4.410  10.010   4.004 -0.0870  0.1702 -0.0032
 3378W        W18509  15.994  15.044  11.315  0.1828 -0.1484  0.4504
 3379W        W18510   7.833   6.813  13.553 -0.3709  0.4043 -0.2477
 3380W        W18511   3.362  13.826  12.087  0.0364 -0.2372 -0.2524
 3381W        W18512   7.194  17.701  15.290 -0.0980 -0.1620 -0.1910
 3382W        W18513  15.212   8.057  10.837  0.1962 -0.1248 -0.0272
 3383W        W18514  13.079   2.288   0.156  0.1914  0.0811 -0.5387
 3384W        W18515  12.712   8.001  12.526  0.0474  0.2850 -0.0972
 3385W        W18516   0.387  17.896   2.095  0.0581  0.0516  0.0442
 3386W        W18517  14.484   6.891  10.798  0.0977 -0.2584  0.0860
 3387W        W18518  17.346   8.672   2.515 -0.0525  0.1650 -0.1306
 3388W        W18519   3.187   9.600   0.612 -0.1396  0.1074 -0.0832
 3389W        W18520   6.834   5.925  10.959 -0.2586 -0.1702 -0.0801
 3390W        W18521  16.450  12.818   2.014  0.2962  0.0169 -0.0547
 3391W        W18522  13.374   9.126   0.248  0.0670  0.2079  0.0731
 3392W        W18523  15.030   8.663   3.039  0.0831 -0.1026  0.1016
 3393W        W18524  15.023   2.369  13.699 -0.1698  0.1609 -0.4342
 3394W        W18525   8.684   1.459  13.086  0.1000 -0.1383  0.0786
 3395W        W18526   3.518   7.515  12.795 -0.3637  0.0055 -0.1781
 3396W        W18527   7.601   9.407   3.956  0.3068 -0.0552  0.1657
 3397W        W18528   7.042   1.737  11.783 -0.0532  0.1597  0.1369
 3398W        W18529  18.298   7.033   5.184 -0.5259 -0.0187  0.4112
 3399W        W18530  17.529  14.596   3.333  0.1884  0.0230  0.0936
 3400W        W18531   7.735  17.889   2.531 -0.1326  0.2660 -0.0608
 3401W        W18532   9.653  10.629  14.217 -0.0978 -0.1771 -0.2321
 3402W        W18533  12.164  14.216  12.450  0.1913  0.0490 -0.4142
 3403W        W18534  14.362   6.635  14.510 -0.3664  0.0510  0.0051
 3404W        W18535   5.326  17.401   4.359 -0.0550 -0.5307 -0.0617
 3405W        W18536  10.879  17.752   3.553  0.2781 -0.0843 -0.0563
 3406W        W18537   7.920   8.703  12.187  0.2682 -0.2332  0.2664
 3407W        W18538  10.122  13.706   2.735  0.0334 -0.1171  0.3856
 3408W        W18539   3.531   5.411  15.953 -0.2772 -0.0350  0.1521
 3409W        W18540   3.346  13.211   4.151 -0.2568  0.1852  0.3803
 3410W        W18541  13.049   4.007   3.749  0.0834 -0.1674 -0.1944
 3411W        W18542   5.600   1.264  12.745  0.0275 -0.0240  0.0080
 3412W        W18543   2.950   5.442  13.244 -0.0612  0.0901 -0.2497
 3413W        W18544  10.401  10.531  11.154  0.2322  0.0667 -0.2079
 3414W        W18545  11.944   9.953  15.292 -0.3317  0.0181 -0.1430
 3415W        W18546  10.687   4.539   0.843  0.0929 -0.0651 -0.1954
 3416W        W18547  15.796  15.578  11.960 -0.1943  0.2429 -0.0423
 3417W        W18548  18.289   1.954   2.605 -0.1316  0.0141 -0.3673
 3418W        W18549   3.806  13.131   1.131  0.1365 -0.2097 -0.2049
 3419W        W18550   1.232  10.837  10.869  0.0298 -0.0636 -0.2005
 3420W        W18551   3.781  10.252  13.988  0.1077  0.0808  0.0445
 3421W        W18552   9.416  15.964  11.398  0.3502 -0.0066  0.2999
 3422W        W18553   1.032   9.469  12.878  0.2842  0.3811  0.3508
 3423W        W18554  18.035   2.810   4.440 -0.0052  0.2379  0.0422
 3424W        W18555  10.058  17.310  13.939 -0.0841  0.1195 -0.0869
 3425W        W18556  15.612  16.589   0.337 -0.2619 -0.0707 -0.0531
 3426W        W18557   0.193   2.005   0.702  0.1892 -0.2931 -0.0836
 3427W        W18558   3.036  14.268   2.355  0.3068  0.1094 -0.0755
 3428W        W18559   2.079   0.617  12.118 -0.2291  0.3266  0.3357
 3429W        W18560  16.436  16.484   3.165 -0.1705 -0.0630  0.0241
 3430W        W18561   9.318   1.850   2.303  0.0128  0.1054  0.1032
 3431W        W18562  16.869  18.027  16.063 -0.0924  0.2199 -0.0155
 3432W        W18563  12.838   4.164   3.349  0.0362 -0.1279 -0.0119
 3433W        W18564   2.411  11.309  13.673  0.2815 -0.1763  0.0612
 3434W        W18565  10.202  14.194  12.522  0.2831  0.1705  0.0097
 3435W        W18566   5.322  18.255   5.555  0.2876  0.3688 -0.2051
 3436W        W18567   1.854   3.105  15.409 -0.2082  0.2089 -0.1848
 3437W        W18568   4.272  12.488   4.929 -0.1219 -0.2054 -0.0973
 3438W        W18569  16.308   3.909   5.253 -0.0574 -0.3767  0.2176
 3439W        W18570  14.832   3.665   4.059 -0.2270  0.3371  0.0460
 3440W        W18571   3.338   0.870  15.605 -0.0946 -0.1825  0.1529
 3441W        W18572  17.363  11.493  12.448  0.3214  0.5312  0.0796
 3442W        W18573  10.278   2.657  16.064  0.1884  0.2447  0.0613
 3443W        W18574   8.017   8.401  14.463 -0.0144  0.1416  0.1086
 3444W        W18575  17.856  17.792   5.795  0.2411 -0.0336  0.0881
 3445W        W18576   1.893   6.984   4.697  0.3473 -0.2007 -0.1588
 3446W        W18577  17.397  18.066  15.233 -0.1709  0.2437  0.0232
 3447W        W18578   7.995  13.062  14.186 -0.1010 -0.1282 -0.0590
 3448W        W18579   9.649  12.331  13.344 -0.1352  0.1673 -0.2363
 3449W        W18580  10.838  10.603  15.710 -0.0985  0.0830 -0.1989
 3450W        W18581  13.365   7.296  12.613 -0.0878 -0.2387 -0.0349
 3451W        W18582  12.992  11.172  13.866  0.0700  0.2951 -0.0757
 3452W        W18583  14.125   2.677   1.107 -0.2101  0.0311 -0.1375
 3453W        W18584  17.072  16.778   1.660 -0.3990 -0.1645  0.1992
 3454W        W18585   5.512  11.634  12.546 -0.0192  0.2390 -0.1098
 3455W        W18586  13.942   5.400  14.953  0.0933 -0.2493 -0.0757
 3456W        W18587   0.610   9.664   3.971  0.1418  0.1563 -0.0475
 3457W        W18588  12.459  14.448  11.904  0.1268  0.4678  0.0376
 3458W        W18589  13.874  10.195   5.158 -0.0181 -0.1698 -0.0982
 3459W        W18590   7.855  11.484   5.284  0.0734  0.0070  0.3195
 3460W        W18591  14.547  18.183   1.709  0.0916  0.1532 -0.4254
 3461W        W18592   1.892   8.447   1.696  0.1967  0.3638 -0.0539
 3462W        W18593  17.422  13.557   3.492  0.1008  0.0097  0.0725
 3463W        W18594   8.004  11.277  15.138 -0.0700  0.2900 -0.0909
 3464W        W18595   2.924   6.434   1.113 -0.1959  0.1338 -0.1122
 3465W        W18596   0.270  11.346   0.077  0.0936  0.0225  0.2367
 3466W        W18597   3.114  14.740   3.250 -0.1519  0.4285  0.1683
 3467W        W18598  11.639   8.581   3.415 -0.2401 -0.2205  0.0525
 3468W        W18599  13.473  16.057   4.311  0.1411 -0.1157 -0.0898
 3469W        W18600   6.214   5.732  11.644  0.1311  0.1214 -0.1960
 3470W        W18601   4.504   7.873  10.807  0.2948 -0.0053 -0.0748
 3471W        W18602   7.515   4.112   5.131  0.0456  0.0432  0.0432
 3472W        W18603  13.730  16.493  14.100  0.2595  0.0298 -0.0054
 3473W        W18604   7.910   2.670   2.227 -0.1293  0.0370 -0.1138
 3474W        W18605   6.305   7.886   2.149 -0.2565 -0.2766  0.0751
 3475W        W18606  14.649  14.855   5.638  0.1378  0.0295  0.2525
 3476W        W18607  11.858  17.066  15.078  0.1465  0.2648  0.1198
 3477W        W18608   8.078  10.907  10.841 -0.0305  0.0212  0.1064
 3478W        W18609   5.228  13.250  12.252 -0.4055  0.0432 -0.3155
 3479W        W18610   7.966   5.436   6.217  0.1621 -0.0272 -0.2164
 3480W        W18611   1.751  10.702   2.675 -0.3459  0.2569 -0.3191
 3481W        W18612   0.990  11.721   1.236  0.3836 -0.1761 -0.0490
 3482W        W18613  18.155  12.114   4.196  0.0785  0.3317  0.1684
 3483W        W18614  17.275   5.613  15.098 -0.2021 -0.1301  0.2854
 3484W        W18615  10.507   8.839   1.026 -0.0385  0.1605  0.1426
 3485W        W18616  17.899   8.797   4.421  0.1862 -0.3632  0.1191
 3486W        W18617   2.843   1.678   0.316  0.0077  0.2318  0.0654
 3487W        W18618  12.771   3.499  10.906 -0.2199  0.2316  0.1016
 3488W        W18619   6.008  14.336   2.576 -0.0864 -0.0011 -0.0318
 3489W        W18620   8.478   4.361   3.596  0.4041  0.0500 -0.1303
 3490W        W18621   5.737  16.763   3.260  0.2259 -0.2497 -0.1874
 3491W        W18622   6.018   7.904  15.194 -0.1095 -0.0894 -0.0772
 3492W        W18623   2.289   2.183   2.737  0.0795  0.0989  0.2748
 3493W        W18624  13.533   9.156  15.505  0.1496  0.2143 -0.0058
 3494W        W18625   0.754  15.539   1.643  0.0511  0.2296  0.0040
 3495W        W18626  10.547  12.273   2.813  0.0341 -0.1145 -0.0223
 3496W        W18627   1.371   7.605   3.075 -0.1018  0.2459 -0.0267
 3497W        W18628  17.057  17.072   0.792 -0.1435  0.3141  0.0235
 3498W        W18629  16.503  16.935   5.351 -0.1465  0.0312 -0.1765
 3499W        W18630  11.921  11.796  15.110  0.0910 -0.1350 -0.1538
 3500W        W18631  17.426  14.788   2.386  0.0930  0.3499 -0.1889
 3501W        W18632   1.907   1.056   2.876 -0.0045 -0.1210 -0.1119
 3502W        W18633  12.374  16.078   4.405  0.1547  0.0918 -0.2074
 3503W        W18634   8.345  14.484   3.472 -0.1528 -0.0647 -0.3774
 3504W        W18635   4.650   9.811  10.713 -0.0962 -0.1788 -0.2672
 3505W        W18636   2.831   5.926   3.191 -0.0657 -0.0205  0.3814
 3506W        W18637  14.912  10.220  11.971 -0.0123  0.1019 -0.1360
 3507W        W18638   5.758   9.404   3.404 -0.0626 -0.3209  0.2053
 3508W        W18639  11.989   0.739   1.987 -0.2058 -0.0154 -0.3328
 3509W        W18640   8.748   0.198   3.517  0.0782 -0.1182  0.3158
 3510W        W18641  10.093  17.546   3.416  0.2127 -0.1310 -0.0162
 3511W        W18642  13.441   3.929   2.509 -0.3346  0.2826 -0.0788
 3512W        W18643  14.249   7.737   2.624  0.2913 -0.1452 -0.1865
 3513W        W18644   5.336   7.199  13.896  0.0209  0.1327  0.2879
 3514W        W18645   6.856   6.381  15.965 -0.3663  0.1297 -0.2185
 3515W        W18646   9.274   5.414  14.331 -0.5685  0.1348 -0.1618
 3516W        W18647   2.977   7.893  15.197  0.2843 -0.0942 -0.0754
 3517W        W18648   5.254   0.314  14.232 -0.2872  0.1407 -0.2819
 3518W        W18649   0.849  16.397  11.635  0.0330  0.2489 -0.0300
 3519W        W18650  17.271   6.391  13.644 -0.3004  0.0904  0.0486
 3520W        W18651  15.554   3.620   3.419 -0.3591 -0.1293  0.0561
 3521W        W18652   2.414   3.976   4.260 -0.1525 -0.0836  0.0182
 3522W        W18653   4.594   9.235   0.737  0.0786 -0.2250  0.1468
 3523W        W18654  12.283  12.613  15.679  0.4830 -0.2079 -0.1900
 3524W        W18655   4.788  10.123   3.073  0.0351  0.5293 -0.0442
 3525W        W18656  17.494  14.486   0.194 -0.1627 -0.0061 -0.1569
 3526W        W18657   8.396   1.419   4.555  0.2784 -0.0261 -0.1035
 3527W        W18658  17.165   7.081  13.483  0.2352  0.4787 -0.1189
 3528W        W18659  16.859   8.913  11.705 -0.0111 -0.3135 -0.0499
 3529W        W18660   7.209   7.727   3.234  0.1776  0.2594 -0.0380
 3530W        W18661   6.466   7.685  13.928  0.0974  0.0957 -0.2006
 3531W        W18662   5.426  10.415  11.922 -0.0277 -0.0759  0.0766
 3532W        W18663  11.887   7.055   1.986  0.1260 -0.3963 -0.0578
 3533W        W18664  11.105  14.882   1.211 -0.2428 -0.1435  0.1889
 3534W        W18665   8.156  17.228  14.595 -0.1784  0.1519 -0.0238
 3535W        W18666  14.496  16.784   5.760  0.0299 -0.0932 -0.1340
 3536W        W18667  16.042   5.479   4.330 -0.1798  0.2936 -0.1090
 3537W        W18668  13.601  11.517  13.217  0.0863 -0.2864 -0.1472
 3538W        W18669   9.428  13.018   0.541  0.0036  0.1180  0.0403
 3539W        W18670   7.171   5.299  15.041 -0.0698 -0.1538  0.6311
 3540W        W18671   7.539   0.484  11.888  0.2156 -0.2382 -0.1824
 3541W        W18672  12.830   1.093  10.001  0.1321 -0.0121  0.1574
 3542W        W18673  17.459   3.995   1.555  0.3811 -0.1378  0.1753
 3543W        W18674  10.722  14.005   5.851 -0.1320 -0.0631 -0.0183
 3544W        W18675  15.046  12.492   3.174  0.1242  0.2680 -0.2479
 3545W        W18676   7.411   2.171  15.017 -0.0033 -0.1236  0.1761
 3546W        W18677   1.779  12.217  14.957  0.0320 -0.1599 -0.0406
 3547W        W18678  11.850   0.590  14.228 -0.1778  0.1557  0.0851
 3548W        W18679   6.843  17.178  11.739  0.3460  0.0315  0.2487
 3549W        W18680   8.685   1.576  11.636  0.0709  0.0085 -0.2534
 3550W        W18681   1.797   0.942  15.301  0.2713  0.2296  0.0168
 3551W        W18682  11.060  14.876  13.504  0.1535 -0.0638  0.1287
 3552W        W18683  16.485  14.124   1.635 -0.0011  0.0356 -0.1234
 3553W        W18684  15.737  16.465  13.728  0.0985 -0.1617 -0.2824
 3554W        W18685   2.853  17.751  12.047 -0.0285 -0.0266 -0.0087
 3555W        W18686  16.016   8.956   0.154 -0.0014  0.2692  0.0372
 3556W        W18687   2.040  16.320  14.367  0.0716 -0.3208  0.1875
 3557W        W18688   4.653   4.221  13.101  0.1249 -0.1270 -0.0351
 3558W        W18689   7.097   8.042   2.864  0.0085  0.2029  0.1353
 3559W        W18690  15.058   8.083  14.484  0.1233  0.2303  0.1217
 3560W        W18691  13.596   6.282  15.184  0.0278 -0.0936  0.1460
 3561W        W18692   2.694   4.117   5.508  0.0140  0.0043 -0.1280
 3562W        W18693  11.598   4.597   9.555 -0.0140  0.2949  0.1727
 3563W        W18694   4.030   9.652   1.350 -0.4077  0.0585  0.1125
 3564W        W18695   5.180  17.504  12.475 -0.2866 -0.0797  0.1708
 3565W        W18696  11.593  16.347  15.627 -0.0923  0.0786 -0.3286
 3566W        W18697   9.594   8.554   2.694 -0.0230  0.0088  0.2403
 3567W        W18698   1.731   6.750   4.301  0.3656  0.1776 -0.0343
 3568W        W18699   6.316  16.253   3.743 -0.0581 -0.0415 -0.0553
 3569W        W18700   2.414  14.607   4.452  0.3037 -0.3215 -0.2471
 3570W        W18701  12.656  10.523  10.631 -0.1483  0.1504  0.0950
 3571W        W18702  12.805  10.505  13.709 -0.1057  0.0662 -0.0337
 3572W        W18703  13.513  13.044   5.233 -0.0336  0.0292 -0.0130
 3573W        W18704  17.025   4.284   2.522  0.1123 -0.1571 -0.1289
 3574W        W18705  17.229   8.236   3.206 -0.0361  0.1121 -0.1168
 3575W        W18706   0.974  15.586  13.312 -0.1421 -0.1552 -0.3154
 3576W        W18707  18.074  17.298  11.291  0.1708  0.1397 -0.1963
 3577W        W18708  15.328  16.417   2.427 -0.1273 -0.0786  0.0855
 3578W        W18709  17.284  12.144  15.877  0.1001 -0.0544  0.3031
 3579W        W18710  15.541   5.438   4.641  0.1924 -0.1777 -0.1299
 3580W        W18711   2.273   5.527   1.115 -0.0939  0.4290  0.4344
 3581W        W18712   6.921  14.017   0.807 -0.1781 -0.0112  0.0769
 3582W        W18713   6.412   0.534   3.960 -0.2687 -0.3684  0.0271
 3583W        W18714  15.378  15.610   3.059  0.1884 -0.0777  0.0026
 3584W        W18715   8.278   7.182   1.922  0.1269 -0.1297 -0.0575
 3585W        W18716  14.967   3.011   1.114  0.1171 -0.0857  0.2491
 3586W        W18717  12.215   0.269   3.992  0.1575 -0.0734 -0.3563
 3587W        W18718   3.031   0.196   4.688  0.1200 -0.1871  0.0748
 3588W        W18719  14.035   6.899   3.005  0.3484  0.0676  0.1975
 3589W        W18720  10.034   3.051  13.837 -0.0966  0.2010  0.0518
 3590W        W18721   5.035  11.494  11.468 -0.2953  0.0538 -0.0690
 3591W        W18722  16.882   5.736  15.420 -0.0041  0.0503 -0.2511
 3592W        W18723   3.817  12.114   0.053  0.4125 -0.1236  0.0048
 3593W        W18724   2.258   6.140   2.236 -0.3307 -0.0583 -0.3415
 3594W        W18725   7.278   8.696  11.110  0.0345  0.2440 -0.1737
 3595W        W18726   6.655   9.513   3.977 -0.2109  0.1801  0.1989
 3596W        W18727   7.971   2.046  12.878 -0.0528 -0.3823  0.3753
 3597W        W18728  15.073  11.142  13.211  0.2554 -0.1838 -0.0580
 3598W        W18729   3.264  15.282   4.413 -0.0134 -0.2466 -0.0318
 3599W        W18730   5.059   1.291   6.317  0.1424  0.0634  0.2243
 3600W        W18731  10.566  17.075   0.107 -0.3685 -0.0548  0.0334
 3601W        W18732   2.451   8.618  14.432 -0.1482  0.1244  0.0408
 3602W        W18733  10.034   1.940   2.726 -0.0300  0.0118  0.0607
 3603W        W18734  10.917  14.972   4.065 -0.0927  0.0130 -0.0795
 3604W        W18735  12.655   9.711  12.320  0.0153  0.2656  0.0294
 3605W        W18736   7.478   3.404  13.128 -0.5180 -0.1224 -0.0753
 3606W        W18737   8.831   2.507  12.186  0.2407  0.0629  0.1648
 3607W        W18738   7.931   7.847  14.704  0.0018 -0.2897 -0.1969
 3608W        W18739  15.318   4.841   2.931 -0.1207  0.2221  0.1604
 3609W        W18740   8.808  15.005   6.009  0.0177  0.0712 -0.1476
 3610W        W18741   3.670   6.481  15.151 -0.0401  0.1332 -0.0109
 3611W        W18742   2.236   1.053   0.064 -0.2323  0.0418 -0.0099
 3612W        W18743  11.736   2.676   5.272 -0.5093  0.1132 -0.3243
 3613W        W18744   1.418   7.065   0.305 -0.0261 -0.1093  0.2673
 3614W        W18745  15.923   8.527   3.145  0.1061  0.1054  0.1971
 3615W        W18746  13.750   7.472  14.464  0.1735  0.1094  0.0729
 3616W        W18747   3.828   9.808  10.531 -0.2613 -0.1858  0.0016
 3617W        W18748   1.143   0.551  11.118 -0.2327 -0.2255  0.1802
 3618W        W18749   6.986  14.350   4.050 -0.1498  0.0172  0.0682
 3619W        W18750  17.218   0.738   4.889  0.0443 -0.0909 -0.1126
 3620W        W18751   0.438  17.802   5.181  0.2871  0.1385  0.1363
 3621W        W18752  10.576   4.724  11.548 -0.0836  0.1807  0.0176
 3622W        W18753  13.535   7.472   3.214 -0.0397 -0.2192 -0.1082
 3623W        W18754   6.002   7.135  11.800 -0.1610 -0.1474 -0.1194
 3624W        W18755   2.729   5.310  14.020  0.4972 -0.2148 -0.1924
 3625W        W18756  12.976   2.086  12.011 -0.1303  0.2602  0.2167
 3626W        W18757  14.496   2.487   1.442  0.3027  0.2216  0.0723
 3627W        W18758  15.915   6.379   3.450 -0.0254  0.0273  0.1946
 3628W        W18759   6.670   7.524  14.703 -0.1467  0.0267 -0.0148
 3629W        W18760  13.556  18.127   4.814  0.1404 -0.0634 -0.0701
 3630W        W18761   0.473  10.255   3.914 -0.2906  0.0494  0.3352
 3631W        W18762   6.972  14.429  10.811  0.1070  0.3035  0.1759
 3632W        W18763   3.129   4.095   5.971 -0.0875 -0.0403  0.2997
 3633W        W18764   5.695  14.795  11.797 -0.0021 -0.1599 -0.3581
 3634W        W18765   5.202  17.475  14.940  0.1448  0.1563  0.0454
 3635W        W18766  17.402   7.438   3.650 -0.0527  0.2208  0.2551
 3636W        W18767  14.419   0.664   1.943  0.1944  0.0700 -0.5361
 3637W        W18768   2.078   2.615   2.949  0.0016 -0.2507 -0.0548
 3638W        W18769  16.804  13.315  15.769 -0.0579  0.1714  0.2848
 3639W        W18770   1.071   6.643  12.091  0.0347 -0.1028  0.1593
 3640W        W18771  17.242   1.967   2.413  0.3537  0.3649  0.1706
 3641W        W18772   7.961   2.085   2.169  0.4058 -0.0415 -0.1943
 3642W        W18773  16.022   5.905  11.990 -0.2295  0.1317 -0.0020
 3643W        W18774  14.198   4.219  11.032 -0.2926  0.1169  0.0535
 3644W        W18775  16.444   7.433  11.974  0.0557  0.0533  0.0767
 3645W        W18776  12.335   3.497  15.430 -0.0499 -0.1036 -0.1728
 3646W        W18777   0.855  13.359   3.377 -0.2952  0.1195  0.3379
 3647W        W18778   6.125   6.065   3.116  0.3264  0.1604 -0.0584
 3648W        W18779   2.053   4.569  14.074  0.0130 -0.0411  0.2099
 3649W        W18780  10.641  15.245  10.648 -0.0955  0.2608 -0.1988
 3650W        W18781   6.661   5.706   2.030  0.0795  0.0605  0.1038
 3651W        W18782  10.154  12.318   3.095  0.0712  0.3220 -0.0040
 3652W        W18783  14.447  15.883  12.452 -0.1792 -0.1404 -0.0691
 3653W        W18784   9.555   4.039  12.820 -0.5447 -0.1660 -0.1575
 3654W        W18785  16.054  10.234   1.949  0.1411  0.0941 -0.0716
 3655W        W18786   9.853   6.366  13.110 -0.0243 -0.2342  0.0657
 3656W        W18787  13.696   9.160  12.496 -0.1179  0.0973  0.0580
 3657W        W18788   6.096  13.949   4.196 -0.1167  0.2872  0.1840
 3658W        W18789   2.615  12.763   2.596 -0.1846 -0.2535  0.1914
 3659W        W18790  12.037  15.634   4.649 -0.0277 -0.0296 -0.0798
 3660W        W18791   0.719  10.331   1.018  0.0052 -0.3232  0.0229
 3661W        W18792   8.616   7.134  14.207 -0.3672 -0.0822 -0.0026
 3662W        W18793  17.426   5.665   1.364 -0.2377 -0.1047 -0.0084
 3663W        W18794  17.335  11.810  11.914  0.1115 -0.0234  0.1082
 3664W        W18795  17.177  17.932   0.777  0.1136 -0.1105  0.2254
 3665W        W18796  17.272   3.624  12.874  0.2462 -0.1874  0.1398
 3666W        W18797  16.966   2.087  15.975  0.0871  0.1428  0.1319
 3667W        W18798   3.904  17.810  14.843 -0.1210  0.0428 -0.2191
 3668W        W18799  17.916  14.753   6.233 -0.0164  0.3305  0.0355
 3669W        W18800  12.265  12.870   0.934 -0.1274 -0.1652  0.2162
 3670W        W18801   1.829  10.033   0.647 -0.1800 -0.1951  0.3605
 3671W        W18802   2.010   6.211  14.474  0.0312  0.1422 -0.1879
 3672W        W18803  13.379   8.556   4.851  0.3281 -0.0608  0.0278
 3673W        W18804   5.379   2.947   1.959  0.0169 -0.1871 -0.1823
 3674W        W18805  11.681   3.752   4.186  0.2070 -0.0578  0.1104
 3675W        W18806   3.314  11.776  16.017  0.1598  0.0489 -0.2004
 3676W        W18807  16.552   1.738   3.763  0.3904  0.0917 -0.0700
 3677W        W18808   6.144  14.854   4.441  0.2560  0.0472 -0.0858
 3678W        W18809  17.501   0.709  13.588 -0.3515  0.2507 -0.2193
 3679W        W18810   0.513   2.854  14.021  0.2205  0.2497 -0.1351
 3680W        W18811   5.762  17.177   2.984 -0.1289 -0.0078 -0.2026
 3681W        W18812   1.766   3.673  12.021 -0.2671  0.1886 -0.0531
 3682W        W18813   2.207   7.866   4.521  0.1327 -0.0105  0.0329
 3683W        W18814   1.048  17.365  13.505 -0.0544 -0.1705 -0.0935
 3684W        W18815  15.631   2.087   0.682 -0.0895  0.0035 -0.1852
 3685W        W18816  15.515  17.370  15.923 -0.1349 -0.0523 -0.0761
 3686W        W18817  17.837   0.135   2.499 -0.0848 -0.0709  0.1189
 3687W        W18818   5.696  13.961   3.845 -0.0297 -0.0457  0.0364
 3688W        W18819   6.163   7.691  14.752 -0.1705 -0.1696 -0.0033
 3689W        W18820   6.617  11.827   5.024 -0.2498 -0.0513  0.2056
 3690W        W18821   7.563   9.485  13.290 -0.1825 -0.1568  0.0921
 3691W        W18822  13.097   4.360   4.070 -0.1078  0.2414 -0.1541
 3692W        W18823   1.164  15.361   0.094  0.1305  0.2450 -0.1731
 3693W        W18824  12.634  13.956   3.358  0.0656  0.0444 -0.1954
 3694W        W18825   7.412   4.544  11.967  0.2192  0.1183  0.2517
 3695W        W18826   4.718  10.240  15.189 -0.1168  0.0004  0.0445
 3696W        W18827   0.364  10.802  13.535  0.0599 -0.1168  0.0286
 3697W        W18828   9.650  17.584  11.767 -0.2141  0.1953 -0.0008
 3698W        W18829   8.999   8.169   3.283 -0.1631 -0.0759  0.2539
 3699W        W18830   7.854   7.200   1.569 -0.2926 -0.2544  0.1094
 3700W        W18831   3.088  16.853  13.621  0.1132 -0.0709 -0.0479
 3701W        W18832   0.817   8.615   3.263  0.2631 -0.2204 -0.0556
 3702W        W18833  15.471  10.881  14.006 -0.1294 -0.1204 -0.0097
 3703W        W18834   0.148  12.840  14.810  0.0747 -0.1928  0.0070
 3704W        W18835  16.496  17.508   6.108 -0.0704 -0.0821 -0.1005
 3705W        W18836  16.858   9.550   3.287 -0.0868  0.3861 -0.1196
 3706W        W18837   0.419   4.739  15.837  0.1950  0.0793  0.3700
 3707W        W18838  12.914  18.045   2.022 -0.1778 -0.1472  0.1763
 3708W        W18839  10.180  10.758  15.316  0.4179 -0.0250  0.2031
 3709W        W18840   8.299   1.057  12.276 -0.0911 -0.0054 -0.2906
 3710W        W18841  12.813  11.266   1.413  0.2837 -0.0443  0.2045
 3711W        W18842   2.902  10.122  11.533  0.2082 -0.0365  0.4409
 3712W        W18843   2.475   7.016   3.254  0.0549 -0.2066 -0.2428
 3713W        W18844  12.573  15.262   2.110  0.2103 -0.2070 -0.3124
 3714W        W18845   7.385   4.888   4.794 -0.0079  0.0771  0.2986
 3715W        W18846   1.773  11.721  14.772  0.1918 -0.2777  0.1136
 3716W        W18847   7.525  16.555   3.063 -0.2747 -0.0573  0.1214
 3717W        W18848   7.585  10.782   4.496 -0.4919  0.0665  0.0202
 3718W        W18849   7.510   0.361  11.296  0.1481 -0.0151  0.1223
 3719W        W18850  15.032   5.005   3.248  0.1405 -0.0903  0.0431
 3720W        W18851   7.550  13.748   5.093  0.2470  0.1767  0.2072
 3721W        W18852   2.018  10.418   4.751  0.0288  0.2963  0.2814
 3722W        W18853   3.236  17.003  11.025  0.0099 -0.0763 -0.2114
 3723W        W18854   4.976  16.880   2.558  0.0877  0.0363  0.1493
 3724W        W18855  10.707   5.981  12.738 -0.0510  0.1142  0.0292
 3725W        W18856   0.502  17.442  14.868 -0.0405  0.3076 -0.0740
 3726W        W18857   2.145  12.622  14.547  0.3748  0.1112  0.0462
 3727W        W18858  15.118   0.481  13.736  0.1531 -0.0150  0.1109
 3728W        W18859   5.062  17.360  15.519 -0.0253  0.1549 -0.0398
 3729W        W18860   5.469   7.936  13.276 -0.2700  0.0862  0.0100
 3730W        W18861   7.280  17.340  13.835  0.1068 -0.0023  0.1135
 3731W        W18862   5.253  12.609  15.122 -0.1747 -0.2612  0.2048
 3732W        W18863   4.205  11.889   2.008 -0.0692 -0.0149 -0.0400
 3733W        W18864   0.100  10.203  15.803  0.0295 -0.0275 -0.1346
 3734W        W18865  14.296  12.064   3.122 -0.0222  0.0307  0.0156
 3735W        W18866   8.143  11.135  11.253  0.3558 -0.1929 -0.2058
 3736W        W18867   7.579   3.541   5.776  0.2085 -0.2046 -0.1284
 3737W        W18868   1.422   3.109  14.574 -0.3292 -0.3906  0.1842
 3738W        W18869   9.564   0.007   3.630  0.2453  0.0926  0.0291
 3739W        W18870  12.873  11.839  14.244 -0.1785  0.4326  0.1310
 3740W        W18871   9.684   6.249  14.723  0.1089 -0.4027 -0.3973
 3741W        W18872   3.805   1.413  14.640  0.0043 -0.0879 -0.0172
 3742W        W18873   2.472   5.842  14.330  0.0643  0.0144 -0.1079
 3743W        W18874  14.149   7.967  15.311 -0.0051  0.3246 -0.0463
 3744W        W18875  13.004  11.227  15.816  0.0927 -0.2890 -0.0941
 3745W        W18876   7.736   9.687   1.068 -0.1301  0.1006 -0.1416
 3746W        W18877   4.064   4.273   2.657  0.4412  0.2051  0.0461
 3747W        W18878   7.321   9.869  11.002  0.0780 -0.1903 -0.0344
 3748W        W18879   1.178  12.028   0.074 -0.2303  0.1563 -0.0512
 3749W        W18880  16.032   6.680   1.132 -0.1848 -0.0179  0.2339
 3750W        W18881  13.030  12.614  14.199 -0.1611  0.2253  0.2585
 3751W        W18882   6.745   0.022   0.729  0.3194 -0.2478  0.1496
 3752W        W18883  16.792   5.216   5.407  0.1013  0.0995 -0.2630
 3753W        W18884  17.702   5.881   1.726 -0.2263  0.2037  0.1703
 3754W        W18885   7.868  13.080  12.150 -0.1917 -0.0177 -0.0973
 3755W        W18886   1.737  13.542   2.841 -0.1877 -0.1859  0.1508
 3756W        W18887  14.010   5.636   3.554  0.0108  0.1399 -0.2753
 3757W        W18888   5.474   5.637   0.676 -0.1561 -0.1927 -0.0148
 3758W        W18889  16.328   0.123   5.085 -0.0449  0.0208  0.0016
 3759W        W18890   7.568  11.927   3.970  0.1391 -0.0575 -0.0032
 3760W        W18891  11.729   0.989  13.989 -0.1132  0.2961 -0.2514
 3761W        W18892   3.878   7.536  11.561 -0.3785  0.2062  0.2892
 3762W        W18893   6.438  15.571   1.956 -0.0583  0.0401  0.0675
 3763W        W18894  16.519  11.955   2.705 -0.1793 -0.1173  0.4472
 3764W        W18895   6.690  10.904   0.101 -0.0395 -0.1598 -0.2130
 3765W        W18896  12.295  17.145   0.005 -0.1374 -0.0041 -0.1136
 3766W        W18897   6.879  13.969  11.897  0.1290  0.2269 -0.0949
 3767W        W18898   6.858   9.200  12.017 -0.1326 -0.1142  0.0502
 3768W        W18899  10.985  12.956  10.839  0.1148 -0.3842  0.2141
 3769W        W18900   0.101  14.419   4.573 -0.2059 -0.3696 -0.1313
 3770W        W18901  17.366   6.088  11.697 -0.2268 -0.2112  0.2802
 3771W        W18902  10.934   6.993   2.616 -0.0336  0.2881 -0.1394
 3772W        W18903  16.450   0.569   0.317  0.1857 -0.2998  0.0691
 3773W        W18904   2.332   2.993  14.774 -0.1723 -0.0255  0.3265
 3774W        W18905   7.721   8.926  11.721 -0.1932  0.2407  0.0379
 3775W        W18906  10.431  15.949  12.759  0.1340 -0.0954  0.0771
 3776W        W18907   1.671  12.238   5.426  0.2369 -0.0113 -0.1432
 3777W        W18908   4.921  15.315  13.555  0.2199 -0.2261 -0.0753
 3778W        W18909  12.186  10.137  11.710  0.0314 -0.1818  0.0723
 3779W        W18910   9.854  11.612  10.298 -0.1254  0.0852  0.2015
 3780W        W18911   8.410  12.151  14.170  0.2761  0.2297  0.0268
 3781W        W18912   7.075  10.919   2.763  0.1077  0.2202 -0.1647
 3782W        W18913  10.775  12.993  11.874 -0.2018  0.0276  0.0308
 3783W        W18914   2.819   8.570   2.011 -0.3186 -0.0464  0.1830
 3784W        W18915  16.050  14.301   6.056  0.1143  0.0883  0.0227
 3785W        W18916   7.530  15.383   0.467  0.2317 -0.1250 -0.0959
 3786W        W18917  14.791   4.342  15.051  0.0737 -0.0526 -0.2445
 3787W        W18918   5.089   9.849  11.980 -0.1043 -0.1188  0.0231
 3788W        W18919  17.783  12.160   2.388 -0.1690  0.0401 -0.1369
 3789W        W18920  17.078   8.039  15.415  0.1796 -0.2455 -0.0607
 3790W        W18921   5.228  12.284   1.656 -0.1520 -0.1296  0.0813
 3791W        W18922  15.810  16.018  14.987 -0.1126 -0.4309  0.0096
 3792W        W18923  12.819   4.913  12.032 -0.1161  0.2664  0.0908
 3793W        W18924  10.256  14.423   1.477  0.0366  0.1454  0.0594
 3794W        W18925   2.626   6.332   0.029  0.0289 -0.2532 -0.4231
 3795W        W18926  14.465   0.290  14.980 -0.1069 -0.1121  0.3368
 3796W        W18927   6.730  14.720   4.258  0.2400 -0.5190 -0.3483
 3797W        W18928   1.164   9.998  14.627  0.2600  0.0585 -0.1020
 3798W        W18929  16.001  15.601  15.203 -0.1614  0.1082 -0.0487
 3799W        W18930  11.241  12.343   3.832 -0.3775  0.0201 -0.2104
 3800W        W18931  18.185  10.783   5.196  0.4184 -0.0139 -0.0958
 3801W        W18932  14.665   1.015   1.082  0.0840  0.0915 -0.1328
 3802W        W18933  12.986  16.877  13.556  0.1612 -0.0068 -0.0216
 3803W        W18934  11.876   4.118  11.470  0.1426  0.0994  0.0101
 3804W        W18935  12.264   6.433  12.262  0.1347  0.0329 -0.0230
 3805W        W18936   7.248   3.748  11.717 -0.1033  0.0826  0.2035
 3806W        W18937   5.402   8.360   4.260 -0.1862 -0.0188 -0.2504
 3807W        W18938  11.558  15.544  13.310  0.0222  0.2550 -0.0027
 3808W        W18939   5.586  17.743  10.831 -0.1255  0.1678 -0.2243
 3809W        W18940  10.291   4.435  13.307 -0.1491 -0.1599 -0.1720
 3810W        W18941   7.433  12.771   3.676 -0.1253  0.0429  0.1699
 3811W        W18942   0.926   3.305  15.969 -0.2386  0.0580  0.1301
 3812W        W18943  13.396   3.607   3.525 -0.0567  0.0911  0.2660
 3813W        W18944   8.438   8.288  13.275 -0.2346  0.1783  0.0125
 3814W        W18945   0.029   5.947  11.391  0.1947 -0.0367 -0.1755
 3815W        W18946   2.050   8.648   1.273 -0.0035  0.1549 -0.2123
 3816W        W18947   4.801   7.285  15.869  0.0381 -0.3425 -0.1351
 3817W        W18948   0.812  15.694   4.788  0.1684 -0.0697 -0.1848
 3818W        W18949   8.607   9.194   4.867  0.1126  0.4762  0.1097
 3819W        W18950   4.081  18.266   3.434  0.1840  0.2403 -0.2686
 3820W        W18951   3.245   0.698   5.552  0.0061 -0.0362 -0.1366
 3821W        W18952   4.137   2.758   5.246 -0.1404 -0.1265 -0.0807
 3822W        W18953  13.192  16.129  11.001  0.2943  0.0270 -0.1714
 3823W        W18954   4.829   6.719  13.262 -0.1534 -0.1644 -0.0681
 3824W        W18955   9.201   7.334  14.993  0.0445  0.2891  0.0372
 3825W        W18956   5.776  12.608   2.150 -0.0637 -0.0953 -0.0231
 3826W        W18957   8.835   4.787   4.822  0.0125 -0.2019  0.0580
 3827W        W18958  10.289  16.025   2.916  0.2066 -0.3861  0.2092
 3828W        W18959   8.161  13.404  15.273 -0.2250 -0.1110 -0.0771
 3829W        W18960   0.430   8.087   5.928  0.2208 -0.1451 -0.1155
 3830W        W18961  12.290   7.903   3.617  0.1258  0.2406 -0.1143
 3831W        W18962   4.684  14.740   4.385 -0.2535 -0.0644 -0.1134
 3832W        W18963   7.281   6.392   1.502  0.0542  0.0566 -0.0918
 3833W        W18964   4.650   7.580   4.040  0.1886  0.0043 -0.4740
 3834W        W18965   2.937   6.322   5.002 -0.2430 -0.1358  0.1422
 3835W        W18966   7.288   1.162   5.431 -0.0377 -0.0624 -0.2111
 3836W        W18967   1.360   3.885  13.311 -0.1365 -0.1818  0.3660
 3837W        W18968  12.579   4.301   3.798  0.1408  0.2475 -0.1078
 3838W        W18969   6.082  16.032  14.695  0.1527 -0.0857 -0.0383
 3839W        W18970  16.780   3.859  12.766  0.0376  0.0603  0.0328
 3840W        W18971   2.083  17.985  13.962 -0.2179  0.0800  0.0487
 3841W        W18972  14.458  13.800   9.651  0.1672  0.3062  0.2877
 3842W        W18973   5.583   8.469   1.074  0.3127  0.0361 -0.1522
 3843W        W18974  16.202  16.823  13.155 -0.2604 -0.1240  0.0196
 3844W        W18975  17.260  12.516   1.792 -0.1966 -0.0780  0.3867
 3845W        W18976   8.462   6.175  13.955 -0.1181 -0.0893 -0.1491
 3846W        W18977   5.533  15.298   6.063  0.2204 -0.0235 -0.1974
 3847W        W18978  12.135  13.167  12.348  0.0907  0.1327 -0.0871
 3848W        W18979   6.559   8.223  11.330 -0.2333 -0.0587 -0.3277
 3849W        W18980   1.953  12.341   4.849  0.0321  0.1164  0.0982
 3850W        W18981  11.285  17.163   1.279  0.1097  0.0910 -0.0042
 3851W        W18982  13.784  16.975   3.841 -0.0358 -0.3522  0.2389
 3852W        W18983  17.206   9.713  11.421  0.4253 -0.1980 -0.2296
 3853W        W18984  14.807   0.127  12.458  0.1018  0.1033  0.1583
 3854W        W18985  17.558   5.657   3.925 -0.0081  0.1020  0.1448
 3855W        W18986   1.683   1.698  15.583  0.1531 -0.0241  0.0492
 3856W        W18987   8.704  12.047   0.255  0.3375 -0.0703 -0.1617
 3857W        W18988  10.293  18.132  11.742 -0.1549 -0.0704 -0.0193
 3858W        W18989  11.688   1.382  10.923  0.0273 -0.1215  0.0636
 3859W        W18990  14.809  12.571   4.785 -0.0194 -0.0897 -0.1705
 3860W        W18991   6.639   9.205   3.333 -0.3044 -0.0646 -0.0296
 3861W        W18992  14.876  11.789  14.068 -0.1448  0.0473 -0.0679
 3862W        W18993  14.374  17.206   0.979  0.2380  0.0433 -0.2212
 3863W        W18994   5.970  17.220   3.430  0.1887 -0.1380 -0.1114
 3864W        W18995  17.871   2.927  15.519  0.2395 -0.2559 -0.0116
 3865W        W18996  16.937  15.533   1.153 -0.1462  0.2354  0.1931
 3866W        W18997   2.391  12.054  14.277  0.0009  0.0214  0.4406
 3867W        W18998   6.454  13.943  13.415  0.2379 -0.2379 -0.0350
 3868W        W18999  13.082   9.756  14.580  0.3888  0.3986  0.0997
 3869W        W19000   3.667   8.863   2.282 -0.1574  0.0103 -0.0086
 3870W        W19001  10.555  17.875   1.522 -0.0324  0.3136 -0.3480
 3871W        W19002   7.610   1.612   1.371 -0.2383 -0.2652  0.1831
 3872W        W19003   6.282  17.577   5.604  0.0288 -0.1490 -0.2076
 3873W        W19004   6.529  11.216   2.397 -0.0353 -0.0584  0.1423
 3874W        W19005   1.995  10.123  12.865  0.0131 -0.1043  0.1332
 3875W        W19006   5.942   1.061   0.107  0.3062 -0.2941 -0.1320
 3876W        W19007  16.832   8.660   3.355  0.2272  0.1895 -0.1010
 3877W        W19008   2.741  16.904   4.960 -0.0542  0.1985  0.0459
 3878W        W19009  14.627   4.117   1.035  0.1610  0.0146  0.0987
 3879W        W19010   3.616   3.438   2.759 -0.1584  0.5031  0.1958
 3880W        W19011  12.282  16.869   5.229  0.1870  0.0413  0.0101
 3881W        W19012   6.146   1.124  12.580  0.2751 -0.2958 -0.0259
 3882W        W19013   6.681  11.289  10.220  0.0394  0.1464 -0.0528
 3883W        W19014   1.539  16.341   3.710  0.3104  0.0912 -0.1853
 3884W        W19015   1.096  13.204   0.643 -0.0058 -0.1176  0.0353
 3885W        W19016  14.065   2.316  14.671  0.0919  0.1614 -0.2955
 3886W        W19017  16.266   1.447  11.568  0.2923 -0.2010  0.1211
 3887W        W19018  13.944  15.659   3.412 -0.0656 -0.0259  0.0135
 3888W        W19019   2.407  17.779  12.908  0.0105 -0.0384 -0.1252
 3889W        W19020  11.104  15.215   5.007  0.1521 -0.2006  0.2402
 3890W        W19021  13.387  13.382  14.545  0.3017  0.0139  0.1839
 3891W        W19022   4.359   3.649   1.505 -0.1491  0.2188  0.0257
 3892W        W19023  14.249   3.582   2.164  0.1945 -0.0561  0.1341
 3893W        W19024   5.575   8.647  13.827  0.1887 -0.0553  0.1978
 3894W        W19025  16.072   2.993  13.788 -0.0668  0.0212  0.0189
 3895W        W19026   7.103  15.469  12.123 -0.0388 -0.0650 -0.1242
 3896W        W19027  13.901   0.952   1.066 -0.2286 -0.3520  0.1635
 3897W        W19028   6.834  14.974   3.876  0.0447  0.1779  0.2688
 3898W        W19029  12.060  14.165  10.406  0.1545 -0.0046 -0.0177
 3899W        W19030   4.582  14.130   4.812 -0.0695 -0.0492  0.3809
 3900W        W19031  12.879  10.419   3.551  0.0566 -0.0433 -0.0750
 3901W        W19032   8.508  14.101   2.457  0.1547 -0.1954  0.2667
 3902W        W19033  15.677   5.012  11.736 -0.2326 -0.2215  0.1092
 3903W        W19034   6.512   3.635   3.182 -0.1183  0.2570  0.1078
 3904W        W19035   5.167  10.896  13.023  0.1654  0.1394 -0.1052
 3905W        W19036   3.145  12.557   1.467 -0.1752 -0.0271 -0.0188
 3906W        W19037   8.164   3.775   3.889 -0.0516 -0.2992 -0.3230
 3907W        W19038   8.736  15.415   3.600 -0.1770  0.0247  0.2332
 3908W        W19039   7.236  18.075   5.956 -0.1023  0.3468 -0.1490
 3909W        W19040   2.902   1.805   1.426  0.1487 -0.1340 -0.0236
 3910W        W19041  13.944   9.113  11.296  0.0598  0.2801 -0.1575
 3911W        W19042  16.718   5.331  15.768 -0.1462 -0.0327 -0.0005
 3912W        W19043  14.170   0.848  15.407 -0.2618  0.1896 -0.2090
 3913W        W19044   6.944   1.612   2.333 -0.2607 -0.1119 -0.2239
 3914W        W19045   8.464   7.056   9.936  0.3497 -0.3366 -0.2240
 3915W        W19046  10.162  10.135   3.902  0.1783 -0.3604  0.0354
 3916W        W19047  14.081   2.543  11.340 -0.1419 -0.0782  0.0042
 3917W        W19048   6.729  14.306   5.460  0.1042  0.2095  0.0491
 3918W        W19049   5.628  14.182  11.233  0.0797  0.0186  0.2087
 3919W        W19050  13.323  16.271  15.792 -0.0313  0.0496  0.0581
 3920W        W19051   8.610   7.654   4.725  0.0227 -0.1320 -0.0083
 3921W        W19052  11.652  11.257   1.933  0.0886  0.0701  0.2213
 3922W        W19053  10.248   2.780   5.636 -0.2181  0.1795  0.2627
 3923W        W19054  13.605  12.790  10.933 -0.1062 -0.0178 -0.0644
 3924W        W19055  15.045  18.083   2.335  0.0270 -0.1668 -0.0745
 3925W        W19056  10.160  16.120   5.059  0.1187  0.2686  0.2625
 3926W        W19057   6.344  10.888   3.785  0.0525 -0.0328 -0.1203
 3927W        W19058   7.751   5.693   4.846  0.0956 -0.1393  0.0646
 3928W        W19059   3.144   5.687   0.003 -0.0155  0.1636 -0.0548
 3929W        W19060  14.728  12.705  12.677 -0.1130 -0.1194 -0.0234
 3930W        W19061   6.018  12.973   3.162 -0.1847 -0.2299  0.0888
 3931W        W19062  11.564  14.605  15.112  0.3572  0.1386  0.0327
 3932W        W19063  11.843   6.762  12.235  0.0621  0.1328 -0.0264
 3933W        W19064   0.853  12.901   0.341  0.0777  0.1095 -0.4630
 3934W        W19065  12.503  11.056   0.937 -0.1053 -0.1506  0.3709
 3935W        W19066   3.833  14.682  14.466  0.2626  0.1317 -0.1132
 3936W        W19067  13.478  13.042   1.797  0.1861 -0.3302 -0.0972
 3937W        W19068  15.755   7.427   5.005 -0.0203  0.0107  0.0351
 3938W        W19069  12.168  17.364   0.921 -0.1082 -0.3529 -0.2284
 3939W        W19070  13.063   7.608   1.378 -0.3210  0.0876 -0.1461
 3940W        W19071   1.440   1.680   0.395 -0.2518  0.0212 -0.2013
 3941W        W19072  12.478  12.606   2.057  0.1286  0.2085 -0.5739
 3942W        W19073   4.477   6.514   2.319 -0.0941 -0.0752  0.0233
 3943W        W19074   4.720   3.901  15.132  0.0769  0.1150 -0.1750
 3944W        W19075  16.835   3.159   0.045  0.2159  0.1626 -0.0676
 3945W        W19076   4.328   3.597   5.654  0.1664  0.2959  0.2086
 3946W        W19077  12.235  14.616   0.716 -0.1006 -0.3325  0.1234
 3947W        W19078   5.773   5.578   4.046  0.1136 -0.0128  0.1320
 3948W        W19079  17.576  15.787  15.182 -0.2355  0.0058 -0.0847
 3949W        W19080   0.636  13.094  16.038  0.2914 -0.2911  0.0719
 3950W        W19081   1.670  11.838   5.692  0.4916 -0.1945  0.2613
 3951W        W19082   1.270  12.699   3.704  0.1352 -0.0825 -0.2079
 3952W        W19083   4.770  16.952  15.292  0.0043  0.2954 -0.1995
 3953W        W19084  10.229   3.665   4.987 -0.0366 -0.2117  0.2264
 3954W        W19085   9.180   1.247  10.954 -0.2174 -0.1489 -0.3811
 3955W        W19086  10.165  16.547   3.674  0.2931 -0.0970  0.2580
 3956W        W19087  13.437  13.244  11.117  0.0229 -0.1543  0.0999
 3957W        W19088   9.658  16.477   0.292  0.1059 -0.2426 -0.1084
 3958W        W19089  15.206  12.121   1.567 -0.0494  0.0601 -0.0407
 3959W        W19090  12.145   5.527   3.725 -0.1263  0.1724  0.2533
 3960W        W19091   2.613  10.217   4.744  0.1642 -0.1682 -0.0550
 3961W        W19092   5.684  14.385   0.165  0.4273  0.0199 -0.0702
 3962W        W19093  18.023  16.299   2.786 -0.0629 -0.1469 -0.0385
 3963W        W19094  11.054  10.552  14.205  0.0602 -0.0280  0.0219
 3964W        W19095  10.676   4.901  15.615  0.0369  0.1038  0.1238
 3965W        W19096   0.220   8.446  14.675 -0.4984 -0.1850 -0.0366
 3966W        W19097   7.333   2.698   2.168  0.0791 -0.2169  0.1587
 3967W        W19098   4.744  14.249   4.356  0.1223 -0.0727 -0.0813
 3968W        W19099  10.088   5.018  11.673  0.0087  0.2592  0.0590
 3969W        W19100   4.244  14.486   4.941  0.1161 -0.1244 -0.4076
 3970W        W19101  16.140   4.293   3.527 -0.1116  0.0574 -0.0002
 3971W        W19102  11.021   7.169   2.130  0.1169 -0.0623 -0.2836
 3972W        W19103  14.522   9.791   0.605  0.3201 -0.3903  0.1334
 3973W        W19104  18.214  15.666   0.952  0.1209 -0.0937 -0.0952
 3974W        W19105   0.634  12.578   3.848  0.2661 -0.2372  0.0320
 3975W        W19106   3.000   7.468   3.443  0.2280 -0.0672 -0.0076
 3976W        W19107   1.564  13.118  13.501 -0.2015  0.0770  0.0590
 3977W        W19108   1.425   3.624  12.882 -0.1981  0.1233 -0.1264
 3978W        W19109  13.593  14.330   2.205  0.1449  0.0524 -0.3492
 3979W        W19110  16.697  14.695   2.206 -0.0595  0.1131  0.2543
 3980W        W19111   5.452   8.556   0.484 -0.3315  0.0826 -0.0974
 3981W        W19112  10.278  16.485   9.619  0.0166  0.1876  0.1151
 3982W        W19113  16.991   6.776  13.857  0.0263  0.0078  0.0833
 3983W        W19114   2.108   8.853  14.721  0.2180 -0.1499 -0.1623
 3984W        W19115  17.590   1.580  11.321 -0.2880  0.1964 -0.4668
 3985W        W19116  12.932  15.345  14.566  0.0859  0.0239 -0.3122
 3986W        W19117  13.442  11.301  10.904 -0.0565  0.1792  0.2528
 3987W        W19118   4.655   6.466   4.781 -0.1720 -0.1729 -0.1618
 3988W        W19119  11.790  11.166   2.402 -0.1600 -0.2571  0.0902
 3989W        W19120  10.855   8.517  13.458  0.1827 -0.0838  0.0653
 3990W        W19121   4.398   6.326   5.347 -0.2756  0.0465 -0.1013
 3991W        W19122   9.869   7.479  15.434  0.0664 -0.0404  0.1193
 3992W        W19123   6.841  16.300   0.448  0.1209 -0.0408  0.2768
 3993W        W19124   0.745   4.949   0.091 -0.1439 -0.0710  0.2985
 3994W        W19125  18.327  10.896   0.876 -0.0497  0.0618  0.0869
 3995W        W19126  15.848  13.296   5.852 -0.1036 -0.2894 -0.0838
 3996W        W19127   3.494   0.569   4.687 -0.1091 -0.2343  0.1021
 3997W        W19128  11.430   4.416   4.164  0.1337  0.0601  0.2519
 3998W        W19129   2.952  11.663  13.048  0.2989  0.3160  0.1385
 3999W        W19130  13.434   2.952   4.001  0.1358 -0.2012  0.0475
 4000W        W19131  16.046   4.136  10.578  0.2233 -0.1252 -0.0430
 4001W        W19132  13.379  13.443   2.105 -0.0527  0.3912  0.0715
 4002W        W19133   4.562   5.070   4.454  0.2243 -0.0391 -0.4951
 4003W        W19134  17.986  12.520  15.435 -0.1564  0.0743  0.1696
 4004W        W19135   8.422  13.359  13.010 -0.0841 -0.0510 -0.1151
 4005W        W19136  10.432  15.401  14.040  0.3863  0.0262  0.1573
 4006W        W19137   1.813  15.304   5.781  0.0928  0.3757  0.2954
 4007W        W19138  15.167   0.387  11.186 -0.1200  0.0704  0.3371
 4008W        W19139   4.430  16.240   4.478  0.1692 -0.0020  0.0020
 4009W        W19140   8.912  11.646  14.906 -0.2578 -0.0694 -0.2157
 4010W        W19141  14.555  14.613  14.303  0.2211 -0.1290 -0.1368
 4011W        W19142   8.690  18.158  13.085 -0.0395  0.0551  0.0315
 4012W        W19143  12.447  11.333  13.705  0.2593  0.1338 -0.0624
 4013W        W19144   4.099   3.653   0.173  0.1507  0.0795  0.0524
 4014W        W19145   4.757  14.573   4.927  0.0324  0.4790 -0.1214
 4015W        W19146   0.945   7.036  13.041  0.2363 -0.0283  0.0483
 4016W        W19147   3.258  15.116   6.214 -0.1226  0.1641 -0.2064
 4017W        W19148   5.348   3.534   0.634 -0.2894  0.1299  0.0119
 4018W        W19149   8.140  11.641  11.037 -0.0021 -0.1699  0.2575
 4019W        W19150  17.260  11.117   3.664  0.1730 -0.1803 -0.0038
 4020W        W19151  17.494   6.739   4.660 -0.0216  0.1354  0.2997
 4021W        W19152   5.869   4.608   0.605  0.1038  0.1928  0.1080
 4022W        W19153  12.252  16.911  12.961 -0.1821 -0.1160 -0.2709
 4023W        W19154  16.143  15.067   2.182 -0.3299  0.2782 -0.2630
 4024W        W19155   7.811   2.002   0.493  0.0446  0.2788 -0.1133
 4025W        W19156   1.861   4.809   0.260  0.0333  0.0914 -0.0430
 4026W        W19157  11.646   7.998   3.465 -0.2513  0.1840  0.0170
 4027W        W19158   5.650  10.183   4.641 -0.1379 -0.2571 -0.3172
 4028W        W19159   2.439  12.004   5.018 -0.1627  0.0395 -0.0799
 4029W        W19160  15.937  10.815   0.850  0.3751  0.2177 -0.3075
 4030W        W19161  15.226   7.529   2.989 -0.0382 -0.0500  0.0464
 4031W        W19162  14.455  15.019  12.529  0.3858  0.0826  0.0492
 4032W        W19163   1.019   8.061  11.573  0.1068  0.2975  0.1958
 4033W        W19164   9.068   4.176  11.996  0.0412  0.1083  0.1725
 4034W        W19165  17.679   0.177   4.222 -0.0721  0.3440  0.1227
 4035W        W19166   7.585  15.208   4.424 -0.1584  0.1390  0.0598
 4036W        W19167   7.549  14.698   3.301 -0.0408  0.0644  0.1034
 4037W        W19168   7.684   3.512  15.349  0.0406 -0.1321 -0.1837
 4038W        W19169   2.350  10.590   5.055 -0.0305 -0.0716  0.1544
 4039W        W19170   6.236   8.527  15.834 -0.1145  0.0706 -0.3261
 4040W        W19171  11.272   8.253   0.947 -0.0891 -0.1619 -0.1420
 4041W        W19172   1.187   6.854  14.726 -0.1470  0.0414 -0.0973
 4042W        W19173   9.989  17.793  12.145  0.1444  0.1313  0.0853
 4043W        W19174   6.376  16.417   2.713  0.4630  0.0832 -0.0827
 4044W        W19175   2.309  15.316   1.367  0.2955 -0.0498  0.1783
 4045W        W19176  12.526  15.473   0.084  0.1220 -0.3757  0.0327
 4046W        W19177  18.023   5.686   3.177 -0.0657  0.0951  0.0004
 4047W        W19178   9.889   4.204   3.339 -0.0770  0.0975  0.2490
 4048W        W19179   6.386   1.165   5.136  0.0020 -0.0448  0.1645
 4049W        W19180   2.765  16.583  12.678 -0.1202  0.0281 -0.3238
 4050W        W19181  10.011   4.219   5.233  0.3241  0.2530 -0.0753
 4051W        W19182   2.616   0.517   1.919 -0.0718  0.1558 -0.2391
 4052W        W19183   2.109  12.551   2.405  0.1518 -0.0007  0.0573
 4053W        W19184  10.190  14.245  13.887 -0.0550  0.0165  0.0699
 4054W        W19185  11.718  10.321  11.585 -0.1064  0.1342 -0.2420
 4055W        W19186   9.256   5.348   3.269  0.1970 -0.2411 -0.3250
 4056W        W19187   8.680   5.264   9.916  0.2617 -0.0966 -0.0888
 4057W        W19188   7.033  13.418   0.478 -0.0607 -0.3558  0.1813
 4058W        W19189   7.760   6.853   5.732  0.3559 -0.0288 -0.0028
 4059W        W19190   6.492   4.072  12.697 -0.0831 -0.1246 -0.1391
 4060W        W19191  10.281   6.157   1.016  0.0726 -0.1914  0.2533
 4061W        W19192   4.317  14.102  13.850 -0.2632 -0.3090  0.0908
 4062W        W19193   3.888   4.574  11.947  0.2021 -0.1396 -0.2402
 4063W        W19194  10.050  15.177  11.073 -0.1673  0.0931 -0.2759
 4064W        W19195   0.654  16.314   2.317 -0.1386  0.2999 -0.2326
 4065W        W19196   8.427   3.187  11.220 -0.2066 -0.1493 -0.1002
 4066W        W19197  16.108   3.981   6.298 -0.1697  0.0386 -0.3588
 4067W        W19198   3.738   5.415  14.512 -0.2687 -0.0961  0.0297
 4068W        W19199  10.027   9.054  11.792 -0.0152  0.1270  0.3015
 4069W        W19200   3.408   1.039   0.814  0.2992  0.0160 -0.0782
 4070W        W19201   5.576   7.120   2.878  0.0443  0.0276 -0.2945
 4071W        W19202  13.432  12.440  15.026 -0.0833  0.0010  0.1613
 4072W        W19203   6.138   8.885  14.540 -0.3316  0.4245  0.0058
 4073W        W19204   2.214   4.292  13.131 -0.3868 -0.2011 -0.1959
 4074W        W19205   0.205   1.043   0.737  0.3909 -0.0051  0.1038
 4075W        W19206   1.445   6.168  14.588 -0.1302  0.1094  0.2493
 4076W        W19207   1.358   3.029  13.725  0.1041  0.0042 -0.0301
 4077W        W19208   0.596   8.020  11.889  0.2639 -0.2225 -0.0064
 4078W        W19209   7.768   3.363  10.046  0.5110 -0.0485  0.2448
 4079W        W19210   4.363  10.129  11.674  0.2088 -0.2259 -0.0720
 4080W        W19211   6.957   7.433  11.508 -0.0033 -0.1976 -0.1522
 4081W        W19212   4.513  15.583   3.928 -0.0056 -0.1419  0.0317
 4082W        W19213  14.887   0.632  16.099  0.2635 -0.1704 -0.3320
 4083W        W19214   8.965  13.094   4.179  0.0037  0.2500 -0.0734
 4084W        W19215   7.380  14.606   0.062 -0.2765  0.1950 -0.0226
 4085W        W19216   7.756  16.522  14.258 -0.0199 -0.1042 -0.0151
 4086W        W19217  16.529   7.208  15.362  0.2181  0.2259  0.1660
 4087W        W19218  17.451   3.519   5.032 -0.0720  0.0449 -0.0295
 4088W        W19219  15.484  12.843   0.909  0.0245  0.1545  0.2012
 4089W        W19220  12.199  15.397  11.485 -0.1911  0.2036  0.3172
 4090W        W19221   7.684   5.764  12.932 -0.2726 -0.1880  0.0124
 4091W        W19222   0.735   9.267   0.171 -0.2006  0.1823  0.0450
 4092W        W19223   8.497   4.761  13.704 -0.1912 -0.0241  0.1103
 4093W        W19224   7.765  13.994  14.829 -0.0676  0.4403 -0.0394
 4094W        W19225   1.415  13.822   0.331 -0.0632  0.2907 -0.0090
 4095W        W19226  14.456  11.097  14.947 -0.1626 -0.3283 -0.2889
 4096W        W19227   1.976  17.629  13.451 -0.2041  0.0354  0.0457
 4097W        W19228  14.543   4.880  11.888  0.0995 -0.3286 -0.2810
 4098W        W19229  11.198  13.720  14.892 -0.2374  0.0615 -0.2390
 4099W        W19230  17.741  13.402   0.799  0.0052  0.0372  0.2016
 4100W        W19231   0.312   6.168   1.686  0.2212  0.2069  0.1317
 4101W        W19232   2.131  10.474   3.833 -0.2077  0.1832  0.2968
 4102W        W19233  17.021  14.043   1.594 -0.0775 -0.1555 -0.2263
 4103W        W19234  15.072  12.331  12.691 -0.0910 -0.0561  0.2176
 4104W        W19235   0.503  17.920   3.294  0.1118 -0.0113 -0.2190
 4105W        W19236   3.440  12.745  14.107 -0.3453 -0.1410 -0.2153
 4106W        W19237   6.522  10.714  11.036 -0.0270 -0.1072  0.0627
 4107W        W19238  17.595   5.377   0.014  0.0011 -0.0007  0.0497
 4108W        W19239   4.266  15.346  10.895 -0.0482  0.0068 -0.3712
 4109W        W19240   9.726   5.887   4.993 -0.2056  0.0489 -0.2696
 4110W        W19241  10.547   1.261   9.796  0.0614 -0.0999  0.0883
 4111W        W19242  10.989   0.555  10.112 -0.1133 -0.1444  0.0738
 4112W        W19243  16.605  14.981   4.516 -0.1894 -0.0129 -0.0943
 4113W        W19244   4.367   6.819   3.273 -0.1110  0.1896 -0.2075
 4114W        W19245  16.711   8.316   4.638 -0.1588 -0.4153  0.1581
 4115W        W19246  11.086  15.370  13.443 -0.0749 -0.2421 -0.0038
 4116W        W19247   1.689   4.478  11.261 -0.3773 -0.0660 -0.0590
 4117W        W19248  12.969   9.080  16.056 -0.1019  0.1023  0.2596
 4118W        W19249   7.713  11.358   3.644 -0.4548  0.1961 -0.1190
 4119W        W19250   9.949  13.255   3.547  0.2214 -0.3071  0.3585
 4120W        W19251  16.646  13.259   4.003  0.1547 -0.1715  0.2139
 4121W        W19252   2.267  10.479  16.107  0.1203  0.0860 -0.2987
 4122W        W19253  10.206   4.576   0.486  0.3200  0.0184  0.0221
 4123W        W19254  15.139  17.337   3.437 -0.2225 -0.0620  0.0678
 4124W        W19255   8.809  17.450   2.651  0.0985 -0.0977  0.1120
 4125W        W19256  14.995  12.599  12.191 -0.1921  0.0006 -0.2100
 4126W        W19257  11.588   4.634   4.561 -0.1158 -0.1749 -0.1139
 4127W        W19258   5.617  12.711  12.521  0.0271  0.3709  0.1268
 4128W        W19259  13.158   2.158   4.926  0.1759 -0.1592 -0.2519
 4129W        W19260   1.490  11.992   0.596 -0.1022  0.0826  0.0448
 4130W        W19261  16.936   2.441  11.296  0.2479 -0.0326 -0.0027
 4131W        W19262   2.113   5.024  15.601  0.2149 -0.1097 -0.2418
 4132W        W19263   6.722   7.200   1.192  0.1826 -0.0509  0.1681
 4133W        W19264  13.295  14.886   1.999 -0.0968  0.0245 -0.3281
 4134W        W19265  13.502  12.149   2.612  0.0869 -0.1333  0.1362
 4135W        W19266   9.171  10.388   1.554  0.1622  0.2162 -0.2588
 4136W        W19267   1.640  13.836  11.751  0.0742 -0.1599  0.3870
 4137W        W19268  10.965   1.303   4.123 -0.0438 -0.2417 -0.1309
 4138W        W19269  12.631   4.580   1.099  0.1000  0.0239 -0.0027
 4139W        W19270   4.491  11.002  11.158 -0.0979 -0.0778  0.1151
 4140W        W19271   3.347  14.100  11.021 -0.2406 -0.1063  0.2087
 4141W        W19272  15.661   9.235   2.671  0.0386  0.0980  0.3029
 4142W        W19273  17.028   6.993  15.176  0.0876  0.1258  0.0471
 4143W        W19274   9.635   6.890   5.451 -0.3076  0.1658  0.1539
 4144W        W19275   6.265   3.173  11.389  0.0523 -0.1866  0.0773
 4145W        W19276   3.453  14.264  14.285 -0.2358 -0.0320  0.0083
 4146W        W19277  16.090  11.318  14.493 -0.1288  0.1348 -0.0147
 4147W        W19278  11.736  15.630   3.667 -0.0011 -0.4354  0.0052
 4148W        W19279   1.345   8.078   5.232 -0.2381  0.1961 -0.2249
 4149W        W19280   6.109   4.349  12.961 -0.3078 -0.0840 -0.3607
 4150W        W19281  10.042   6.359   2.719 -0.1770 -0.0084  0.1905
 4151W        W19282   5.087  11.167   0.958 -0.0727 -0.0196  0.0329
 4152W        W19283  12.448   9.789  11.392  0.1387 -0.2813  0.1842
 4153W        W19284   6.702   8.830  14.499  0.2291  0.1174  0.2353
 4154W        W19285  14.437   7.811  11.335  0.1933  0.1917  0.2691
 4155W        W19286  15.120  14.516  13.446 -0.1017 -0.1767 -0.0653
 4156W        W19287  13.008  15.477   5.444  0.3317  0.0106  0.0735
 4157W        W19288   6.441   2.311   2.423 -0.0610  0.3184  0.2699
 4158W        W19289  13.162   9.407   1.188 -0.2563  0.2089 -0.4046
 4159W        W19290   3.157   8.576   3.558  0.1071  0.3551 -0.0310
 4160W        W19291   7.617   9.672  10.624 -0.0754 -0.0694  0.0775
 4161W        W19292  11.152   3.245  10.844 -0.1350  0.1565  0.0872
 4162W        W19293  16.931   0.165   1.894  0.0671  0.1781 -0.0222
 4163W        W19294   4.143   1.249   4.676  0.1114  0.0126 -0.1389
 4164W        W19295   4.610   3.688   6.171  0.1293  0.3859 -0.0359
 4165W        W19296  10.971   7.794  11.329 -0.1166  0.1245 -0.3575
 4166W        W19297   1.330   6.921   1.707  0.1239 -0.0211 -0.0397
 4167W        W19298  11.186   2.253  15.460  0.3498 -0.3423  0.1985
 4168W        W19299  14.259  14.266  15.215  0.1476 -0.1576 -0.1406
 4169W        W19300  12.149   9.666  11.755  0.2443 -0.2120  0.1941
 4170W        W19301   2.020   9.053  12.111 -0.1666 -0.0485  0.0095
 4171W        W19302  14.389   2.461   4.360 -0.0976 -0.2030  0.2501
 4172W        W19303   4.286   5.040  13.676 -0.0984  0.1548 -0.2037
 4173W        W19304   1.409   1.467   1.598  0.0732  0.4025 -0.1239
 4174W        W19305   6.884   2.545  13.016 -0.0449 -0.3249  0.4046
 4175W        W19306   4.480   5.745  15.481 -0.0978 -0.2635  0.2137
 4176W        W19307  15.293   1.757   0.792  0.2041 -0.1535  0.1671
 4177W        W19308   5.652   7.336  12.093 -0.2653  0.1823  0.1675
 4178W        W19309  14.190  11.058   2.374  0.2059 -0.0212 -0.1023
 4179W        W19310  15.867   9.837   3.827  0.2554 -0.3873  0.0814
 4180W        W19311   9.626  14.286   5.562 -0.2292  0.2277 -0.0633
 4181W        W19312  16.188  11.110   4.372 -0.1471  0.0794 -0.0925
 4182W        W19313   3.986  14.153  13.414 -0.0534  0.0114 -0.1914
 4183W        W19314  11.655   7.323  15.030  0.3322  0.3984  0.0364
 4184W        W19315   9.147   9.844  13.810 -0.1403 -0.1673  0.1037
 4185W        W19316   7.078   0.020  12.033  0.2549  0.0091 -0.0136
 4186W        W19317   8.775  10.586   0.244 -0.1183  0.1039 -0.5761
 4187W        W19318   2.361  10.181  13.712 -0.1400  0.1455 -0.0534
 4188W        W19319  12.555  15.647  11.160  0.1152  0.1439  0.0020
 4189W        W19320   9.531   5.265  16.039  0.1179 -0.0367 -0.1833
 4190W        W19321   4.796   1.113   5.277 -0.2270 -0.2345  0.4365
 4191W        W19322  16.072   8.241  14.377  0.0640  0.0412  0.0506
 4192W        W19323   4.943   2.185   4.574 -0.1348 -0.3577 -0.2110
 4193W        W19324  15.909  11.164   1.757 -0.1265  0.0790 -0.1679
 4194W        W19325  11.692  10.265  10.684  0.1894 -0.1744  0.0354
 4195W        W19326   9.436  14.738   5.213 -0.1174  0.0907 -0.0691
 4196W        W19327   3.354  15.563  14.112 -0.2192  0.0221  0.1151
 4197W        W19328   7.756   3.645   2.325  0.1830 -0.0789  0.0431
 4198W        W19329   5.446   2.302   2.390  0.2905  0.1831  0.1036
 4199W        W19330  11.640   5.767   0.733 -0.4244 -0.2450  0.3322
 4200W        W19331  11.101  18.060   2.102 -0.1631  0.0396 -0.0031
 4201W        W19332   4.070   1.202  15.074 -0.1099 -0.3803 -0.0391
 4202W        W19333  18.028   2.720  12.222  0.4380 -0.0996  0.1671
 4203W        W19334   3.140  15.136  13.895  0.0323 -0.0024  0.1735
 4204W        W19335   2.275  11.293  15.898 -0.0152 -0.0440  0.0497
 4205W        W19336  11.178  10.566  12.753 -0.1172 -0.0712  0.2885
 4206W        W19337  16.279   9.604   2.770 -0.1025  0.2136 -0.0207
 4207W        W19338   1.734   7.655  11.492 -0.3411  0.0698  0.4335
 4208W        W19339  10.823  16.281  14.276 -0.1658  0.0769  0.1527
 4209W        W19340   0.181   7.360   1.019  0.0468 -0.0640  0.0365
 4210W        W19341  15.962  13.409  10.863 -0.0604  0.1864  0.3055
 4211W        W19342   6.260  10.529   4.985  0.2665  0.2416  0.0553
 4212W        W19343  14.431  15.347   5.405  0.0135 -0.0904  0.4514
 4213W        W19344   8.639   0.257  11.709  0.2586 -0.1327 -0.0526
 4214W        W19345  14.131   3.437   4.481 -0.4472  0.1288 -0.1878
 4215W        W19346   4.410  15.295   4.371 -0.1433  0.1694  0.0289
 4216W        W19347  12.260   0.891  15.675  0.2822 -0.0475 -0.2559
 4217W        W19348   0.737  13.066  15.524  0.0150 -0.1791 -0.1257
 4218W        W19349  15.016  18.030   1.847  0.1224 -0.0073  0.0899
 4219W        W19350   0.922   3.338   1.572 -0.1688 -0.0327  0.3850
 4220W        W19351   8.407   4.485   4.860  0.1898  0.3585  0.0256
 4221W        W19352  17.072   9.208  13.709  0.1604  0.0926 -0.0360
 4222W        W19353   4.998   0.155  12.120 -0.0448 -0.0319 -0.1786
 4223W        W19354  17.936   0.606  13.792 -0.0249 -0.5131  0.1781
 4224W        W19355  10.181   5.665   5.128  0.2087 -0.1639  0.1837
 4225W        W19356  16.123  13.484   2.518 -0.4319 -0.1517  0.2252
 4226W        W19357  10.987  13.708   2.942 -0.1546 -0.1647  0.0107
 4227W        W19358  14.275  13.234   1.325  0.3122 -0.0144  0.2950
 4228W        W19359  14.298  12.523   1.944  0.0853 -0.0132  0.3278
 4229W        W19360   0.747  17.766  11.691  0.0326  0.3673 -0.0404
 4230W        W19361   1.365  16.354   4.165 -0.1525 -0.0781  0.1022
 4231W        W19362   2.795  10.575   1.215 -0.2241 -0.1852 -0.4063
 4232W        W19363   6.418   1.821   3.587  0.2090  0.1828 -0.2145
 4233W        W19364   2.881  10.904  14.747 -0.2303 -0.0930 -0.0209
 4234W        W19365   9.547   4.067   5.079 -0.1017 -0.1209 -0.0291
 4235W        W19366  12.880   5.403   0.735  0.2982 -0.0628 -0.1027
 4236W        W19367   8.592  17.057   4.252  0.1549  0.1871  0.0715
 4237W        W19368   4.366  14.766   2.912  0.0108  0.0271  0.1913
 4238W        W19369   9.464   0.684  12.595 -0.1958  0.2135  0.2687
 4239W        W19370  10.411   4.197  10.020 -0.0466 -0.1283 -0.2859
 4240W        W19371   8.140   1.884  15.168  0.0936  0.0966  0.0887
 4241W        W19372   0.297   9.893  12.209  0.0947 -0.1635  0.1023
 4242W        W19373   3.063  13.606   4.616 -0.3155 -0.1493  0.0481
 4243W        W19374   8.019  12.795   6.092  0.0581 -0.1611 -0.0260
 4244W        W19375  11.726   2.404   0.684  0.2511  0.3322 -0.3377
 4245W        W19376  11.790  17.258   0.081 -0.2941  0.0782  0.2396
 4246W        W19377   0.424  12.556  11.820 -0.0149  0.4380  0.0988
 4247W        W19378  15.563  17.809  12.372  0.2465  0.0460  0.0490
 4248W        W19379   9.359   4.618  13.959 -0.0765  0.1377 -0.1542
 4249W        W19380   9.168   5.911  11.374  0.3572  0.0912 -0.0512
 4250W        W19381  10.543   1.703   3.339  0.1494  0.1313 -0.2022
 4251W        W19382  14.730   8.340   4.462  0.1766 -0.0479  0.2636
 4252W        W19383   3.981   5.778   4.430 -0.0831 -0.4534  0.2129
 4253W        W19384   8.977  16.702  12.065 -0.0217  0.0953  0.0744
 4254W        W19385  12.176  11.377   4.103  0.1118 -0.1177 -0.0128
 4255W        W19386   1.985  13.930  13.472  0.1966 -0.1239 -0.0153
 4256W        W19387   9.493  18.236  14.175  0.0316 -0.1974  0.4089
 4257W        W19388  14.502  13.263   0.215 -0.0174 -0.3297  0.1019
 4258W        W19389  17.518  16.981   5.316  0.1435 -0.1319 -0.2454
 4259W        W19390  14.357   8.240  12.683  0.3012 -0.1265 -0.1405
 4260W        W19391  17.877  17.649   4.390 -0.0862  0.0192  0.0311
 4261W        W19392   3.899  10.169   4.951 -0.2432  0.2062  0.0547
 4262W        W19393  12.105   3.612  15.851  0.4610 -0.1603 -0.0925
 4263W        W19394   5.379   4.255   3.196  0.5148 -0.0388 -0.1760
 4264W        W19395   4.736  15.253  13.053  0.0493 -0.1531  0.0318
 4265W        W19396   0.832   9.852  12.089  0.1034 -0.0663 -0.1883
 4266W        W19397  15.744   1.360  13.712  0.0611  0.0089  0.2003
 4267W        W19398  14.152   9.999  15.744 -0.2071 -0.1736  0.3377
 4268W        W19399   1.512   7.415   1.023 -0.3692  0.1346  0.3385
 4269W        W19400  11.361  15.187   2.739 -0.0407 -0.1734  0.1300
 4270W        W19401  17.395  12.440  14.495 -0.1776  0.0477 -0.1304
 4271W        W19402   6.787   4.663   5.531  0.0188 -0.0206 -0.2436
 4272W        W19403   4.359  16.534  13.221  0.4377 -0.0794  0.1285
 4273W        W19404   2.785  13.045   0.080  0.2581  0.0024  0.0720
 4274W        W19405  12.213   1.227  13.851  0.0120 -0.3656  0.2468
 4275W        W19406  11.088   8.311   0.294  0.3046  0.1588 -0.0329
 4276W        W19407   1.153   8.462   0.367 -0.0839  0.1021 -0.0202
 4277W        W19408  14.925  15.653   2.058 -0.0552 -0.0788  0.0208
 4278W        W19409   1.239  15.042   4.178 -0.0362  0.0996 -0.0656
 4279W        W19410  11.428   0.384  10.848 -0.0321  0.0802  0.1656
 4280W        W19411   6.798  11.733   5.752 -0.2589 -0.0605 -0.0443
 4281W        W19412   3.150   7.921  15.949 -0.0505 -0.0893  0.2186
 4282W        W19413   9.453  11.295  16.045 -0.0840  0.0266 -0.4536
 4283W        W19414   4.035   5.043  14.875  0.1235  0.0171  0.1206
 4284W        W19415   7.424   1.536  13.017 -0.1201  0.0057  0.1001
 4285W        W19416  11.965  16.252  13.161 -0.3792 -0.1031  0.1858
 4286W        W19417   7.005  17.425   5.234  0.0550  0.1496 -0.0967
 4287W        W19418   3.785  16.858   4.657  0.0661 -0.0655  0.0905
 4288W        W19419   9.358  14.051  13.253  0.1188  0.0481 -0.1516
 4289W        W19420  10.100  16.226  12.537 -0.2839  0.2519  0.0410
 4290W        W19421   4.439  16.797  11.683  0.0545  0.5471 -0.0623
 4291W        W19422   1.594   0.732  11.248  0.2517 -0.0619 -0.0713
 4292W        W19423   8.796   2.930   5.343  0.0717 -0.0311 -0.0173
 4293W        W19424  15.920   8.312  14.961 -0.0683  0.0696  0.3014
 4294W        W19425  10.596   8.492  14.761 -0.4421  0.1833  0.0662
 4295W        W19426   9.741   6.277   2.155 -0.1184 -0.2099 -0.3571
 4296W        W19427  16.344  17.929  12.657 -0.0058 -0.2204 -0.1188
 4297W        W19428   6.006   8.829   4.929 -0.0748 -0.3002 -0.1041
 4298W        W19429   6.346   1.438   2.853 -0.0400 -0.0436  0.2907
 4299W        W19430  11.172   5.461  12.734  0.4773  0.0820  0.1997
 4300W        W19431   2.634   3.650  15.408  0.0584  0.0211 -0.0746
 4301W        W19432  11.073  15.009  10.894  0.3823 -0.5533 -0.3080
 4302W        W19433   7.910  12.119  15.944  0.1246 -0.2747 -0.0045
 4303W        W19434   0.798   4.619  11.501 -0.0838 -0.0904 -0.0754
 4304W        W19435  10.885   3.924  15.592  0.0635 -0.0058  0.0081
 4305W        W19436   0.955   3.871   2.617 -0.0046 -0.3116  0.1036
 4306W        W19437   0.127  12.507   3.836 -0.1748 -0.2187 -0.0244
 4307W        W19438  16.494   6.248  16.044 -0.1319  0.3245  0.0443
 4308W        W19439  10.382   9.081  12.885  0.0399 -0.1770  0.1824
 4309W        W19440  17.682  18.196  15.620 -0.0954  0.2120  0.2556
 4310W        W19441  15.364  14.736  12.365 -0.1130  0.0675 -0.0024
 4311W        W19442  14.552   6.311   3.006 -0.1834  0.0108 -0.0103
 4312W        W19443  13.995  10.929  15.984  0.0487  0.0602 -0.0125
 4313W        W19444   8.752   4.927   2.995  0.0825 -0.1230  0.1240
 4314W        W19445  10.347  14.844  15.676  0.0184  0.1571  0.0057
 4315W        W19446  12.162  16.329  11.716  0.1732  0.0518 -0.1237
 4316W        W19447  15.133  14.050   5.098  0.3393 -0.1186  0.1027
 4317W        W19448   3.287   2.083   1.762 -0.0242  0.1347 -0.3418
 4318W        W19449   9.681  11.179  11.479  0.0092 -0.3749 -0.0827
 4319W        W19450   4.184  17.196   2.856 -0.1235  0.2380 -0.4024
 4320W        W19451   8.822  14.210   3.264  0.1790 -0.0952 -0.1189
 4321W        W19452   4.732   8.630  15.232  0.2427 -0.0017  0.2756
 4322W        W19453   2.679   4.990  13.201 -0.0169  0.1676  0.2678
 4323W        W19454  17.687  18.048   3.171 -0.1247  0.3123 -0.0191
 4324W        W19455   5.447  14.259   5.914 -0.1970  0.1434  0.1606
 4325W        W19456   2.389   8.324   3.592 -0.1456  0.1784 -0.5491
 4326W        W19457  15.713  11.632  11.932  0.2998  0.0160  0.0525
 4327W        W19458  15.230   8.340   4.651  0.0640 -0.0398 -0.2398
 4328W        W19459   6.289  13.134  14.197  0.0483  0.1687  0.0251
 4329W        W19460   1.949  12.525  11.996  0.1797  0.1836  0.0028
 4330W        W19461  11.293   8.726  11.274 -0.1111  0.3093  0.0691
 4331W        W19462  10.776  11.219  11.839  0.0445  0.3151 -0.2922
 4332W        W19463  17.360   6.721   1.216  0.0863 -0.2035 -0.2015
 4333W        W19464   5.442   7.720   2.283  0.0055  0.2327 -0.2898
 4334W        W19465   7.548  10.424  15.069  0.2866 -0.3372 -0.1023
 4335W        W19466  16.776  14.213   1.233  0.2083 -0.0296 -0.0389
 4336W        W19467  14.835   4.899  11.145  0.0869  0.1065  0.0117
 4337W        W19468  17.078   9.483  13.189  0.0148 -0.1905  0.1305
 4338W        W19469   5.792  15.114  15.123 -0.1515 -0.1219  0.0672
 4339W        W19470   8.052  12.755  14.793  0.0984 -0.0359 -0.0607
 4340W        W19471   2.998   7.157   0.978 -0.0267 -0.0406 -0.2664
 4341W        W19472  18.182  12.257   1.650 -0.0791 -0.1078  0.1341
 4342W        W19473  15.070   5.398  15.724 -0.2164 -0.3134  0.0722
 4343W        W19474   6.664   9.688   2.094 -0.0448  0.0318  0.5482
 4344W        W19475   5.927   0.621   4.019 -0.2112 -0.0702  0.1257
 4345W        W19476  13.522  15.988  14.086 -0.2884  0.3373 -0.1416
 4346W        W19477  14.337   3.621   3.290  0.1546 -0.1042 -0.2342
 4347W        W19478  12.152   0.736  13.811  0.2182  0.0296  0.0233
 4348W        W19479  17.272   1.338   6.134 -0.0876 -0.0286  0.0803
 4349W        W19480   4.783  16.923   3.204 -0.0414  0.0672 -0.0307
 4350W        W19481  15.669  15.041  14.057 -0.4527 -0.3274 -0.2378
 4351W        W19482   8.329   0.612  11.000 -0.0647 -0.2027 -0.1203
 4352W        W19483  11.728   5.904   4.282  0.0525 -0.0834 -0.1804
 4353W        W19484  17.824   5.892  15.801  0.0041 -0.1279 -0.0452
 4354W        W19485  17.786  14.205   1.456  0.0723 -0.3006  0.0947
 4355W        W19486  18.190  15.931  12.006  0.2721 -0.2051 -0.0023
 4356W        W19487  18.228   7.187   3.904 -0.1887 -0.1383 -0.2033
 4357W        W19488   2.935  12.629  11.266  0.0346  0.0028  0.0468
 4358W        W19489  17.228   7.306   3.170  0.1879  0.2570 -0.1023
 4359W        W19490   6.991   7.138   0.626 -0.3782  0.3999 -0.4329
 4360W        W19491  11.183   1.495  13.004 -0.2433 -0.1966 -0.0391
 4361W        W19492   7.495   9.578  15.882  0.1460 -0.2767 -0.1029
 4362W        W19493   6.634   5.134   0.738  0.0288 -0.1031 -0.0701
 4363W        W19494   9.243   6.676   4.212  0.0610 -0.1995 -0.2785
 4364W        W19495  11.729   2.779   3.898  0.3365 -0.1256 -0.0035
 4365W        W19496   4.295  17.753  12.607 -0.2762  0.0954  0.0957
 4366W        W19497  16.421  15.682   3.063 -0.1786  0.0081 -0.0594
 4367W        W19498   6.364   3.136  15.524  0.1257 -0.1188 -0.0329
 4368W        W19499  17.802   4.806  14.832  0.1257  0.1396  0.2433
 4369W        W19500   3.856  17.213  14.946 -0.2439  0.2008 -0.0691
 4370W        W19501   3.998  12.576   1.365 -0.1001 -0.1138  0.3181
 4371W        W19502  18.165   8.921   1.509  0.1167  0.2015  0.1945
 4372W        W19503   2.823   9.253   1.889 -0.0334  0.1551 -0.1764
 4373W        W19504  11.037  10.154   1.999  0.1909 -0.3380 -0.1303
 4374W        W19505  14.244  17.864  13.432 -0.1823  0.1655 -0.0800
 4375W        W19506  10.506   5.976   5.933 -0.0482 -0.1708  0.0316
 4376W        W19507  10.487  12.102  13.777  0.1816  0.0096  0.2050
 4377W        W19508  15.164  14.695   0.092 -0.0670  0.0504  0.1255
 4378W        W19509   0.882   7.191  14.528  0.0288  0.2649  0.0388
 4379W        W19510   0.586   1.546   1.450  0.1425 -0.2264 -0.2472
 4380W        W19511  15.441  10.021   0.999  0.2157  0.2249  0.2942
 4381W        W19512   3.393  10.895   0.797 -0.1016 -0.1186 -0.0628
 4382W        W19513  16.333  15.748   2.562  0.0753  0.0853  0.1805
 4383W        W19514   1.080  11.547   2.295 -0.0738 -0.0132  0.0350
 4384W        W19515   1.995  18.223  11.417 -0.0509  0.3235  0.2005
 4385W        W19516   5.143   4.982  11.490 -0.0323  0.0465  0.0082
 4386W        W19517  10.212   7.563  13.653  0.0607  0.1888 -0.4360
 4387W        W19518   1.020  12.059   6.064 -0.2485 -0.3410  0.0043
 4388W        W19519   2.290   2.576   1.179 -0.0090  0.0018  0.2997
 4389W        W19520   4.015   9.710   5.195 -0.1722 -0.2077 -0.0075
 4390W        W19521  17.954  13.667   1.719 -0.0734  0.2791  0.0675
 4391W        W19522  13.768  14.361  13.868  0.1351 -0.1768  0.1196
 4392W        W19523   1.192   7.386   1.412 -0.2151  0.0313  0.1076
 4393W        W19524   7.297  14.383  15.708 -0.1084 -0.0583 -0.0402
 4394W        W19525   4.048  15.784  15.845 -0.3744  0.6220  0.1981
 4395W        W19526   9.537   8.370   2.120  0.1465 -0.0704  0.2720
 4396W        W19527   0.036  17.555  14.639  0.0512  0.0449  0.3170
 4397W        W19528  16.755   1.605   5.372 -0.2446 -0.0081  0.0791
 4398W        W19529   3.599  10.043   3.803  0.1712  0.2212 -0.1346
 4399W        W19530  16.845   7.617  12.187 -0.0626  0.1939  0.1544
 4400W        W19531   9.160   2.621   5.421  0.0619  0.2447  0.1699
 4401W        W19532  14.964   8.251   2.124 -0.2157 -0.0271 -0.1849
 4402W        W19533   5.310  17.362   5.508  0.3206  0.1893 -0.2755
 4403W        W19534   1.020   3.324   5.046 -0.1530 -0.2168  0.1298
 4404W        W19535   3.744   9.305   0.677 -0.0549 -0.1092  0.2184
 4405W        W19536  14.714  13.229  13.879 -0.3956  0.1855  0.0736
 4406W        W19537  10.505   4.101   5.095 -0.0199  0.3104 -0.0329
 4407W        W19538  13.662  16.856   1.428 -0.0375 -0.2320  0.0500
 4408W        W19539  16.739   3.381   3.829  0.0284  0.0997  0.3080
 4409W        W19540  11.223  16.222   3.552 -0.0258 -0.0353 -0.0684
 4410W        W19541   0.281  10.350  13.279  0.1673  0.1688  0.1508
 4411W        W19542  16.507  15.382  13.437  0.0372 -0.2983  0.2099
 4412W        W19543  12.215   3.222   5.939  0.0632  0.0081 -0.0747
 4413W        W19544  13.348   6.587  12.664  0.2443 -0.2734 -0.1772
 4414W        W19545  13.838  14.152   3.620  0.2785  0.2652  0.4283
 4415W        W19546   5.476  13.380   0.083  0.2533  0.0233  0.4425
 4416W        W19547  15.190   3.928   3.627 -0.0779  0.1087 -0.1878
 4417W        W19548  15.314  17.564  10.774 -0.2105 -0.0553  0.0497
 4418W        W19549   6.480  16.074   1.679  0.3339 -0.1790  0.2075
 4419W        W19550  13.933  15.463  11.777  0.2167 -0.3635  0.0761
 4420W        W19551   6.654   7.906   1.712  0.2135 -0.1870 -0.0433
 4421W        W19552   8.112   4.700  12.448  0.2392  0.0679 -0.2123
 4422W        W19553   9.996   3.481  14.725 -0.2337 -0.1913 -0.1808
 4423W        W19554  12.272  11.748  15.688  0.1191  0.2678  0.0864
 4424W        W19555   9.316  11.938  15.137 -0.1137  0.1407  0.1795
 4425W        W19556   6.162   3.790   2.632 -0.1450  0.1006 -0.0964
 4426W        W19557   4.903  10.494  12.233 -0.1121  0.1407 -0.2584
 4427W        W19558   1.314   0.438  11.623 -0.1937 -0.0707 -0.0158
 4428W        W19559  11.435   9.749  15.335  0.2273 -0.1500  0.2056
 4429W        W19560  15.098  12.971   1.192 -0.0481  0.2038  0.0260
 4430W        W19561  13.296   5.886   3.230 -0.0136 -0.0607  0.0728
 4431W        W19562  14.041   4.080   2.441 -0.0785 -0.1538 -0.1130
 4432W        W19563  10.251   4.844  11.174 -0.0094 -0.0501  0.2281
 4433W        W19564  13.861  12.935  14.536 -0.2710  0.2575  0.1162
 4434W        W19565  12.125  10.660  12.437 -0.2201 -0.0980  0.0758
 4435W        W19566   6.917   1.380   0.930  0.1559 -0.2281 -0.2726
 4436W        W19567   7.185  13.113   0.854  0.2642 -0.3050  0.0424
 4437W        W19568  10.409   2.505  11.719 -0.0771 -0.1286  0.0629
 4438W        W19569   1.735   0.705   2.281 -0.0346 -0.1471 -0.2257
 4439W        W19570   2.578   4.486  14.957 -0.0357 -0.2004  0.0186
 4440W        W19571   4.842   7.373  10.246  0.1088  0.1554 -0.0852
 4441W        W19572   4.964  17.347   3.387 -0.0318 -0.0395 -0.2319
 4442W        W19573   6.880   2.837  15.696  0.1253 -0.2270  0.1035
 4443W        W19574   5.349  17.108   0.979 -0.1146 -0.0175  0.4431
 4444W        W19575  13.713   2.909   1.451  0.1667 -0.1637 -0.2482
 4445W        W19576   7.747   7.182  12.922 -0.1692  0.1609  0.0421
 4446W        W19577   0.952  12.221  15.183  0.0582  0.1312 -0.0546
 4447W        W19578   8.485  10.555  15.408  0.0169 -0.1856  0.0343
 4448W        W19579  15.781  13.816  14.540 -0.1862 -0.1412  0.0393
 4449W        W19580   9.202  16.970   4.002  0.0369 -0.0710  0.0800
 4450W        W19581   9.332  13.530   0.606 -0.0823 -0.1640 -0.3891
 4451W        W19582  17.416  17.408   4.287 -0.0335  0.1790  0.0771
 4452W        W19583  15.915  17.812   3.236 -0.3640 -0.0462  0.1914
 4453W        W19584  15.872   2.480  12.566  0.1901  0.1001  0.0716
 4454W        W19585  13.866   1.771   2.553 -0.1147 -0.0244  0.0462
 4455W        W19586  10.820   5.088  14.388  0.3467 -0.3338  0.4235
 4456W        W19587  18.092   0.717   0.637 -0.0938 -0.0311 -0.0663
 4457W        W19588   5.248  12.723   1.401 -0.2103  0.0390 -0.1435
 4458W        W19589  10.751   2.888   4.824  0.0276 -0.2264  0.0193
 4459W        W19590   6.206  10.099   3.000 -0.0886 -0.0810  0.3077
 4460W        W19591  10.405   7.132   0.828  0.2810  0.1860 -0.4019
 4461W        W19592   3.638   7.953  11.747 -0.0471  0.1342  0.0141
 4462W        W19593  14.198  14.890   5.350 -0.0097  0.2395 -0.0831
 4463W        W19594   7.995  15.802  14.621  0.3605  0.1443  0.0134
 4464W        W19595   0.756  11.532   4.826 -0.0726 -0.0095  0.0728
 4465W        W19596  14.351   9.477   3.396  0.1046  0.2216 -0.3071
 4466W        W19597   1.365  17.113   2.616  0.2459 -0.0780 -0.0152
 4467W        W19598  11.984   3.704  12.699  0.1767 -0.1465 -0.0522
 4468W        W19599   8.765   0.317  15.293 -0.0543  0.2873 -0.1115
 4469W        W19600  12.457  12.763   0.430 -0.1451  0.2971 -0.2875
 4470W        W19601   1.150   5.670  12.435 -0.1207  0.3361 -0.1353
 4471W        W19602   5.429  14.135   1.458 -0.7571  0.1960  0.0270
 4472W        W19603   8.946  16.132   3.932 -0.0503 -0.4976  0.0708
 4473W        W19604   6.398  13.942  12.478  0.0236  0.2147  0.2300
 4474W        W19605  17.031   4.172  11.743 -0.1053 -0.2575  0.1049
 4475W        W19606   7.779   9.412   3.029  0.0872 -0.3508  0.1554
 4476W        W19607  12.317   5.407   0.567  0.0510 -0.1217  0.1283
 4477W        W19608   7.002  17.535   1.486 -0.2869 -0.0056  0.2238
 4478W        W19609   8.655   6.503   2.961 -0.0233  0.1412  0.1017
 4479W        W19610  16.052  15.348  12.850  0.1006 -0.1654  0.2015
 4480W        W19611  15.994  17.725   5.005  0.0870  0.1119  0.1276
 4481W        W19612  15.025   0.855  15.673  0.1828 -0.0280 -0.2741
 4482W        W19613  10.933   8.947  11.919  0.0549  0.0291 -0.0017
 4483W        W19614   6.215  13.586   3.872 -0.1551 -0.0284 -0.4441
 4484W        W19615   0.616   2.210  14.716  0.2096  0.0323  0.0969
 4485W        W19616   2.647  17.238  15.242 -0.2070  0.2124  0.0396
 4486W        W19617   6.331  13.620  14.165 -0.2615  0.0103 -0.2386
 4487W        W19618   4.984   0.651   5.516  0.1882  0.0841 -0.1711
 4488W        W19619  14.621   0.325  12.887  0.2367 -0.2605  0.0992
 4489W        W19620  15.570   2.210   2.941 -0.0634  0.0303  0.0172
 4490W        W19621   3.819   7.175   4.249 -0.2406  0.1161 -0.0232
 4491W        W19622  16.422   0.452   3.056  0.1110 -0.0056  0.0979
 4492W        W19623  15.901   2.863   4.636 -0.1620 -0.3383 -0.2379
 4493W        W19624   2.006  15.664   6.038  0.0788 -0.0919 -0.0063
 4494W        W19625   7.715   3.315  12.509 -0.0589  0.1028  0.1779
 4495W        W19626   3.322  14.406   2.851  0.1209  0.2216  0.3186
 4496W        W19627  15.089   7.397   0.427  0.3114 -0.0502  0.4689
 4497W        W19628  10.430  15.252  11.409  0.2320 -0.2692  0.2286
 4498W        W19629   0.235  12.566   2.531  0.3519 -0.1459 -0.4332
 4499W        W19630  15.904  13.812   5.875  0.2430 -0.0078 -0.2172
 4500W        W19631   2.520   2.159  13.624 -0.1942 -0.1547 -0.2750
 4501W        W19632   2.403   0.165   4.616  0.1069  0.1315 -0.0218
 4502W        W19633   9.754  16.168   3.217  0.1076  0.1550  0.3764
 4503W        W19634  17.503  17.977   4.227 -0.0280  0.0143  0.0737
 4504W        W19635  10.202   0.384   3.515 -0.0060  0.1982  0.2697
 4505W        W19636  14.229  17.209   0.054 -0.0665  0.1918 -0.2245
 4506W        W19637  11.469  14.607   2.293 -0.0857  0.0987  0.1737
 4507W        W19638  14.469  12.212   4.541 -0.0433 -0.4237  0.0922
 4508W        W19639   8.677  12.099  11.717  0.2841 -0.0870 -0.0666
 4509W        W19640  11.342   3.281  13.272  0.2230 -0.2704  0.1125
 4510W        W19641  13.024  18.191   0.253 -0.0136 -0.4025 -0.0761
 4511W        W19642  10.479   6.549  11.921  0.1202 -0.1283 -0.1374
 4512W        W19643  14.292   2.070  11.512 -0.2499 -0.0373  0.1219
 4513W        W19644   3.805   6.747  11.591 -0.3356  0.1647 -0.1782
 4514W        W19645  10.725  12.786   1.207 -0.4010 -0.1768  0.1063
 4515W        W19646   2.038   0.929  11.065 -0.1109 -0.1409 -0.1616
 4516W        W19647  17.036  12.807   3.973 -0.1687  0.1522  0.1149
 4517W        W19648   2.489  11.955   2.023 -0.0138 -0.0776 -0.0597
 4518W        W19649  14.820  17.094   0.736 -0.0903  0.1042 -0.2313
 4519W        W19650   8.169  18.275   2.265  0.1475  0.0062 -0.0925
 4520W        W19651  12.326  14.661  12.350 -0.1504  0.3525 -0.3612
 4521W        W19652   9.285   8.726  10.439 -0.4020  0.2996 -0.3566
 4522W        W19653  17.741  16.850   4.817  0.0464 -0.2288  0.0972
 4523W        W19654   6.962   6.245  13.997  0.0910  0.1147 -0.1543
 4524W        W19655   7.856   9.774   4.809  0.1063  0.1176 -0.1132
 4525W        W19656  15.834  10.733   3.340 -0.1368  0.0216  0.3839
 4526W        W19657   2.677   0.328   5.475 -0.0188 -0.1304 -0.0268
 4527W        W19658   3.004   1.793   3.308 -0.0606  0.0599  0.0686
 4528W        W19659   3.234   6.969   0.491  0.1007 -0.0223 -0.1515
 4529W        W19660  15.342   4.006  15.754  0.0261  0.1072  0.0116
 4530W        W19661  10.683   4.522   1.389  0.3947  0.2137  0.4276
 4531W        W19662  12.870   7.228   4.698 -0.0196  0.0150 -0.0247
 4532W        W19663   9.924   8.719   2.216  0.2016  0.0351  0.0089
 4533W        W19664  12.353   6.508  15.112  0.3174  0.2299 -0.1321
 4534W        W19665   5.437   3.682  11.096  0.2482  0.4013  0.4756
 4535W        W19666   9.799   3.806   4.740 -0.0147  0.1869  0.0663
 4536W        W19667   6.874  11.000   3.877 -0.2901  0.1917 -0.1958
 4537W        W19668   5.140  17.576   0.317 -0.0598  0.0627  0.1238
 4538W        W19669  12.633  16.190  15.071  0.0047 -0.0092  0.0043
 4539W        W19670  15.972  17.763  14.340  0.3022 -0.2165 -0.2529
 4540W        W19671   3.427   7.834   0.275  0.1033 -0.1398 -0.0803
 4541W        W19672  12.319  12.552  12.659 -0.4062 -0.1845 -0.0508
 4542W        W19673  16.004  15.525  13.394  0.2751 -0.0714  0.2389
 4543W        W19674  15.564   7.372   0.843 -0.2115 -0.1879 -0.0654
 4544W        W19675  17.086   9.540   1.717  0.2121  0.0526  0.0138
 4545W        W19676   7.448  15.532  14.412  0.0404  0.0593 -0.2085
 4546W        W19677   8.593  17.106  13.776 -0.1734 -0.0411  0.2719
 4547W        W19678  16.632   2.721  12.957 -0.0460  0.0259  0.2541
 4548W        W19679   9.491  11.878   0.534  0.0973  0.0872 -0.2568
 4549W        W19680   5.195  15.052  14.553  0.0705  0.4500  0.6121
 4550W        W19681   4.281  13.036   3.663 -0.1004  0.0005  0.1993
 4551W        W19682   4.569  12.985  13.483 -0.0016  0.1033 -0.0032
 4552W        W19683   8.261  14.202  14.741 -0.1263 -0.3053 -0.0848
 4553W        W19684  14.696  15.477  12.558 -0.1268  0.2605 -0.1427
 4554W        W19685  11.912   0.400   1.615 -0.1186 -0.0067 -0.2754
 4555W        W19686  15.773   3.216   3.292 -0.0947  0.1902  0.0019
 4556W        W19687   2.767   1.979  11.407  0.1917 -0.1634 -0.0225
 4557W        W19688   6.634   7.783  11.121 -0.2269  0.1130 -0.1652
 4558W        W19689   8.981  15.883   2.984  0.0518 -0.3832 -0.1575
 4559W        W19690  16.561   3.226  13.422  0.1406 -0.1375  0.1085
 4560W        W19691   4.413  16.267   5.083 -0.0372  0.3580 -0.0211
 4561W        W19692  12.103  15.527  13.239  0.1875  0.0020  0.0550
 4562W        W19693  11.501   3.053  15.843  0.3259  0.1801  0.3024
 4563W        W19694   0.779  14.852  15.664  0.0879 -0.2265  0.2016
 4564W        W19695  15.565  16.757   2.086 -0.1678  0.0076  0.1164
 4565W        W19696  11.244  15.611   1.824 -0.3190 -0.0673 -0.0095
 4566W        W19697  13.915  16.373  15.495  0.1205 -0.0063 -0.2768
 4567W        W19698   8.607  15.541   3.122  0.2026 -0.0213 -0.0462
 4568W        W19699   8.100   7.889   1.337 -0.1750 -0.2133 -0.0685
 4569W        W19700  12.492  13.082   4.533  0.0198 -0.2964 -0.0761
 4570W        W19701  15.296   7.675  12.640  0.0283 -0.0604 -0.1390
 4571W        W19702  17.334  13.236  13.510  0.2573  0.5104 -0.1441
 4572W        W19703   4.682  11.641   5.300  0.0873 -0.2031 -0.0691
 4573W        W19704   0.686  16.901  10.972 -0.3215  0.2963  0.0898
 4574W        W19705   3.399   9.260   0.271 -0.0172  0.4760  0.0815
 4575W        W19706  10.243   4.430   2.995  0.1418 -0.0722  0.2821
 4576W        W19707   2.445  17.360  14.704  0.0201 -0.1106 -0.0887
 4577W        W19708  14.565   1.433  13.408 -0.0082  0.0718 -0.0781
 4578W        W19709  17.380   8.966  14.621 -0.0406  0.0314 -0.2783
 4579W        W19710  15.894   6.847  12.030 -0.0029  0.0005 -0.1348
 4580W        W19711  16.750  11.254   5.538 -0.2928  0.0992 -0.1471
 4581W        W19712   6.925  16.401   4.895  0.2169 -0.0051 -0.0076
 4582W        W19713   6.133   8.203  12.424  0.1022 -0.2370  0.0337
 4583W        W19714  14.428   0.799  13.074 -0.4402  0.0620 -0.2770
 4584W        W19715   8.527  17.624  15.481 -0.0669  0.2539  0.0191
 4585W        W19716   7.293  17.412  12.830  0.1787  0.1309 -0.1609
 4586W        W19717   4.133   5.532  12.824 -0.3584  0.1452 -0.0113
 4587W        W19718   3.957   1.398   1.439 -0.1719  0.1400 -0.1209
 4588W        W19719   8.017   9.437   4.428  0.0326 -0.1984  0.1849
 4589W        W19720  12.323  11.679  12.776 -0.0026 -0.1087  0.0088
 4590W        W19721   8.252  15.405  13.619  0.0273 -0.0870  0.2938
 4591W        W19722   6.062   9.571  10.900  0.1500  0.1768 -0.0928
 4592W        W19723  14.354   6.936  15.420  0.0512  0.1374  0.0248
 4593W        W19724  16.688   6.854  13.457 -0.1210  0.2953 -0.3502
 4594W        W19725   6.916   0.133  14.913  0.0281  0.0821 -0.0826
 4595W        W19726   2.357   1.393   4.588  0.3504  0.0249  0.0756
 4596W        W19727  10.859  15.747   2.131 -0.2215  0.0177  0.1369
 4597W        W19728  10.039   3.437   3.589 -0.1916 -0.1597  0.4324
 4598W        W19729   3.162  15.598  10.167 -0.0574  0.0572 -0.3146
 4599W        W19730   2.500   8.536  11.879  0.1424  0.0055 -0.0606
 4600W        W19731  14.905   7.272  16.020  0.2486 -0.1849  0.0129
 4601W        W19732   2.312  16.213  15.792  0.1946  0.3446  0.1925
 4602W        W19733   9.602  14.392  15.717  0.1486  0.0806 -0.1342
 4603W        W19734   8.394  13.365   2.947  0.1633 -0.1959  0.0976
 4604W        W19735   9.992   2.135   3.940  0.1427  0.2586  0.2816
 4605W        W19736   2.222   5.133  13.067  0.1032  0.3728 -0.0674
 4606W        W19737  13.561   3.334   0.001 -0.0564  0.0319  0.1010
 4607W        W19738  15.430   0.037  14.362 -0.1872 -0.0599 -0.0935
 4608W        W19739  15.172  16.819  14.772  0.2754  0.1646 -0.0542
 4609W        W19740   9.683  10.660  15.132  0.1263 -0.1627 -0.1990
 4610W        W19741  10.738  17.726   4.417 -0.0355 -0.1349  0.0876
 4611W        W19742  13.772  17.665   4.959 -0.2855 -0.0722 -0.0315
 4612W        W19743  12.363   8.084   5.501  0.0096  0.1665  0.1213
 4613W        W19744   6.393  13.904   4.653 -0.0640 -0.2517 -0.1303
 4614W        W19745   5.689  16.403   3.706  0.0809  0.0793 -0.0697
 4615W        W19746  11.138   6.576   0.206  0.1771  0.0232 -0.3876
 4616W        W19747   8.215  12.853   5.145  0.2498 -0.0122  0.0610
 4617W        W19748  15.674  17.527   2.603  0.2865  0.1573 -0.1008
 4618W        W19749   9.112  14.664   5.596 -0.1419  0.1957 -0.0052
 4619W        W19750   9.140   6.609  10.647 -0.0442  0.2220 -0.2463
 4620W        W19751  11.036   9.278  14.605  0.0344  0.1476 -0.0425
 4621W        W19752   2.539   3.498  14.612  0.1636 -0.0014 -0.2361
 4622W        W19753  15.339  18.279  11.620  0.1447  0.0246 -0.1293
 4623W        W19754   0.789   1.714   3.781 -0.3921 -0.1140  0.0137
 4624W        W19755  10.411  13.217  15.208 -0.0166  0.2201  0.0854
 4625W        W19756   9.007  13.765  14.543  0.0657  0.2120 -0.3135
 4626W        W19757  15.570  16.584   2.874 -0.2576  0.1188  0.0914
 4627W        W19758  11.449  13.165  15.810 -0.0526 -0.4827 -0.1263
 4628W        W19759  16.986   2.949   5.346  0.0506  0.1713  0.0723
 4629W        W19760  18.055  12.193   1.148  0.1350  0.0513  0.0660
 4630W        W19761   9.641  14.416  11.093 -0.0584 -0.0977  0.1258
 4631W        W19762  10.971   3.962   2.762  0.2213  0.1676  0.0830
 4632W        W19763  13.015  12.418   2.324 -0.2672 -0.5686 -0.1140
 4633W        W19764  12.817  14.268  10.423 -0.3456 -0.2872  0.1156
 4634W        W19765   1.992   3.157  14.451 -0.0850 -0.1512  0.1356
 4635W        W19766  13.719   1.736  15.361  0.3366  0.2240  0.0089
 4636W        W19767  11.981  17.679  11.545  0.0856 -0.0768 -0.1726
 4637W        W19768   2.908  12.497  12.551 -0.2163 -0.2471 -0.0568
 4638W        W19769   1.777  14.131  13.063 -0.2429  0.1241  0.3136
 4639W        W19770  17.624  13.170  15.159 -0.1304  0.0494  0.0293
 4640W        W19771  15.317   8.022   0.033 -0.0490  0.2611 -0.3808
 4641W        W19772  14.551  10.315  14.810 -0.2086  0.0342 -0.1603
 4642W        W19773   4.814   9.811  11.478 -0.3645 -0.0669 -0.0910
 4643W        W19774   4.561   3.811   0.518 -0.0343 -0.1765  0.1594
 4644W        W19775  10.691   3.398  15.310 -0.1401 -0.0917  0.0178
 4645W        W19776   6.595   6.609  13.130  0.2479 -0.1045 -0.0466
 4646W        W19777   6.878   4.642  15.742  0.1186 -0.1380 -0.1155
 4647W        W19778   8.202  17.275  13.505  0.0362  0.0688 -0.0055
 4648W        W19779  16.467  11.626  16.050 -0.0213  0.2557  0.1438
 4649W        W19780  16.964   0.873   4.312  0.0921 -0.1106  0.3433
 4650W        W19781   5.540   1.671  15.047 -0.0498  0.0801 -0.2359
 4651W        W19782  12.017   9.531  12.729 -0.1188  0.2795 -0.0881
 4652W        W19783   8.648  12.929  14.544 -0.1599 -0.0996 -0.1199
 4653W        W19784   1.750  17.952  15.337  0.1238  0.1242 -0.0096
 4654W        W19785   2.884  16.790  11.853  0.2581 -0.1091  0.2562
 4655W        W19786  12.606  11.956  11.085 -0.2225  0.0670 -0.1173
 4656W        W19787   9.517   3.669   2.484 -0.0476  0.1054  0.2328
 4657W        W19788   7.685   4.906   3.693  0.3152 -0.3697 -0.0033
 4658W        W19789   5.432  18.036   3.062  0.1978 -0.2227  0.1543
 4659W        W19790   3.229  13.318  15.234  0.2534  0.2510 -0.2537
 4660W        W19791   2.348  12.105   1.589  0.2170 -0.1306  0.4991
 4661W        W19792  13.617   0.148  13.671  0.2999 -0.2191  0.2263
 4662W        W19793   9.849   6.938   3.073 -0.2281 -0.0275 -0.3040
 4663W        W19794  17.617   7.935   6.300  0.3670  0.0146  0.2609
 4664W        W19795  12.860  15.091   0.713  0.1791 -0.0362  0.0737
 4665W        W19796   3.311  12.453   3.649  0.0207  0.0977 -0.2946
 4666W        W19797  15.143   3.422  11.022 -0.3070  0.4562 -0.0437
 4667W        W19798  11.413   7.900   0.173 -0.1499 -0.0377 -0.1240
 4668W        W19799   3.983  14.446   3.803  0.4207 -0.1363 -0.0155
 4669W        W19800   6.415   2.136  15.329  0.0099 -0.0256  0.1392
 4670W        W19801  12.199   1.311  10.064 -0.2286 -0.0530 -0.3370
 4671W        W19802   9.916   3.756  13.020 -0.2278  0.0808  0.2504
 4672W        W19803  11.654  18.277  11.023  0.0283  0.3369 -0.0439
 4673W        W19804  17.024  13.264   5.410 -0.0755 -0.1458  0.0796
 4674W        W19805   8.825  13.527   0.271 -0.0591 -0.0200 -0.1965
 4675W        W19806  11.574   3.531   3.672 -0.3762 -0.1752 -0.1468
 4676W        W19807  12.740  14.456  10.889 -0.1042 -0.1480 -0.0481
 4677W        W19808  18.110   1.663   5.442 -0.1705 -0.3288 -0.0077
 4678W        W19809   5.412  10.643  10.089  0.0625  0.1973 -0.1423
 4679W        W19810  14.410   2.330  15.787 -0.0892  0.0057  0.1439
 4680W        W19811   7.452   8.063   1.984  0.2061  0.0194  0.2844
 4681W        W19812  16.374  10.290   2.363  0.1341  0.2892  0.1698
 4682W        W19813   8.091  15.708   5.220 -0.2484 -0.5942 -0.4528
 4683W        W19814  10.089   3.906  15.930  0.0865  0.0576 -0.0632
 4684W        W19815  16.442  12.034  11.564  0.1118  0.0921  0.0215
 4685W        W19816  11.625  11.528   4.188 -0.1134  0.1210 -0.1434
 4686W        W19817   7.838   1.140  12.672  0.1210 -0.0764 -0.0666
 4687W        W19818  12.326   3.577   1.148  0.2050  0.4369  0.1456
 4688W        W19819  16.127  12.936  11.204  0.0527  0.0959  0.2459
 4689W        W19820   6.527  14.143   0.004  0.3266 -0.2753 -0.1199
 4690W        W19821   2.032   9.219  13.761 -0.0120  0.2545 -0.0910
 4691W        W19822   4.385  13.589   3.046 -0.2279  0.1447  0.1223
 4692W        W19823   0.072  16.087   1.830  0.0551  0.2500  0.2235
 4693W        W19824   6.729   5.124  15.660 -0.0145 -0.2701  0.2094
 4694W        W19825  14.599  10.437  14.033 -0.4261  0.2467 -0.2300
 4695W        W19826   1.990   6.462  13.670  0.0287  0.2419  0.1368
 4696W        W19827   4.392  13.705  10.814 -0.1465 -0.1623  0.0288
 4697W        W19828   1.882   2.839   1.446  0.1528  0.2157 -0.1660
 4698W        W19829   7.817   5.562   1.907  0.3146  0.0547 -0.1560
 4699W        W19830   7.817   5.919  11.663 -0.1063  0.2085  0.1136
 4700W        W19831   0.045  17.245   2.188 -0.1086 -0.1539 -0.1574
 4701W        W19832   9.161   4.635   2.916  0.4096 -0.1301  0.1763
 4702W        W19833   9.919   1.259   1.116  0.1278  0.1953 -0.2655
 4703W        W19834  10.362  11.453   0.798 -0.0895 -0.0050 -0.1036
 4704W        W19835   9.251  11.850  14.637 -0.1154 -0.0035  0.1522
 4705W        W19836   5.034  17.664  15.890 -0.3551  0.0232  0.0473
 4706W        W19837   1.408  17.555   1.022  0.0594 -0.2344 -0.2598
 4707W        W19838   8.346   1.178  15.200  0.0503  0.0301  0.1459
 4708W        W19839   3.723   2.082  13.985 -0.1313  0.2736  0.1750
 4709W        W19840  16.151   7.975   3.115 -0.0806 -0.1987  0.0334
 4710W        W19841  17.202  12.234   9.527 -0.3073 -0.3701  0.0453
 4711W        W19842   6.123  12.322  14.832 -0.0061 -0.0557 -0.2028
 4712W        W19843  16.278  18.031   4.733  0.2997 -0.2284 -0.1070
 4713W        W19844  15.378  17.425  12.055 -0.0053  0.0264  0.0239
 4714W        W19845  16.236   0.196   4.108  0.2352 -0.0361 -0.1859
 4715W        W19846   3.250   4.166   2.485  0.0755 -0.0473  0.2493
 4716W        W19847   7.685  10.866   1.541  0.0237  0.2266 -0.0546
 4717W        W19848   8.120   4.487   0.216 -0.1545 -0.2168  0.0904
 4718W        W19849   6.669   1.047  14.585  0.2404  0.3203 -0.2152
 4719W        W19850   9.150  10.941   1.764 -0.1651  0.1951  0.0011
 4720W        W19851  15.545  11.219   3.010 -0.1544 -0.3216 -0.0590
 4721W        W19852   3.841   1.258   5.181  0.0726 -0.0519  0.1202
 4722W        W19853   1.145   4.289  14.229  0.2417  0.0913  0.0570
 4723W        W19854   8.260   5.422   1.885 -0.2159 -0.2452  0.1940
 4724W        W19855   5.236   8.883  11.534 -0.0087  0.2336 -0.2020
 4725W        W19856   0.961  12.025  12.504  0.0553 -0.3198 -0.0787
 4726W        W19857  12.070  18.078   2.446  0.3852 -0.0828 -0.0474
 4727W        W19858  14.345   3.847   3.729 -0.1437  0.0677 -0.0694
 4728W        W19859   6.250  14.679  12.900  0.1786 -0.1337  0.2557
 4729W        W19860  12.397   4.640  13.803 -0.1764 -0.1453 -0.1401
 4730W        W19861   7.424  17.966  13.464 -0.0783 -0.0489 -0.3657
 4731W        W19862   6.981  12.137  12.849  0.0549 -0.2878 -0.1290
 4732W        W19863   0.782  10.475  11.000  0.1142  0.1458 -0.0556
 4733W        W19864   0.347   9.910   5.258 -0.1347 -0.1490  0.2038
 4734W        W19865  13.112  11.142  14.367  0.0713 -0.1506  0.0276
 4735W        W19866  12.324  10.170   5.039 -0.0224  0.1202 -0.0950
 4736W        W19867  11.095  12.719  14.948  0.0427  0.0041 -0.2259
 4737W        W19868  12.303   2.785  14.178  0.1235  0.0247  0.2757
 4738W        W19869  12.652  17.254  12.009  0.1602 -0.1169 -0.0260
 4739W        W19870   8.835   0.273   0.977 -0.2384 -0.3136 -0.0400
 4740W        W19871   4.174  16.174  12.895  0.3076 -0.0000 -0.0625
 4741W        W19872   8.651  11.698  14.098 -0.1736  0.0627 -0.4155
 4742W        W19873   5.634   7.243   2.144  0.5641  0.1293 -0.1923
 4743W        W19874  11.732   8.598  15.584  0.1873  0.1047  0.0375
 4744W        W19875  14.641  14.048  14.204 -0.0510 -0.0461  0.4170
 4745W        W19876   8.300   6.094   3.149 -0.3616  0.0052 -0.0700
 4746W        W19877   7.011   9.117  11.178  0.1219 -0.0819  0.2364
 4747W        W19878  15.612  13.101  11.151 -0.1220  0.0918 -0.1733
 4748W        W19879   1.184  10.778   4.433  0.1503 -0.1063 -0.1714
 4749W        W19880   8.022   1.944  14.135 -0.2136 -0.3040 -0.1107
 4750W        W19881   3.996  13.188   4.012  0.0899  0.3993  0.0097
 4751W        W19882   0.622   2.310   4.360  0.1656  0.1493  0.0564
 4752W        W19883  13.888  12.815  12.862 -0.1154 -0.1538  0.0893
 4753W        W19884   5.425   2.004   4.466  0.0368 -0.0963 -0.1947
 4754W        W19885   3.830  13.845   1.037 -0.2330  0.0926 -0.1539
 4755W        W19886  13.855   8.449   4.991  0.0839 -0.1551 -0.0367
 4756W        W19887   8.631   9.352   1.230 -0.2157 -0.0514  0.3140
 4757W        W19888  14.755  15.998  13.605  0.0351  0.1969  0.1745
 4758W        W19889   0.945   7.367  13.882 -0.3962  0.1121  0.3128
 4759W        W19890  15.875   4.791  15.880  0.4123  0.2332 -0.1287
 4760W        W19891   4.285  17.198  13.144 -0.2909 -0.1796  0.0380
 4761W        W19892   3.402  16.602  13.246 -0.0937 -0.0757  0.2420
 4762W        W19893   3.004  16.676   3.355 -0.2827 -0.1973 -0.2413
 4763W        W19894   1.762   1.668  12.137 -0.2284 -0.1346 -0.1969
 4764W        W19895   6.271   4.579   0.240 -0.0438 -0.2473  0.0525
 4765W        W19896   6.074  11.143  13.092  0.1320  0.2623  0.2150
 4766W        W19897   4.945   7.722   0.552 -0.1269  0.1845  0.2074
 4767W        W19898  12.701   5.156   3.852  0.0927 -0.2452 -0.0226
 4768W        W19899  10.387   5.739  11.539 -0.1178 -0.2540 -0.0188
 4769W        W19900  15.982  11.940   0.084 -0.0395  0.1383 -0.1822
 4770W        W19901  10.620  16.330   4.995 -0.0895 -0.1491  0.0842
 4771W        W19902  17.453   8.331  11.635  0.2509  0.1780  0.0312
 4772W        W19903  11.995  10.246   4.694  0.4705  0.2929  0.1643
 4773W        W19904   5.749  10.996   1.012  0.0237 -0.0753  0.1716
 4774W        W19905   3.842   6.292   4.591  0.1128  0.0555  0.0928
 4775W        W19906   6.314  12.038   2.226 -0.2075 -0.0912 -0.2316
 4776W        W19907   3.436   1.930  14.662  0.0598 -0.0706 -0.1874
 4777W        W19908  18.286  17.472  15.640  0.3361  0.1330 -0.1986
 4778W        W19909   5.437  14.957   1.604 -0.1071  0.1510  0.0169
 4779W        W19910   3.925  13.299  12.852 -0.0162 -0.0395  0.2135
 4780W        W19911  11.347   3.334   3.171  0.0251 -0.0654 -0.0961
 4781W        W19912   4.898   4.863  15.197  0.0764 -0.3622 -0.1924
 4782W        W19913   4.451   5.395  15.083 -0.1545 -0.3555 -0.2344
 4783W        W19914   4.432  12.365  11.310 -0.2062  0.0847  0.1856
 4784W        W19915  14.956  10.522  16.092 -0.2453 -0.1783 -0.2168
 4785W        W19916   4.857   1.401  11.174 -0.1112  0.2851  0.0222
 4786W        W19917  10.294  16.146   0.931  0.0493 -0.1196  0.0727
 4787W        W19918   3.089  14.284   3.358 -0.3973 -0.0004  0.0237
 4788W        W19919  14.862   8.137  11.285  0.0046 -0.0862  0.1111
 4789W        W19920   6.019   6.965   0.671 -0.0237  0.1817  0.3873
 4790W        W19921   1.705   4.642   1.084  0.0533 -0.0504  0.2566
 4791W        W19922   8.710  12.054   2.210  0.1203 -0.0694  0.1643
 4792W        W19923   0.501   5.052   5.632 -0.4168  0.0828 -0.0329
 4793W        W19924  14.923  13.679  13.922 -0.1916  0.0923 -0.0595
 4794W        W19925  14.699   6.443  13.908  0.3089  0.0379  0.0369
 4795W        W19926   9.202   4.665   2.205  0.0277  0.3682 -0.2087
 4796W        W19927   2.841   4.268  12.816  0.1010 -0.3814  0.2525
 4797W        W19928   7.203   8.405  13.992  0.0391 -0.0673  0.1361
 4798W        W19929   1.865  16.273   4.161  0.2721 -0.2597  0.3617
 4799W        W19930   9.869  14.064  13.222 -0.0346  0.2002  0.2639
 4800W        W19931   5.567  10.453   3.388  0.0535 -0.0459 -0.0195
 4801W        W19932   1.058  16.151  15.293  0.1145 -0.1972  0.4491
 4802W        W19933  16.424   6.774   2.358  0.2696 -0.0801 -0.0449
 4803W        W19934   3.725  10.922  12.481 -0.1166  0.0635  0.0943
 4804W        W19935   4.572   1.408  14.997  0.0655 -0.1574  0.1412
 4805W        W19936  14.381  12.220   4.086  0.3096 -0.4650  0.0339
 4806W        W19937  14.532  14.884  13.379  0.0018  0.1260 -0.0231
 4807W        W19938   9.097   2.714  11.722 -0.0397  0.1521 -0.1593
 4808W        W19939  12.652   5.365  11.337  0.1358  0.0720  0.4252
 4809W        W19940  12.297  10.147  14.910 -0.0251 -0.2022 -0.0108
 4810W        W19941  17.484   3.171  13.033  0.2117  0.3941 -0.0625
 4811W        W19942   7.718   4.160   0.590  0.1298  0.0567 -0.1184
 4812W        W19943   3.516  16.161   0.286 -0.2885 -0.0238 -0.1879
 4813W        W19944  13.966  12.506  15.268  0.0580 -0.1738 -0.2582
 4814W        W19945   0.488   0.083   2.479  0.1274  0.0406 -0.2624
 4815W        W19946  16.048  16.319  13.128  0.4527  0.1995 -0.3944
 4816W        W19947  16.350   7.773  12.420 -0.2962 -0.1855 -0.1146
 4817W        W19948   7.436   2.740   5.350  0.0457 -0.1005 -0.1198
 4818W        W19949  10.600   6.550   1.962 -0.1912 -0.3232 -0.0857
 4819W        W19950  11.738  13.839   1.360 -0.4178 -0.2906 -0.0454
 4820W        W19951   3.533   6.320   0.512 -0.3423 -0.2608  0.0320
 4821W        W19952   0.636   9.017   2.336 -0.0838 -0.0796 -0.0634
 4822W        W19953   3.086   2.605  10.273  0.0915 -0.0372 -0.0069
 4823W        W19954   4.582   9.644  12.426 -0.2123  0.0163  0.1152
 4824W        W19955   3.880   0.319   3.655 -0.1628 -0.1430  0.2178
 4825W        W19956   4.949   9.617   2.268  0.0353 -0.2378  0.3894
 4826W        W19957   3.311   0.146   1.298 -0.1892 -0.0180 -0.1600
 4827W        W19958   9.310   5.273   0.361  0.0928 -0.0008  0.0179
 4828W        W19959   9.228   9.776   5.323 -0.0607  0.0295 -0.0700
 4829W        W19960   9.469   9.040   2.872 -0.3076 -0.1831  0.0950
 4830W        W19961  10.998   9.717  11.175  0.1522 -0.3561  0.2210
 4831W        W19962   7.072  13.977  13.746 -0.0001  0.0065 -0.0730
 4832W        W19963  16.011  11.680   1.410  0.1718 -0.1453  0.2373
 4833W        W19964  15.921   2.807  12.203 -0.1047  0.0566 -0.0523
 4834W        W19965   3.773  18.310   4.038 -0.1860  0.1453 -0.3763
 4835W        W19966   8.554   0.665  11.991  0.2590 -0.0778  0.0103
 4836W        W19967  18.106   6.145   1.402 -0.4250  0.0593 -0.1404
 4837W        W19968   2.027  16.688  15.104 -0.0803  0.2028 -0.0115
 4838W        W19969   9.425  13.833   5.445  0.1747 -0.0835 -0.3409
 4839W        W19970   1.058  12.441  12.655  0.1393  0.0365  0.1602
 4840W        W19971   8.471   4.594  10.774 -0.0696 -0.0939  0.0543
 4841W        W19972   5.331   2.983  14.172 -0.0616  0.3383 -0.0984
 4842W        W19973  10.861  17.343  10.890 -0.2772 -0.1929  0.0743
 4843W        W19974  15.516  17.939   4.144  0.3445  0.2271  0.2439
 4844W        W19975   1.141  16.777   3.997 -0.2357 -0.3242  0.2230
 4845W        W19976   6.903  11.480   3.916 -0.2444 -0.1665 -0.0862
 4846W        W19977   7.961  14.064   4.986  0.0540  0.1745 -0.0963
 4847W        W19978   9.412  13.250   5.301  0.3277 -0.2911 -0.0487
 4848W        W19979   4.684   2.883  11.698 -0.1606 -0.3957 -0.1759
 4849W        W19980  13.074   4.498  13.130  0.0048  0.1460 -0.1342
 4850W        W19981   3.710  12.198   3.311  0.4274  0.1260 -0.0866
 4851W        W19982  17.175   5.443  10.307  0.3128  0.2706 -0.1636
 4852W        W19983   6.551  10.887   2.835 -0.3509 -0.0891 -0.0612
 4853W        W19984  18.268  12.035   3.546  0.0759 -0.0920 -0.2170
 4854W        W19985   1.538   1.582   4.959  0.1594  0.1847 -0.0109
 4855W        W19986   3.134   3.435   1.951  0.1469  0.4187  0.0627
 4856W        W19987   1.542   7.317  15.161  0.0012  0.1163 -0.1563
 4857W        W19988  13.196   3.465  13.307  0.2271  0.0216  0.0539
 4858W        W19989  15.049   8.505  14.905 -0.0404 -0.0140  0.4303
 4859W        W19990   6.082  13.473   4.397  0.0483 -0.0180  0.3784
 4860W        W19991  12.351  12.813   5.674  0.0613  0.2971 -0.0618
 4861W        W19992   6.810  14.629   1.999  0.2377 -0.0310 -0.1471
 4862W        W19993  10.979  18.215   4.382  0.2347 -0.1557 -0.0241
 4863W        W19994   6.025  17.581  12.623 -0.2499 -0.0756  0.2228
 4864W        W19995   8.286  17.827   1.271  0.0110 -0.3364 -0.0338
 4865W        W19996  13.333   4.688  10.864 -0.1956  0.1734 -0.1207
 4866W        W19997   1.559  11.832  10.793  0.0076  0.0274  0.1882
 4867W        W19998   7.885   9.846  12.669  0.1850  0.1346  0.0461
 4868W        W19999   4.865   7.737  14.487 -0.2257 -0.0536 -0.1612
 4869W        W20000  13.397  18.050  12.413 -0.0093  0.1420  0.1575
 4870W        W20001  17.551  17.188   2.947  0.2422  0.1075 -0.1283
 4871W        W20002   0.992  10.278   1.817 -0.0717 -0.1600  0.2256
 4872W        W20003   9.644  16.203  11.758 -0.1493 -0.1873 -0.3875
 4873W        W20004  11.806   8.009  14.114 -0.0365 -0.0903  0.0454
 4874W        W20005  12.767  16.423   0.269  0.3123  0.1378  0.1281
 4875W        W20006   7.592  15.609  16.010 -0.1566 -0.2207  0.0063
 4876W        W20007   7.808   3.430   4.966 -0.0524  0.2346  0.0462
 4877W        W20008   2.660   6.755   0.809 -0.0419  0.0850  0.0027
 4878W        W20009  12.338   8.343   0.030  0.3731  0.2480 -0.1154
 4879W        W20010   7.580  11.610  15.014  0.3473  0.3350 -0.0585
 4880W        W20011   7.399   8.538   4.740 -0.0209  0.1346  0.2463
 4881W        W20012   1.993  17.000   0.689  0.2474 -0.1392  0.1128
 4882W        W20013   6.246   5.043   2.072  0.1103  0.0829 -0.0168
 4883W        W20014  17.840  15.977   3.526  0.2995  0.1266  0.0752
 4884W        W20015   1.559  11.327   9.886  0.0822  0.2758  0.3730
 4885W        W20016   4.207  14.441   1.299  0.1079 -0.2716  0.1151
 4886W        W20017  10.183  18.087  11.097  0.0098  0.0852  0.1052
 4887W        W20018   4.292   3.631  11.882 -0.0410 -0.3799 -0.3920
 4888W        W20019   9.072   6.462   4.676 -0.0391 -0.1273 -0.0590
 4889W        W20020  10.104   5.480  14.663  0.1397 -0.0700 -0.1588
 4890W        W20021  16.113   3.511  15.059  0.0644  0.3334 -0.2452
 4891W        W20022   8.768  10.765  13.916  0.1952  0.1451  0.0131
 4892W        W20023  10.011   9.231   4.918  0.1749  0.0325  0.0396
 4893W        W20024  14.221   2.968   2.551 -0.2990  0.4666 -0.2456
 4894W        W20025  13.230   1.911   3.166 -0.1156  0.0676  0.2925
 4895W        W20026   6.218  17.694   0.384  0.1293 -0.1868  0.2609
 4896W        W20027   6.710   2.613   5.865 -0.0380 -0.0679 -0.0437
 4897W        W20028  15.153   1.535   1.267 -0.1639  0.1491  0.0157
 4898W        W20029  11.306  17.848   5.726  0.1062  0.1216 -0.2531
 4899W        W20030  13.196  16.743  10.679 -0.1260  0.1898 -0.0304
 4900W        W20031   4.728  15.612   2.068 -0.1382 -0.0052  0.0669
 4901W        W20032   7.842   6.298   2.843 -0.0538 -0.0174  0.2867
 4902W        W20033   0.836   6.200  15.991  0.0659  0.1622  0.0362
 4903W        W20034   1.628  15.100  10.675  0.1433 -0.0267 -0.1151
 4904W        W20035  12.828  16.714   3.927 -0.0127 -0.1276 -0.1650
 4905W        W20036  14.869   3.609  12.047 -0.0495 -0.2590 -0.1490
 4906W        W20037  14.225   8.776  11.512 -0.0790  0.0356 -0.2754
 4907W        W20038   4.393  12.197  13.906  0.0192  0.0186  0.1582
 4908W        W20039  15.128   9.098   2.884 -0.1473 -0.0040  0.0340
 4909W        W20040  13.874   2.299   2.600  0.2606  0.0504 -0.0881
 4910W        W20041  13.030   0.068  12.656  0.1373  0.0697 -0.0351
 4911W        W20042   6.343   1.456   4.358  0.0547 -0.2610  0.1217
 4912W        W20043   4.277   4.523   4.892  0.1721  0.1332 -0.0964
 4913W        W20044   8.598   7.565   3.196  0.0553  0.3907  0.3656
 4914W        W20045  10.460  15.581   0.786  0.2411  0.2250  0.0815
 4915W        W20046   9.063   8.002  10.786  0.0139 -0.1843  0.0085
 4916W        W20047   3.438  16.017   2.037  0.0420 -0.0678  0.3256
 4917W        W20048   1.724   2.667  12.172 -0.1911  0.2463  0.0205
 4918W        W20049   8.010  11.743   3.112 -0.1083 -0.3121  0.2106
 4919W        W20050   4.158   9.557  13.887  0.3398 -0.1186  0.0066
 4920W        W20051  14.818   1.690  13.806 -0.1256  0.2031  0.3562
 4921W        W20052   5.399  15.602   4.785  0.2062  0.3566 -0.0173
 4922W        W20053   1.362   0.329   2.788  0.3393  0.1115 -0.1091
 4923W        W20054   8.818  11.614   1.527  0.3136 -0.0250  0.0069
 4924W        W20055  10.160  15.315   1.702 -0.1429 -0.1401 -0.1897
 4925W        W20056   9.541   4.309  14.269 -0.0882  0.1436  0.2215
 4926W        W20057   2.052   1.783  10.192  0.1299  0.0998  0.1076
 4927W        W20058   3.155   3.457   3.101 -0.0419  0.3616  0.2249
 4928W        W20059   2.555  13.065   4.833  0.2767  0.1586  0.1515
 4929W        W20060  10.268  14.628   2.524  0.0644 -0.3316 -0.1587
 4930W        W20061  10.277   7.767  14.521 -0.0843 -0.0641  0.1312
 4931W        W20062  15.921  15.680  12.482  0.0245 -0.2387 -0.1344
 4932W        W20063   4.874  10.950  15.147  0.1844  0.0344 -0.2868
 4933W        W20064  12.024   0.202  11.764 -0.0851  0.3202 -0.0194
 4934W        W20065   0.574  11.380  11.840  0.3982  0.1318  0.1489
 4935W        W20066  17.351   9.847  14.497 -0.1089  0.0017 -0.1502
 4936W        W20067  17.405   8.384   5.881  0.2798 -0.1821  0.0963
 4937W        W20068  16.578   4.669  11.867 -0.2939 -0.4332  0.1374
 4938W        W20069  17.955  11.182  14.860  0.1239  0.1716  0.3295
 4939W        W20070   7.229   9.056   4.715  0.3154  0.2934 -0.1613
 4940W        W20071  10.793   6.652  11.395 -0.2433  0.0080  0.0686
 4941W        W20072   3.089   9.931   3.932 -0.1272  0.2442 -0.3969
 4942W        W20073   1.217   5.548   2.734  0.4330 -0.2836  0.2353
 4943W        W20074   5.299  15.344   3.423 -0.1222 -0.0338  0.0072
 4944W        W20075   8.806   7.792  16.039  0.1611 -0.0645  0.0917
 4945W        W20076   3.729   7.621   0.786 -0.0402  0.1426 -0.0716
 4946W        W20077   9.138   5.415  11.764 -0.2157  0.3040 -0.0573
 4947W        W20078  16.302   5.359   5.390 -0.1672 -0.2989  0.0737
 4948W        W20079   6.819  12.096   4.608  0.0233 -0.0197  0.0847
 4949W        W20080  16.851   3.173  12.049  0.0588  0.1518 -0.0099
 4950W        W20081   9.803   4.882  14.892 -0.2360  0.3634  0.2033
 4951W        W20082  16.980   7.476   0.531  0.0176 -0.0354  0.2582
 4952W        W20083   3.997  14.160  15.716  0.1369 -0.0443  0.2440
 4953W        W20084  18.051  11.850   9.721 -0.2173  0.3531  0.0324
 4954W        W20085   9.870  15.927  10.833  0.0414 -0.0817 -0.2646
 4955W        W20086  12.901   3.432  13.996  0.0794 -0.0154  0.2125
 4956W        W20087   9.636  10.083  14.227 -0.3936  0.2587 -0.1677
 4957W        W20088   2.414   3.342   4.722  0.1709 -0.3728 -0.1882
 4958W        W20089   0.272   5.520  13.806  0.0655 -0.0319 -0.2188
 4959W        W20090   8.819   9.815   3.094  0.2389 -0.1918  0.3306
 4960W        W20091   9.245  17.465  13.649  0.2092  0.0933  0.0835
 4961W        W20092  15.591   0.256   5.623 -0.0683  0.3561 -0.0375
 4962W        W20093   1.539  15.404   3.928 -0.0791 -0.0858  0.1662
 4963W        W20094   3.833  17.569  12.430 -0.0900 -0.0472  0.1080
 4964W        W20095   8.166  12.880   2.233 -0.3918 -0.0019 -0.3174
 4965W        W20096  15.173   1.161   5.232  0.1543  0.2441  0.3109
 4966W        W20097  13.320   0.029   0.787 -0.0836 -0.2794  0.0837
 4967W        W20098  18.165  12.074  15.780 -0.2239  0.0292  0.3206
 4968W        W20099  14.661   7.991  11.730 -0.0735  0.1292  0.2747
 4969W        W20100  16.702  10.405  15.644 -0.1955 -0.1306  0.2251
 4970W        W20101  16.793   7.126   2.879  0.0805 -0.1582  0.0499
 4971W        W20102   6.563   0.561   1.247 -0.0341  0.0518 -0.0688
 4972W        W20103   0.489   2.187  14.236 -0.1093  0.0693  0.0196
 4973W        W20104  15.870  17.473   5.505 -0.2999 -0.2732 -0.2514
 4974W        W20105   3.632  12.208   5.330  0.0226  0.3649  0.2808
 4975W        W20106  13.513   9.121  10.934 -0.0053  0.4691 -0.0052
 4976W        W20107  11.963   3.604   2.475  0.0855  0.1166  0.1952
 4977W        W20108   5.610  12.526   1.187  0.0043  0.0680 -0.1400
 4978W        W20109   5.037   8.765  12.144  0.1937 -0.3044 -0.0224
 4979W        W20110   2.216  14.755   0.007 -0.1794 -0.0076 -0.0501
 4980W        W20111  15.241   3.821   3.131  0.2259  0.1395  0.0300
 4981W        W20112  12.608  11.836  15.211 -0.1430 -0.1357  0.2883
 4982W        W20113  15.531  15.774  15.368  0.0298 -0.0684 -0.0945
 4983W        W20114   6.029  11.701  15.727 -0.3029  0.2191 -0.1578
 4984W        W20115  16.608   9.709  15.440 -0.0757  0.3601 -0.0315
 4985W        W20116   8.276  10.354   0.178 -0.5137 -0.0482  0.1796
 4986W        W20117  17.849  14.301   3.493 -0.3652  0.0457 -0.1663
 4987W        W20118   2.725   7.055  10.644  0.0322  0.1309  0.0723
 4988W        W20119  14.047   2.768  14.425 -0.3609 -0.0279 -0.1299
 4989W        W20120  11.008  14.659   0.091  0.0376 -0.2427  0.1349
 4990W        W20121   9.597   9.179   3.326 -0.0296  0.1741  0.3388
 4991W        W20122  14.216   4.478  14.497 -0.1682 -0.0032 -0.1498
 4992W        W20123   0.398  17.531   1.779  0.0369  0.1685 -0.0433
 4993W        W20124   4.484  17.388   3.179 -0.1036 -0.1423 -0.3628
 4994W        W20125  10.076   4.035  13.532 -0.2688 -0.0356  0.0367
 4995W        W20126   9.767   1.638   3.158  0.3339  0.0158  0.1988
 4996W        W20127  17.762   0.288   1.084 -0.2833  0.2783 -0.2445
 4997W        W20128   5.942  10.391  14.649  0.2387  0.1151  0.0443
 4998W        W20129  17.720   5.738   4.975  0.1316 -0.1171 -0.0881
 4999W        W20130   5.834   8.916  15.409  0.1057  0.1139  0.1463
 5000W        W20131   9.764   8.597  15.308  0.0109  0.3178 -0.0695
 5001W        W20132   8.470   1.992  11.458  0.0322 -0.1278 -0.0388
 5002W        W20133  13.309  14.227   4.299 -0.0097 -0.0574  0.0596
 5003W        W20134   1.638  13.824   0.828  0.2721 -0.0787  0.2210
 5004W        W20135  10.702   9.884   5.695 -0.2017  0.3355 -0.0048
 5005W        W20136   9.162   0.322   4.940 -0.1026  0.0557 -0.2771
 5006W        W20137  15.000  13.427  10.730  0.0126 -0.2084 -0.1321
 5007W        W20138  13.831   7.300  13.497  0.0949  0.0470 -0.0290
 5008W        W20139   5.413   8.846   4.379  0.1586 -0.0834  0.0662
 5009W        W20140   7.074   9.305  15.753 -0.0184  0.3204 -0.0221
 5010W        W20141  14.604   8.080  13.074 -0.0329  0.1376 -0.0939
 5011W        W20142   3.303   0.760   2.428  0.2629 -0.3378 -0.1660
 5012W        W20143   3.255   8.112  14.237  0.4214  0.0982 -0.2817
 5013W        W20144  14.026  15.027  12.086  0.0110  0.0543  0.1078
 5014W        W20145   5.985  13.267   5.101  0.0032 -0.0220  0.0839
 5015W        W20146  17.367   8.635   5.433 -0.1273  0.3875  0.4448
 5016W        W20147   5.626   9.312   9.668 -0.0764 -0.0565  0.0333
 5017W        W20148   0.027   7.780  11.805 -0.1523 -0.2159 -0.0094
 5018W        W20149   0.040   5.182  12.169  0.1546  0.0254 -0.2389
 5019W        W20150   1.108   2.823  11.386 -0.0616 -0.0443  0.0019
 5020W        W20151   2.922   9.161   0.420  0.0260 -0.1081 -0.1835
 5021W        W20152   5.857  16.434   2.884 -0.2137  0.0586  0.0684
 5022W        W20153   9.444   3.819   1.624 -0.1307  0.0789 -0.1010
 5023W        W20154  17.936   6.699   5.213  0.3032  0.0409  0.0359
 5024W        W20155   0.974  10.196  14.036  0.0772 -0.0693  0.1102
 5025W        W20156   9.073  14.806  13.902  0.0832  0.1161  0.0065
 5026W        W20157   7.604   4.381  15.833 -0.3735 -0.0960  0.0505
 5027W        W20158  11.653   2.418  15.222 -0.4561  0.1702  0.2602
 5028W        W20159  17.010   3.636   0.094 -0.0628  0.2850  0.1675
 5029W        W20160   0.600   9.611  15.902 -0.5175 -0.2723 -0.0915
 5030W        W20161   1.775   6.173   2.994 -0.2632  0.2433  0.1500
 5031W        W20162   4.440   7.579  15.919 -0.0031  0.3152 -0.2151
 5032W        W20163   6.726  14.066  11.332  0.1302  0.0692 -0.2030
 5033W        W20164  12.242   7.115   5.445  0.2903 -0.1358  0.0236
 5034W        W20165   0.638  13.035   1.766  0.2427  0.2161  0.3528
 5035W        W20166  15.141   3.337   3.257  0.1288 -0.1776  0.1076
 5036W        W20167   3.915   3.124  12.381  0.2855 -0.1263  0.0142
 5037W        W20168  17.925   9.540   5.505 -0.2080  0.3328  0.2028
 5038W        W20169   5.654   3.070   4.865 -0.1216 -0.0195 -0.0788
 5039W        W20170  13.931   0.795   3.736 -0.2641  0.1211  0.3147
 5040W        W20171  11.978  12.884   0.480 -0.0231  0.1028  0.2333
 5041W        W20172   1.910  14.594  13.240  0.1352  0.1209 -0.5198
 5042W        W20173  14.464   4.450   9.928 -0.2935  0.2752  0.1152
 5043W        W20174  18.176  18.237  15.785  0.2775  0.0038  0.4136
 5044W        W20175   1.143  12.980  12.365  0.0749 -0.0078  0.4336
 5045W        W20176  10.866   8.029   3.825  0.1709  0.1709 -0.0523
 5046W        W20177  16.686   7.947  11.684 -0.1586  0.1160  0.0876
 5047W        W20178   9.557  12.075  12.783 -0.0022 -0.1526  0.2298
 5048W        W20179   6.061   6.060  13.766 -0.0734  0.2422  0.0477
 5049W        W20180  10.747   3.887   3.704 -0.3778  0.0756  0.0388
 5050W        W20181   4.588  10.467  13.584 -0.1698  0.1410 -0.0556
 5051W        W20182   6.973   5.114   2.570  0.0509  0.0418 -0.0031
 5052W        W20183  17.202   2.441  15.170  0.0016  0.0409  0.3037
 5053W        W20184   3.410   7.070  16.088  0.0833 -0.1716  0.1998
 5054W        W20185   3.649  17.686  10.944  0.2765  0.0958  0.0192
 5055W        W20186  11.645  18.285  15.971 -0.1076  0.1708 -0.3663
 5056W        W20187   3.583  10.909  15.627 -0.1013 -0.0243  0.1102
 5057W        W20188  15.841  11.951   4.335 -0.1241  0.0689 -0.0497
 5058W        W20189   1.184   0.067   1.419  0.2048 -0.2695 -0.1621
 5059W        W20190  14.050   9.071  13.870  0.0372 -0.3802  0.1533
 5060W        W20191  17.732  16.738   2.787  0.0655  0.0045 -0.0559
 5061W        W20192  12.194  17.555   2.262  0.0801 -0.2244 -0.3134
 5062W        W20193   9.284  15.925   1.007 -0.1468  0.0459  0.1606
 5063W        W20194  16.251   8.530   5.332  0.1593  0.1164 -0.1696
 5064W        W20195   7.380   4.931  15.788 -0.0931 -0.2826 -0.0657
 5065W        W20196   0.287   3.009   0.399  0.0278 -0.1860 -0.0966
 5066W        W20197   7.283   7.003   1.640  0.3165 -0.0202  0.0114
 5067W        W20198  11.770   1.817  10.721  0.0537  0.2121 -0.0078
 5068W        W20199  12.407  10.381   2.234 -0.0307  0.1883 -0.2496
 5069W        W20200   3.825   3.357  11.961  0.1030  0.1004  0.1922
 5070W        W20201   0.552  16.349   1.703 -0.1698  0.0020  0.0730
 5071W        W20202   1.456  10.408  12.149  0.0860 -0.2562  0.0921
 5072W        W20203  16.025   6.483   5.048 -0.1106  0.2238 -0.1945
 5073W        W20204  17.262   4.903   5.442 -0.1506 -0.0017 -0.1512
 5074W        W20205   9.772   6.851  12.369 -0.0121  0.0363 -0.2593
 5075W        W20206   5.421  13.264  11.591 -0.0863  0.1306  0.0645
 5076W        W20207   1.623   9.680  11.579  0.1585  0.0414 -0.2301
 5077W        W20208   9.650   0.029  14.727  0.1314 -0.1814 -0.0315
 5078W        W20209   3.540  17.479   1.643 -0.0172 -0.1203  0.0394
 5079W        W20210   8.909   9.925   3.572  0.2265 -0.0451  0.0268
 5080W        W20211   4.227   3.122  11.649 -0.2280  0.1205  0.2318
 5081W        W20212   2.414  14.559  13.445  0.1326  0.1038  0.0430
 5082W        W20213  12.119   0.427  15.459  0.2717 -0.3765 -0.0419
 5083W        W20214   6.444   4.627   3.137  0.0438  0.0697  0.0599
 5084W        W20215  10.104  13.176   4.025  0.1021  0.2051 -0.0633
 5085W        W20216   1.713   4.861  12.044 -0.2505  0.0396  0.3181
 5086W        W20217   6.545  13.300   0.242 -0.1550  0.0455 -0.0643
 5087W        W20218   1.248   2.086   5.642  0.4041  0.1604  0.1287
 5088W        W20219  17.161   2.488   1.180  0.2652 -0.2512  0.2145
 5089W        W20220  16.757  13.748  14.260  0.1200  0.1911  0.0351
 5090W        W20221   5.199   9.209   2.672 -0.1792 -0.1649  0.1401
 5091W        W20222   9.367   9.983   1.375  0.0852 -0.1382  0.1501
 5092W        W20223  14.596  17.698  13.047  0.0280 -0.0900 -0.1498
 5093W        W20224   5.629   0.587  10.478 -0.1980  0.0686  0.3544
 5094W        W20225   5.240   6.620  16.061 -0.2518 -0.1298  0.0461
 5095W        W20226   3.143  15.249   0.709 -0.0323  0.0682  0.0980
 5096W        W20227  12.025  15.851  12.826  0.1343  0.1430  0.0353
 5097W        W20228  17.245   1.614   4.582 -0.0584 -0.0086 -0.0437
 5098W        W20229   1.550   4.013  10.447 -0.0066 -0.3774  0.5700
 5099W        W20230   4.584  14.691  14.714  0.0692 -0.0248 -0.0254
 5100W        W20231  11.843  16.532   1.489 -0.1884  0.1453 -0.0244
 5101W        W20232  16.526   8.173  10.844  0.3978 -0.0611  0.0438
 5102W        W20233   8.559  10.744  11.083  0.1801  0.0272 -0.2163
 5103W        W20234  14.536  17.375   3.727 -0.4297 -0.1737  0.2379
 5104W        W20235   0.706   9.816   0.806  0.0048  0.0645  0.2033
 5105W        W20236  12.619   9.591   1.988  0.1350  0.0404  0.2825
 5106W        W20237  12.940  18.298  15.810  0.0050  0.2216  0.2057
 5107W        W20238  15.566  15.464   5.191 -0.1100  0.1243 -0.0849
 5108W        W20239  11.991  13.971  12.857  0.2084  0.0236 -0.0245
 5109W        W20240  14.891  14.922   4.596  0.1946 -0.0832 -0.2604
 5110W        W20241   9.973   6.399   0.534 -0.0511 -0.0585 -0.0859
 5111W        W20242  15.801   0.795  12.202  0.1965 -0.2553  0.3595
 5112W        W20243  10.910   1.717  10.928  0.0323 -0.0719 -0.1511
 5113W        W20244   0.135  12.748  15.326  0.1922 -0.0749  0.2074
 5114W        W20245   4.245   6.964   2.783  0.0866 -0.2218 -0.0760
 5115W        W20246  10.734   1.190  11.505  0.0110  0.1101  0.2407
 5116W        W20247  18.024  14.110   4.266 -0.2927 -0.1656  0.0565
 5117W        W20248  16.481   1.240  10.802 -0.1580  0.0415  0.0212
 5118W        W20249  10.050   0.474   4.538  0.2398  0.1771 -0.0588
 5119W        W20250   3.875   0.240  13.196 -0.2137 -0.3403 -0.3027
 5120W        W20251   9.709   2.058   4.846 -0.2682  0.0849 -0.0903
 5121W        W20252   4.333   0.721   4.437 -0.1200  0.3589 -0.0643
 5122W        W20253   4.629  16.068   2.157  0.1458 -0.3789 -0.0161
 5123W        W20254  17.085  10.265   1.230 -0.1833 -0.1180 -0.0262
 5124W        W20255  15.643   0.333  15.822 -0.0067 -0.0077 -0.2388
 5125W        W20256   2.246  14.472  11.827 -0.1954 -0.2035  0.0883
 5126W        W20257  14.320  14.391   4.445 -0.1953 -0.0615 -0.1057
 5127W        W20258  16.329   7.307   1.888 -0.0827 -0.1058  0.0521
 5128W        W20259   3.565  17.333   6.253  0.0344 -0.0398 -0.0899
 5129W        W20260  17.952  15.820  14.630  0.0287  0.3609 -0.1101
 5130W        W20261   2.461  14.505  11.005  0.0594 -0.0653  0.2748
 5131W        W20262  14.546   8.651   2.420  0.0832  0.0451  0.0123
 5132W        W20263  14.052   4.202   4.411 -0.1270 -0.2884  0.0934
 5133W        W20264  10.989  16.969   0.404  0.1657 -0.0768 -0.1786
 5134W        W20265   1.361   3.133   0.141  0.0150  0.2830 -0.1945
 5135W        W20266   3.547  18.052   5.445 -0.1450 -0.2815 -0.2377
 5136W        W20267   3.229   0.733  12.780  0.0125  0.0185 -0.1513
 5137W        W20268  16.570  11.618  11.264 -0.0205 -0.3918 -0.0172
 5138W        W20269  11.949  12.316   4.262 -0.1419 -0.1347  0.2300
 5139W        W20270  14.010   4.757  13.592 -0.3108  0.1040  0.2400
 5140W        W20271   2.873   4.785   1.922 -0.4013 -0.1487 -0.1848
 5141W        W20272   4.835   6.630   3.282 -0.3090 -0.0553 -0.0978
 5142W        W20273  17.155   0.578   1.059  0.2905 -0.2418  0.1166
 5143W        W20274  11.402   0.030  14.781  0.0892  0.0942 -0.1577
 5144W        W20275  11.681  10.694   2.312 -0.2847 -0.1736  0.1263
 5145W        W20276  15.371  15.189  11.033 -0.0081 -0.0065 -0.1964
 5146W        W20277  12.348  14.581  14.161  0.0655  0.1457  0.0125
 5147W        W20278  11.856   9.973  13.844  0.1149  0.1632 -0.0257
 5148W        W20279   9.943   4.384   2.547  0.3678 -0.4154  0.2465
 5149W        W20280   6.770  16.941   5.218 -0.0693  0.2097  0.3039
 5150W        W20281   7.707   9.350  13.942  0.2539  0.5379 -0.1881
 5151W        W20282   1.680   2.809   6.133 -0.1544  0.1540 -0.0250
 5152W        W20283  10.080  16.680  14.626 -0.1059  0.2576  0.0872
 5153W        W20284  13.317  17.872   5.298  0.0073 -0.0472  0.2373
 5154W        W20285  16.485   8.700   1.838 -0.1773 -0.0870  0.0055
 5155W        W20286   7.087  15.201   5.309 -0.0047  0.1099  0.1417
 5156W        W20287   1.848  17.771  11.646 -0.2654 -0.0045  0.0729
 5157W        W20288  12.407   3.695   0.670 -0.3813 -0.3688 -0.1132
 5158W        W20289   0.013  16.549   0.727 -0.2229  0.0442 -0.3366
 5159W        W20290  16.849  16.750  14.000 -0.0454  0.1151 -0.2011
 5160W        W20291   0.308  15.275  14.035  0.1588  0.1780 -0.0369
 5161W        W20292  15.456   0.894   0.680  0.0930  0.0390 -0.2090
 5162W        W20293  12.109   7.069   2.634 -0.0158  0.3273 -0.0706
 5163W        W20294   0.148   6.372  11.072 -0.0948  0.2055  0.1289
 5164W        W20295  14.161  10.431  14.329 -0.3158  0.2521  0.2183
 5165W        W20296   5.612   9.834  15.143  0.1985  0.2027 -0.3043
 5166W        W20297  16.341   3.404  14.062  0.1418 -0.1102 -0.3629
 5167W        W20298   1.619  10.752   2.167 -0.2124  0.1909 -0.2477
 5168W        W20299  13.808   7.167  12.354 -0.0821 -0.1060 -0.1085
 5169W        W20300  10.242   9.060   5.431 -0.1035 -0.3816 -0.0592
 5170W        W20301   8.327  13.053   1.425 -0.1715  0.0500  0.1913
 5171W        W20302   4.336  18.026  13.938 -0.2286 -0.1893  0.1800
 5172W        W20303   7.407   5.065   2.899  0.2354 -0.0543 -0.1458
 5173W        W20304   7.504   9.702  14.701 -0.2712 -0.0948 -0.1415
 5174W        W20305   6.901  14.712  14.463 -0.3908  0.2464 -0.0155
 5175W        W20306  13.715  17.493  14.007  0.0079 -0.0958 -0.0436
 5176W        W20307   6.503   5.404  11.401 -0.1982 -0.5391  0.1937
 5177W        W20308   8.120   6.937  11.128 -0.2853  0.3622  0.1249
 5178W        W20309   1.497   9.530   5.045 -0.1997 -0.0060  0.2483
 5179W        W20310  10.602   2.569   3.494 -0.0140  0.0803  0.3160
 5180W        W20311   7.857   1.277  12.157  0.1041 -0.1812  0.0179
 5181W        W20312  13.266   2.909  12.463  0.1020 -0.1008 -0.0952
 5182W        W20313  16.769  17.256   1.702 -0.0580 -0.1006  0.1850
 5183W        W20314  11.725   8.563   2.180 -0.0542 -0.1162  0.0441
 5184W        W20315   6.684  17.281   5.629  0.0202 -0.0535 -0.1339
 5185W        W20316   8.583  12.938   0.918 -0.2228  0.1028  0.2743
 5186W        W20317  12.341   4.421   2.484 -0.1443 -0.0242  0.4778
 5187W        W20318  11.483   8.207   1.510  0.1223 -0.1175 -0.2393
 5188W        W20319  11.206   4.060  12.574 -0.0734 -0.3354  0.0203
 5189W        W20320   1.513   7.513   0.053 -0.2330  0.0670 -0.0436
 5190W        W20321   0.443   1.088   3.075  0.2793 -0.0912  0.2346
 5191W        W20322   7.226   6.910   1.172 -0.0242 -0.0319 -0.0430
 5192W        W20323   9.635   0.326   4.848 -0.3981 -0.2524 -0.0174
 5193W        W20324  13.933   9.215   1.246  0.2022 -0.2782 -0.0329
 5194W        W20325   6.558  18.308  11.196 -0.1961  0.1988  0.1593
 5195W        W20326   5.817  14.625   3.012  0.2970 -0.0729 -0.0996
 5196W        W20327  12.391  15.442  11.946 -0.0207 -0.0335  0.1703
 5197W        W20328   4.956  10.764  10.984  0.1569  0.0030  0.1628
 5198W        W20329   3.806   1.667   1.972 -0.1734 -0.0592  0.0122
 5199W        W20330  17.465   9.500   0.420  0.0760 -0.1752 -0.0655
 5200W        W20331  12.776   9.792  15.455 -0.1775  0.0248  0.0142
 5201W        W20332   1.633  17.384  15.909 -0.1014  0.1316  0.0918
 5202W        W20333  11.958   7.968  13.113 -0.0884 -0.1123  0.1798
 5203W        W20334  17.408   4.397   3.898 -0.2006 -0.0441 -0.2548
 5204W        W20335  18.065  12.910  15.080  0.3116 -0.3462  0.0121
 5205W        W20336  15.284  13.126   2.931 -0.0902  0.0136 -0.2010
 5206W        W20337  10.232  13.759   3.907  0.0959  0.1572  0.2147
 5207W        W20338  12.406   2.999  12.085  0.1442 -0.1771 -0.3214
 5208W        W20339   8.672  17.521  11.611  0.3851 -0.0161  0.1479
 5209W        W20340  17.247   3.697  14.231  0.1948  0.1886  0.4214
 5210W        W20341  17.764   2.852   3.882  0.1972 -0.1268  0.0662
 5211W        W20342  12.632   3.714   3.631 -0.1292 -0.1199  0.1655
 5212W        W20343   0.457   5.993  13.805 -0.0610 -0.1984 -0.2222
 5213W        W20344   6.527   3.384   4.996  0.0049 -0.1722 -0.1924
 5214W        W20345   9.860  13.850  11.219  0.1647 -0.0420 -0.3210
 5215W        W20346  16.616   9.477  12.998 -0.0374 -0.0183 -0.0720
 5216W        W20347  12.917   1.711  13.423 -0.0242  0.0619  0.1817
 5217W        W20348  18.192   0.817   2.258  0.1147 -0.1913  0.1945
 5218W        W20349   4.155   8.227  13.945  0.1133 -0.3197  0.0182
 5219W        W20350  11.891   4.137  12.410  0.1251  0.3463 -0.5036
 5220W        W20351   5.053   4.288  14.388  0.2195  0.0751  0.1323
 5221W        W20352  11.519   5.465  10.076 -0.2344 -0.3183 -0.0301
 5222W        W20353   1.114   5.905   4.710 -0.0902 -0.3364  0.1688
 5223W        W20354  15.389   9.202   2.053 -0.0210  0.2421 -0.0116
 5224W        W20355  16.271   7.956  11.979  0.0192  0.3499  0.1993
 5225W        W20356  13.506   3.758  13.582  0.3777  0.2124 -0.0098
 5226W        W20357   7.913  12.419  14.455 -0.0699 -0.0197 -0.1295
 5227W        W20358   2.910   3.196  14.570  0.0685  0.0620 -0.1466
 5228W        W20359  12.759   6.546  15.542  0.0689  0.0649  0.0484
 5229W        W20360   3.863   6.915   2.499 -0.1526  0.2855 -0.0908
 5230W        W20361   8.697  17.271  12.101 -0.1040  0.3183 -0.1938
 5231W        W20362  14.215  14.411   1.990 -0.0546 -0.1885  0.3131
 5232W        W20363   1.901  12.727  15.075  0.3758 -0.0143  0.0671
 5233W        W20364  15.959   9.357   5.312 -0.2549 -0.4056  0.1662
 5234W        W20365   2.796  13.723   3.656 -0.1712 -0.0222  0.0290
 5235W        W20366   6.523   6.867   6.135 -0.0438  0.3113 -0.0761
 5236W        W20367  14.243  14.241  15.747  0.0058 -0.2149  0.0504
 5237W        W20368  12.344   3.936  11.264  0.0214  0.3177 -0.3901
 5238W        W20369   4.368  11.477   0.309  0.2775  0.2691  0.0241
 5239W        W20370  17.594   3.571   1.262  0.0441  0.0564 -0.0783
 5240W        W20371   4.419   2.593   0.827  0.0930  0.2253  0.0160
 5241W        W20372   8.665   4.905   1.081 -0.2407  0.1174  0.2517
 5242W        W20373   3.494  16.659   4.255 -0.3543  0.0769  0.0211
 5243W        W20374   1.312  13.329   5.871  0.0257 -0.4108 -0.0266
 5244W        W20375  12.149   2.723   3.531  0.1248  0.3318 -0.0505
 5245W        W20376  11.886  12.682   4.558 -0.0583 -0.1396 -0.0767
 5246W        W20377  14.689  18.001   1.118 -0.0118  0.3044 -0.1447
 5247W        W20378   0.043  10.709   6.041  0.2267 -0.2740 -0.1379
 5248W        W20379  10.697  10.899   3.364  0.0474 -0.0154  0.0617
 5249W        W20380   3.668   0.733   5.251  0.1474 -0.1554  0.1401
 5250W        W20381   0.869  16.866   4.419  0.2800  0.1155  0.2942
 5251W        W20382   7.547   5.091   5.232  0.1334 -0.3957  0.2617
 5252W        W20383   8.190   8.995  11.893  0.0748  0.0282 -0.5746
 5253W        W20384   1.424   5.078   3.920  0.3143  0.0053  0.1092
 5254W        W20385   7.485   9.495   4.501  0.2272 -0.0522 -0.1105
 5255W        W20386   0.908   4.080  16.027  0.0372  0.2074 -0.0280
 5256W        W20387   5.315   2.141  13.136 -0.0913 -0.1329 -0.2169
 5257W        W20388  10.039   5.260  10.563  0.1173  0.2245 -0.2138
 5258W        W20389  14.326   6.598   2.601  0.2645  0.0331 -0.4031
 5259W        W20390   3.503   7.839  12.411 -0.1573 -0.3832  0.4576
 5260W        W20391   3.262  14.390  11.864 -0.1806 -0.0319 -0.1648
 5261W        W20392  17.708   7.446  13.562 -0.1659  0.1776 -0.0367
 5262W        W20393  10.419   2.884   2.741 -0.0336  0.1219  0.0528
 5263W        W20394   0.882   3.662   0.139 -0.0708  0.1216  0.0577
 5264W        W20395  12.792   1.984  14.939 -0.0252 -0.2601  0.1800
 5265W        W20396   1.843   8.414  15.766  0.3285  0.3512 -0.1922
 5266W        W20397  10.420  18.145   5.677  0.2540  0.0797  0.3742
 5267W        W20398   7.475   7.206  12.490  0.0416  0.2384 -0.0857
 5268W        W20399   9.446   9.992   0.506 -0.0412 -0.0783 -0.1346
 5269W        W20400   5.307   1.662  13.281  0.1990  0.1203  0.2193
 5270W        W20401  10.025  14.632  14.127 -0.0015  0.1346  0.1508
 5271W        W20402  10.867   9.925  13.337  0.1122  0.0474 -0.0485
 5272W        W20403   5.627  16.942  10.420  0.1711  0.2045 -0.2214
 5273W        W20404  16.091   3.937  11.531 -0.3678  0.2272 -0.0103
 5274W        W20405  17.952  11.029  15.381  0.2727 -0.2329 -0.1584
 5275W        W20406  11.311  10.477   0.320  0.1598  0.0479 -0.0038
 5276W        W20407   9.403  13.323   4.313 -0.2299  0.2762 -0.1060
 5277W        W20408   7.579  17.430  14.573 -0.5220  0.0197  0.2599
 5278W        W20409   7.604   2.907  14.408  0.0567  0.1132  0.0077
 5279W        W20410   2.376  10.189  14.982  0.0070  0.1765 -0.0290
 5280W        W20411   4.613  10.776  12.877 -0.1074  0.2129 -0.0180
 5281W        W20412  10.416   6.218   3.055 -0.3206  0.0225  0.0980
 5282W        W20413   2.343  16.345   4.434  0.1854  0.1913  0.2080
 5283W        W20414   3.818   4.606   5.970 -0.2026  0.1740  0.0887
 5284W        W20415   7.015  17.959   0.414  0.0182  0.0936 -0.0917
 5285W        W20416   8.883   3.359  15.198 -0.0354  0.0841 -0.0628
 5286W        W20417  15.544  13.143  15.124  0.1642 -0.0394 -0.0389
 5287W        W20418  13.191   6.053  12.531 -0.3278 -0.0923 -0.1383
 5288W        W20419  16.249   6.807   5.318 -0.0216  0.0363  0.0932
 5289W        W20420  14.137   1.245   3.685 -0.3811  0.1259  0.2602
 5290W        W20421  11.393   0.922  11.406 -0.0507  0.0805  0.0366
 5291W        W20422   7.540  10.841   0.562  0.0372 -0.0370  0.0569
 5292W        W20423   0.457   5.369   0.451 -0.1875  0.2423 -0.0473
 5293W        W20424  15.790   6.361  11.961 -0.1308  0.3181 -0.1843
 5294W        W20425  17.347  15.870   4.491 -0.1936  0.1869 -0.1059
 5295W        W20426   8.854   5.566   3.119  0.1559 -0.0386  0.0137
 5296W        W20427  16.100  12.094  15.317 -0.1079  0.1695  0.3110
 5297W        W20428  11.963   1.208  15.081  0.3580  0.4445  0.0190
 5298W        W20429   0.750   0.940   2.223  0.1420 -0.0498 -0.1485
 5299W        W20430   8.443  16.742  13.001  0.5704  0.1770  0.1352
 5300W        W20431  10.811   7.318   1.202  0.0767  0.1896 -0.1732
 5301W        W20432  17.767  16.086   5.445 -0.3347 -0.0101  0.0461
 5302W        W20433  14.875  13.068   4.866  0.0052  0.1734 -0.3129
 5303W        W20434  16.053  16.431   4.462 -0.0413  0.1505 -0.0239
 5304W        W20435   6.013   6.777   2.644 -0.1101  0.0842  0.1728
 5305W        W20436  12.478  11.931  11.694 -0.1301  0.0221 -0.1812
 5306W        W20437   4.892   5.462  10.537 -0.1692 -0.1789 -0.0811
 5307W        W20438  15.319   5.355  11.809 -0.1645 -0.1418 -0.1552
 5308W        W20439   6.463  15.978  12.703  0.0938 -0.1259 -0.0519
 5309W        W20440  17.007  11.407  12.036  0.1057  0.4572 -0.0527
 5310W        W20441  10.076   3.776   1.193 -0.1149  0.2489 -0.0141
 5311W        W20442  11.546   4.571  13.765  0.0682 -0.1977  0.2392
 5312W        W20443   9.850   0.223  14.014 -0.2197 -0.3052  0.1277
 5313W        W20444  12.455   1.294   2.172 -0.0914 -0.1780  0.0119
 5314W        W20445   2.088   9.037  14.243  0.2278  0.1085 -0.0043
 5315W        W20446   4.112   1.386  15.972  0.1851  0.0259  0.1314
 5316W        W20447   5.049   5.613   2.072 -0.0170  0.0955 -0.2138
 5317W        W20448   9.230   6.878  15.355  0.1293  0.0914  0.0458
 5318W        W20449  15.524   0.913  15.843 -0.4815  0.0011 -0.0339
 5319W        W20450  17.894  12.487  10.114  0.1698 -0.0082 -0.4377
 5320W        W20451  16.874   9.109   3.026 -0.1396  0.1014  0.0177
 5321W        W20452   9.291   7.637   5.229  0.1735 -0.0535 -0.1035
 5322W        W20453   8.584   8.118   4.924 -0.0635 -0.1805  0.1034
 5323W        W20454   6.888   9.470   0.190 -0.2783 -0.0275 -0.0328
 5324W        W20455   1.649  15.078  13.371 -0.2331 -0.3313 -0.1728
 5325W        W20456   6.299  16.376  14.039  0.2903 -0.1802  0.1624
 5326W        W20457   9.350   9.048  14.849 -0.3659  0.1198 -0.0467
 5327W        W20458   1.623  15.246  11.656 -0.0105  0.1223  0.2616
 5328W        W20459  16.746   3.932  13.528 -0.2315 -0.0841  0.4411
 5329W        W20460   7.359  16.888   2.750  0.2245  0.1033 -0.1327
 5330W        W20461  12.848  11.395   1.970 -0.1667  0.0828  0.1807
 5331W        W20462  15.118  13.320   2.543  0.0671 -0.0232 -0.2284
 5332W        W20463  17.375   9.657  13.546  0.0616  0.3699 -0.1129
 5333W        W20464  11.631   2.700   4.395 -0.0944 -0.0588  0.1940
 5334W        W20465   5.408   8.282  14.184 -0.0508 -0.2296  0.1308
 5335W        W20466   1.502  16.463   2.688 -0.1487  0.2556  0.1717
 5336W        W20467   5.688  17.625   2.697  0.1087  0.2650  0.0593
 5337W        W20468   6.350   3.850   5.083 -0.3356 -0.2981  0.0450
 5338W        W20469   9.227   0.853   4.826 -0.1699  0.1010 -0.0761
 5339W        W20470   3.140  16.682   5.759 -0.1870 -0.0671  0.4643
 5340W        W20471  12.740   9.521  14.161  0.1125  0.1377 -0.1174
 5341W        W20472  16.837  14.284  12.728 -0.0322  0.3719 -0.1404
 5342W        W20473   5.002  15.441   2.902 -0.0879 -0.2388 -0.0121
 5343W        W20474   0.193  17.704   0.715  0.1215  0.1620 -0.3125
 5344W        W20475   5.501   1.163   0.441  0.0997  0.0112  0.2821
 5345W        W20476   6.449  13.917   2.727 -0.0726  0.1004  0.0526
 5346W        W20477  15.655   0.359  11.932 -0.2830 -0.0366 -0.3474
 5347W        W20478   5.642  17.711   4.630 -0.0775  0.1016  0.0689
 5348W        W20479   8.674   7.345  13.668 -0.1053 -0.4498  0.1565
 5349W        W20480  10.864   9.068  15.800 -0.0946  0.1561 -0.2622
 5350W        W20481  16.973   4.972  11.125  0.1599 -0.1492  0.1280
 5351W        W20482   2.728  12.604  13.601  0.1093 -0.1991 -0.4555
 5352W        W20483  17.823  10.743  12.776  0.0189  0.3309 -0.1130
 5353W        W20484  16.529  11.633  13.081  0.0426 -0.2033 -0.0009
 5354W        W20485   4.180   0.402  15.400 -0.1081  0.0958  0.0102
 5355W        W20486  13.782  12.250  15.712  0.0057 -0.0195  0.1906
 5356W        W20487  12.004   3.194   4.646 -0.0161 -0.0909  0.0335
 5357W        W20488  10.418  16.248  13.125 -0.1446 -0.1926  0.1690
 5358W        W20489  13.130  16.030   0.129 -0.0176  0.0951 -0.2032
 5359W        W20490  13.219  15.378   3.669  0.1073 -0.1243  0.0321
 5360W        W20491   9.116   2.315  16.051 -0.0336  0.0480 -0.0925
 5361W        W20492  11.103   9.507   4.968  0.3366 -0.1347 -0.2408
 5362W        W20493   0.464  15.882   5.057 -0.1630  0.0508  0.1091
 5363W        W20494  10.647  11.434  15.317  0.0333  0.0321  0.0732
 5364W        W20495   9.184  16.122  12.004 -0.1370 -0.1346 -0.0802
 5365W        W20496  10.535   9.511   3.068  0.0736 -0.1265  0.3493
 5366W        W20497  17.789   8.649  11.911 -0.1822 -0.0677 -0.0134
 5367W        W20498   5.480  14.129   5.246  0.1719 -0.0120 -0.2221
 5368W        W20499   9.704  10.356   2.330  0.3148  0.3404  0.0609
 5369W        W20500   9.220  15.050  10.683 -0.2991  0.1069  0.0267
 5370W        W20501  12.948   1.111   2.222  0.6394 -0.5507  0.0319
 5371W        W20502  13.109  16.544   1.053 -0.0510  0.0925 -0.0026
 5372W        W20503   4.750   5.727  12.323 -0.0847 -0.1430  0.0077
 5373W        W20504   8.543  13.281   2.269 -0.2197  0.0674  0.0033
 5374W        W20505   4.241  12.289   3.206  0.0644 -0.0354 -0.1969
 5375W        W20506  13.997  15.753  12.715  0.1551  0.0812  0.1833
 5376W        W20507  16.966   8.585   2.899  0.0781 -0.0873 -0.0603
 5377W        W20508  14.435  17.936   3.408  0.0803  0.0835  0.1566
 5378W        W20509  15.890   5.157  14.548  0.1383  0.0598  0.0381
 5379W        W20510   7.739   8.043   5.418  0.2420  0.0849  0.0175
 5380W        W20511   2.175   4.744  13.356 -0.1505  0.1121  0.0050
 5381W        W20512  10.299   3.885   3.437 -0.0098 -0.3134 -0.0046
 5382W        W20513  16.728  11.068   3.682  0.0604 -0.1438 -0.5411
 5383W        W20514   1.277  13.769   2.681  0.0087  0.2132 -0.0429
 5384W        W20515   0.964   3.228   2.105 -0.3363  0.1557 -0.0667
 5385W        W20516   0.615  16.734   4.013  0.1134 -0.0331 -0.0122
 5386W        W20517   1.310   8.122  13.148 -0.0884 -0.0893 -0.1809
 5387W        W20518  18.276   3.718   0.615 -0.2565  0.0588  0.1132
 5388W        W20519   5.191   1.409  10.761  0.4735  0.0514 -0.0575
 5389W        W20520  12.474   1.963   0.240 -0.0445  0.0726  0.0574
 5390W        W20521   8.668  17.560  14.031 -0.1459 -0.2559 -0.0976
 5391W        W20522  11.715  15.797  14.069 -0.1373  0.0575 -0.0285
 5392W        W20523  18.233  13.273   5.909 -0.2914  0.5191  0.0601
 5393W        W20524   2.181  15.219   0.315  0.2282 -0.0136  0.2410
 5394W        W20525   4.910   4.886   2.186 -0.0879  0.3059 -0.0728
 5395W        W20526   3.326   1.111   5.255  0.2074  0.2390 -0.3206
 5396W        W20527   5.347   5.047   0.102  0.0239  0.1808  0.0180
 5397W        W20528   0.606   3.006   1.547 -0.2030  0.0451  0.1070
 5398W        W20529  16.958   1.221   4.827  0.0030  0.1815 -0.2985
 5399W        W20530   4.227   4.657   0.196 -0.0153  0.0756  0.0275
 5400W        W20531   3.305   8.621   4.404  0.2652  0.0249  0.2589
 5401W        W20532  15.489   8.769  13.748  0.2011  0.0371  0.0019
 5402W        W20533  10.782  16.713  15.401 -0.1326 -0.3171  0.2420
 5403W        W20534   6.297   7.848   5.161  0.1238  0.0950 -0.1054
 5404W        W20535  15.288   6.571  14.597 -0.0311  0.2063 -0.0274
 5405W        W20536   2.678  10.782   5.466 -0.2087 -0.4440  0.1557
 5406W        W20537   1.644  11.790  12.451 -0.1987 -0.0303 -0.0184
 5407W        W20538  13.756   4.865   5.608 -0.1173 -0.0461  0.0849
 5408W        W20539   8.782  12.823  11.903 -0.1492 -0.0528 -0.0407
 5409W        W20540  18.048  15.807   2.015  0.4102 -0.0228  0.1968
 5410W        W20541  13.547   6.463  13.506  0.1345 -0.0737  0.0356
 5411W        W20542   6.656  17.945   3.405  0.1793 -0.0703  0.3348
 5412W        W20543   0.779  11.104   5.075 -0.2919 -0.1952  0.1608
 5413W        W20544   2.697   5.010   2.477  0.1246  0.0868 -0.1373
 5414W        W20545   2.987  15.534   2.837 -0.1623 -0.0815 -0.0611
 5415W        W20546  10.601  10.373   2.411  0.0606  0.3009 -0.1712
 5416W        W20547   8.475   6.673  14.077  0.0618  0.2404  0.0524
 5417W        W20548   5.712   9.806   0.671 -0.4302  0.2860 -0.2023
 5418W        W20549   4.608   4.857   6.315 -0.1865  0.0347  0.1325
 5419W        W20550   9.467  17.195   4.462 -0.0586  0.0384  0.2966
 5420W        W20551   1.131   7.159  11.313  0.4478  0.0779  0.0985
 5421W        W20552  16.223   0.006   0.934 -0.3691  0.2658 -0.2202
 5422W        W20553   5.183  13.915  15.583 -0.2025  0.1142 -0.3221
 5423W        W20554   2.265  16.727   2.185  0.0921  0.3346 -0.1145
 5424W        W20555   2.955  16.558   6.156 -0.1770  0.0194 -0.0488
 5425W        W20556  17.320   0.680   4.000  0.0329  0.1916  0.2836
 5426W        W20557   2.870   4.360  12.051 -0.1550  0.0831  0.1618
 5427W        W20558   9.890   1.666   1.464 -0.0964  0.0272 -0.1451
 5428W        W20559  11.429  17.648   3.177  0.3119 -0.2537 -0.0819
 5429W        W20560   3.415  14.741  13.062 -0.0367 -0.0039 -0.2039
 5430W        W20561  12.941  10.948   1.723 -0.1789  0.0122  0.1170
 5431W        W20562   6.636   4.502  12.358  0.0068 -0.0995  0.1958
 5432W        W20563   5.206  18.069   2.175  0.0614  0.2791  0.1058
 5433W        W20564   8.548   2.224   6.175  0.0507 -0.1000 -0.1354
 5434W        W20565   2.799  16.820  15.478 -0.2656  0.2034  0.0393
 5435W        W20566   9.749   1.264   3.617  0.3982 -0.1140 -0.1435
 5436W        W20567   0.665   6.335  12.087  0.3515 -0.0256 -0.2093
 5437W        W20568   8.179   3.511  12.400 -0.1076 -0.1960 -0.2386
 5438W        W20569   7.878  10.001   1.956  0.0809 -0.1767 -0.0786
 5439W        W20570   5.014   9.200  14.062  0.2510 -0.1189 -0.0889
 5440W        W20571  16.305   1.842  14.442  0.1974 -0.0363 -0.0689
 5441W        W20572  15.720   3.279  13.527 -0.1652  0.1594 -0.3805
 5442W        W20573   1.200  11.694  12.209  0.0068  0.2701  0.1433
 5443W        W20574  10.216  12.720   0.242  0.1047  0.2973  0.0148
 5444W        W20575  12.232  15.349  12.773  0.5938 -0.0305  0.2416
 5445W        W20576   0.578   7.109  13.986  0.0715 -0.0754 -0.1010
 5446W        W20577   0.420   2.325  16.065 -0.1236 -0.2654 -0.0408
 5447W        W20578  16.122  13.774   0.737  0.0629  0.3515 -0.0207
 5448W        W20579  12.311  10.919  15.432  0.0571  0.2928 -0.2400
 5449W        W20580  15.172  12.083   2.808  0.1237 -0.0794 -0.2810
 5450W        W20581   2.305   8.299  12.823  0.3216  0.1247  0.2743
 5451W        W20582  12.221   2.758  12.895 -0.3637  0.1254 -0.1089
 5452W        W20583   0.780  12.104  15.865  0.0177 -0.0161  0.1896
 5453W        W20584  14.441  18.051  12.693 -0.0488  0.1883 -0.3630
 5454W        W20585  11.198   2.023  12.942  0.2167  0.0543 -0.0349
 5455W        W20586  14.667   7.330  12.332 -0.4016 -0.0209 -0.1585
 5456W        W20587  14.573   6.760  13.003 -0.1701 -0.1480  0.0480
 5457W        W20588   5.233  16.842  14.614 -0.1317 -0.0470 -0.0554
 5458W        W20589  12.196   8.258   1.439  0.0413  0.2918 -0.1141
 5459W        W20590  11.375  14.980   3.181  0.1641 -0.1296 -0.0604
 5460W        W20591   4.288  10.958  11.598  0.1171 -0.3139 -0.0440
 5461W        W20592   4.242  13.763  14.665 -0.1623 -0.1515 -0.1175
 5462W        W20593   0.551  12.664  15.731  0.2090 -0.0180  0.1180
 5463W        W20594  13.347  16.508   2.389  0.2089  0.3361  0.1148
 5464W        W20595  17.482   1.022  15.847  0.1948  0.3585 -0.0182
 5465W        W20596  13.294   7.947   2.546 -0.1611  0.0774 -0.0841
 5466W        W20597   6.866  17.945   2.011 -0.2436 -0.3762  0.2137
 5467W        W20598   8.300  18.305  14.595 -0.3324  0.1103 -0.0941
 5468W        W20599   4.524   4.828  14.898  0.0983  0.1774  0.0282
 5469W        W20600  17.605   4.092   0.099 -0.2170  0.1055  0.1367
 5470W        W20601   4.999  16.157  13.914 -0.2114 -0.0324  0.2949
 5471W        W20602   2.835  15.104   3.958 -0.1530 -0.1473 -0.2453
 5472W        W20603   7.024  16.305  15.511 -0.5788  0.2784 -0.2040
 5473W        W20604   1.098  12.395   3.334 -0.1754 -0.1225  0.1454
 5474W        W20605  14.674  15.358  12.091 -0.3841 -0.0705  0.0247
 5475W        W20606   7.575   3.350   4.038 -0.0420  0.1718  0.1116
 5476W        W20607   8.928   0.597   4.527 -0.0077  0.2042 -0.1524
 5477W        W20608   0.223  14.396  11.069 -0.2431 -0.0671  0.0132
 5478W        W20609   2.788   8.501   3.207 -0.1511  0.0777  0.0542
 5479W        W20610  17.883   7.446   4.526  0.1003  0.1620  0.1433
 5480W        W20611   3.253   2.876  14.420 -0.3241  0.1866 -0.0490
 5481W        W20612   7.620   2.769  12.443 -0.0555  0.0935 -0.1298
 5482W        W20613   3.606   1.236   3.143  0.1874  0.0420 -0.1921
 5483W        W20614  17.804  10.276  12.996 -0.0537 -0.2454 -0.1970
 5484W        W20615  11.933   7.958   0.154 -0.0094  0.1191 -0.1771
 5485W        W20616   6.761  10.534   2.538  0.2704  0.1006  0.3182
 5486W        W20617   2.486  12.046  15.476  0.3348  0.0476 -0.0632
 5487W        W20618   9.487  12.490   4.587 -0.0097  0.0322 -0.1262
 5488W        W20619   8.145   3.581   4.602  0.0158 -0.3531  0.0226
 5489W        W20620  14.917  14.774  12.601 -0.1613 -0.0907  0.1057
 5490W        W20621  16.280   2.690   3.358 -0.0637 -0.0704  0.2971
 5491W        W20622   2.688  10.794   2.792 -0.3651 -0.1462  0.0581
 5492W        W20623  12.989   1.441  10.944  0.1064  0.1748  0.3131
 5493W        W20624   1.651   2.151   4.970 -0.2947 -0.2705 -0.4466
 5494W        W20625  16.211   6.420  15.571  0.0690  0.1983 -0.1612
 5495W        W20626   4.161  13.503   3.481  0.0144  0.0640 -0.3108
 5496W        W20627  10.357   2.644   3.954  0.1113  0.2704 -0.0355
 5497W        W20628   0.359   8.781  14.281 -0.1914  0.1147  0.0787
 5498W        W20629   0.528  12.150  13.874 -0.0306  0.2611 -0.0043
 5499W        W20630  18.078   7.312   0.071  0.0352 -0.2458 -0.0412
 5500W        W20631   6.368  17.112   4.393  0.2455  0.0956  0.3390
 5501W        W20632   4.788   3.461  14.887 -0.0654 -0.0330 -0.1275
 5502W        W20633   6.870   0.877   1.033 -0.0804  0.1846  0.3171
 5503W        W20634  17.330   8.788  13.501 -0.0557  0.0822  0.1419
 5504W        W20635   8.454   0.724   0.850  0.0325 -0.0987 -0.2641
 5505W        W20636   7.282  12.176   4.400 -0.1273  0.0388  0.1914
 5506W        W20637  15.427   3.396  13.120 -0.1855 -0.1202 -0.0159
 5507W        W20638  10.214   7.064  13.581  0.2294 -0.0270 -0.1449
 5508W        W20639  15.475  10.037   5.176 -0.3970  0.1622 -0.6280
 5509W        W20640  17.942   9.638  10.848  0.2518  0.0463 -0.1556
 5510W        W20641   3.067   6.238  13.918  0.1898  0.2572  0.1169
 5511W        W20642   5.900  15.868   5.308  0.1295 -0.1271 -0.0878
 5512W        W20643   7.518   2.918   5.793  0.4237 -0.2319  0.0773
 5513W        W20644   4.619   0.475  12.902  0.0010  0.0746  0.0096
 5514W        W20645   6.795   0.086  13.010  0.0534  0.1375  0.0876
 5515W        W20646   2.129   1.021   2.436  0.2489  0.1327  0.0425
 5516W        W20647   7.666  15.525   3.006 -0.1661  0.2757 -0.1502
 5517W        W20648   5.405  15.773  12.069 -0.0545 -0.0147 -0.1347
 5518W        W20649  12.285   8.744   2.384  0.5093 -0.0176  0.0278
 5519W        W20650  14.919  13.237   2.140  0.0911  0.1817 -0.1107
 5520W        W20651  12.492  14.538   0.188 -0.3057 -0.0108  0.1930
 5521W        W20652  18.119  15.451   2.335  0.0833  0.0780  0.1152
 5522W        W20653  13.419   5.012  11.278 -0.0076  0.3171  0.0059
 5523W        W20654  17.522   1.245   4.848 -0.0063  0.1467 -0.0747
 5524W        W20655  17.418  17.368  14.455  0.2348 -0.0526  0.0316
 5525W        W20656   2.316  11.022  14.521 -0.1321 -0.1508  0.4082
 5526W        W20657   5.382  17.155  11.454  0.1984 -0.2895  0.0817
 5527W        W20658   3.446   5.495  14.945 -0.2254  0.0815 -0.2433
 5528W        W20659   8.734   5.168  15.845  0.2873 -0.1792 -0.1525
 5529W        W20660   7.589  15.487  12.391 -0.1051 -0.3847  0.2426
 5530W        W20661   0.764   8.830  12.277 -0.2338  0.0999  0.3324
 5531W        W20662  18.111  16.751   5.985 -0.1044  0.0486 -0.0957
 5532W        W20663  13.129  13.985   2.914 -0.4498 -0.1498 -0.1675
 5533W        W20664   0.568  10.808  14.500 -0.1676 -0.1824  0.0118
 5534W        W20665   1.687  16.755   0.333  0.1983 -0.2264 -0.3564
 5535W        W20666  11.851  17.552   1.905 -0.0388  0.0867 -0.0037
 5536W        W20667  13.372   5.899   2.161 -0.0417  0.2024  0.0932
 5537W        W20668  10.631   8.348   5.103  0.2270 -0.2522 -0.1126
 5538W        W20669   7.398   9.010   2.961  0.1330 -0.0305  0.0138
 5539W        W20670   2.676  13.383  14.414 -0.1118 -0.0775 -0.1285
 5540W        W20671  11.286   3.116   1.545 -0.0721 -0.1015  0.1323
 5541W        W20672  15.791   0.328   1.515 -0.1589  0.1590 -0.3194
 5542W        W20673  13.380  13.566  15.084  0.1343  0.0698  0.1932
 5543W        W20674  14.715  10.594  11.235  0.1396 -0.0542  0.0360
 5544W        W20675   9.472   2.027  12.606 -0.3089 -0.0837 -0.0058
 5545W        W20676  13.179   0.211  14.126 -0.0909 -0.0001  0.0261
 5546W        W20677   8.658   5.350   2.675  0.0377 -0.0110 -0.0967
 5547W        W20678  12.264   2.896  13.391  0.0219  0.2213 -0.1373
 5548W        W20679  15.498  13.673  11.049 -0.1317  0.1068 -0.1510
 5549W        W20680   1.024   4.629   0.388 -0.0959  0.0597 -0.0940
 5550W        W20681   2.082   5.764   1.923 -0.2236 -0.2955  0.0720
 5551W        W20682   1.495  11.813   1.348 -0.0227  0.1730  0.2239
 5552W        W20683   3.248   9.620  13.925 -0.1982  0.2097  0.0973
 5553W        W20684   9.011  12.953  14.936 -0.0862 -0.1814  0.3695
 5554W        W20685  13.006  15.777   3.315  0.0669  0.1817  0.0605
 5555W        W20686   9.891  13.589  13.109  0.2006 -0.1980  0.0615
 5556W        W20687   2.531  17.731   0.409  0.5206  0.1182  0.0565
 5557W        W20688   1.702   9.329  12.406 -0.1015 -0.2058 -0.1078
 5558W        W20689  16.167  10.113   4.156 -0.1303 -0.2666 -0.0495
 5559W        W20690   6.243  16.204   1.252  0.1219 -0.1959  0.2460
 5560W        W20691   8.632  17.428   1.315  0.2088 -0.0153 -0.1669
 5561W        W20692  15.756   1.049  15.406  0.1308  0.2447 -0.1061
 5562W        W20693  16.422   2.999  15.902  0.0967 -0.2073  0.0224
 5563W        W20694  10.589   4.194   1.761 -0.1258 -0.1921 -0.1387
 5564W        W20695  16.577   0.029  11.467  0.2449 -0.5195 -0.1053
 5565W        W20696   9.038  15.172  14.769  0.1743 -0.1325  0.0384
 5566W        W20697  15.225   7.690   1.066 -0.2244 -0.1423 -0.1306
 5567W        W20698   9.195   6.131  13.417 -0.0817 -0.0046 -0.1130
 5568W        W20699  12.800  18.010  12.437  0.2752 -0.2053  0.3193
 5569W        W20700   9.650   7.209   1.961 -0.1862 -0.0605 -0.4048
 5570W        W20701   1.215  10.795   4.953  0.0705 -0.1632  0.2528
 5571W        W20702  14.635   0.540   0.780 -0.1614  0.1736 -0.1435
 5572W        W20703   0.597   7.492  15.283  0.2009 -0.0649 -0.1480
 5573W        W20704   9.510  16.702  15.517  0.3645  0.0020  0.1229
 5574W        W20705  12.980  13.745  15.436 -0.0522 -0.0922  0.0357
 5575W        W20706  17.992  16.143   1.593  0.0106  0.1431 -0.1741
 5576W        W20707   7.579  10.191   3.693  0.0126  0.0184 -0.2445
 5577W        W20708   2.668   8.218  15.426 -0.1868  0.0751  0.0286
 5578W        W20709  14.853   7.831  12.619  0.1120 -0.1668  0.1425
 5579W        W20710   6.312  15.804  12.175  0.2726  0.0377  0.1375
 5580W        W20711   6.173  16.592  13.453 -0.0345 -0.3121  0.4459
 5581W        W20712   8.894   4.287   4.660  0.2593  0.1073 -0.3999
 5582W        W20713  13.599   2.251  15.438  0.1493  0.2581  0.0897
 5583W        W20714   8.873   2.266  14.239  0.0643  0.2531  0.0707
 5584W        W20715  11.063  16.162   2.574  0.1608  0.3027 -0.3610
 5585W        W20716  12.945  17.534   1.376  0.1175  0.1385 -0.0508
 5586W        W20717   4.447  10.991  14.143  0.4313  0.0679  0.0780
 5587W        W20718   3.256   1.052  16.089  0.1220 -0.1628 -0.1014
 5588W        W20719   4.163  16.690   4.387  0.0081  0.1469  0.2817
 5589W        W20720  16.411  14.138  11.991 -0.0236  0.0455 -0.0800
 5590W        W20721  17.429   2.699   0.228  0.1711 -0.0443  0.2077
 5591W        W20722   0.957   5.729  15.819 -0.1350 -0.2743 -0.0204
 5592W        W20723   2.951  17.161  15.832 -0.2047 -0.1847  0.0720
 5593W        W20724   0.673   7.909  15.654  0.1951 -0.3277 -0.0451
 5594W        W20725  13.523   3.751   2.989 -0.0908 -0.1214 -0.1612
 5595W        W20726   6.264   5.495  13.757 -0.1897  0.0792 -0.2593
 5596W        W20727  10.782  13.449  13.582 -0.1898 -0.2214  0.0099
 5597W        W20728   7.354  17.797   3.766 -0.5350 -0.0402 -0.1295
 5598W        W20729   4.918  10.521  13.210 -0.0865 -0.0568 -0.1549
 5599W        W20730  16.522  10.296  11.232 -0.0359 -0.1538 -0.1012
 5600W        W20731   7.733  14.295  11.334 -0.1140  0.3299  0.1021
 5601W        W20732  15.022  17.023  14.305  0.2034 -0.1896  0.1171
 5602W        W20733  12.622  15.509   0.685  0.1894 -0.0868  0.2301
 5603W        W20734   4.476   6.874  15.341 -0.1780  0.0759 -0.0527
 5604W        W20735  15.726  11.027   4.669 -0.0128  0.0997  0.1034
 5605W        W20736  11.906   6.555   3.931 -0.3366 -0.0021 -0.2663
 5606W        W20737  12.079   6.604  15.532 -0.2887 -0.0247 -0.2895
 5607W        W20738   8.128  10.175   5.057 -0.0138 -0.1213 -0.5476
 5608W        W20739   2.248   3.200   1.132 -0.0283  0.2595  0.1103
 5609W        W20740   3.329  10.289  15.232 -0.0699 -0.0473 -0.1627
 5610W        W20741  14.847   1.379   6.171  0.1994 -0.0096 -0.1247
 5611W        W20742  16.128   9.068  13.155  0.2196 -0.4312 -0.0922
 5612W        W20743   6.155   4.024  13.542 -0.1350  0.0322 -0.0864
 5613W        W20744   3.917  16.362   4.695  0.1843  0.0679 -0.1121
 5614W        W20745  13.770   0.907  15.750  0.0927 -0.2746 -0.1872
 5615W        W20746   4.075  11.718  11.397 -0.2210 -0.0775 -0.0766
 5616W        W20747   3.827   5.435   0.224  0.0507  0.0138  0.0471
 5617W        W20748   3.970  10.758   2.554  0.1916  0.2011 -0.1830
 5618W        W20749   0.348   9.782   9.986  0.2151 -0.2394  0.0973
 5619W        W20750   2.805  11.204  14.336 -0.0410 -0.0350  0.2544
 5620W        W20751  17.951  12.439   3.622 -0.2172  0.0520  0.2769
 5621W        W20752  15.400   0.614   5.324 -0.2982  0.0628  0.3238
 5622W        W20753   8.907   4.672  15.806 -0.1657  0.1326  0.2127
 5623W        W20754   8.112  13.486   3.482 -0.0418  0.0762 -0.1927
 5624W        W20755  14.092  10.187   5.644  0.1352  0.2272  0.1724
 5625W        W20756  16.323   4.590   3.174  0.0534  0.0357  0.0685
 5626W        W20757  12.602   0.786   3.308  0.3121 -0.3354  0.0319
 5627W        W20758   4.755  10.621   1.768  0.0085 -0.3070 -0.1115
 5628W        W20759   6.428   5.403   1.722  0.0569 -0.0023  0.1221
 5629W        W20760   9.806   9.887  12.935 -0.0349  0.1197  0.3731
 5630W        W20761  10.920   0.954  13.734  0.1364 -0.2414 -0.0431
 5631W        W20762   4.554  15.503   1.023 -0.0204 -0.0768 -0.3698
 5632W        W20763   0.232  11.901   5.467 -0.0976  0.3113 -0.4941
 5633W        W20764   6.431  15.510   0.689  0.3089 -0.0411  0.1312
 5634W        W20765   6.572  15.075  13.114 -0.0409 -0.2735  0.3449
 5635W        W20766   0.684   8.693  14.631 -0.0478 -0.4387  0.3245
 5636W        W20767   6.212   6.175   5.436  0.5038  0.3737 -0.1142
 5637W        W20768  16.961   3.070  15.606  0.0762 -0.0077 -0.3552
 5638W        W20769  13.688   4.325   5.388  0.0125 -0.0303 -0.0256
 5639W        W20770   6.622  12.300  11.302 -0.0196 -0.0452  0.1867
 5640W        W20771   9.301  17.373  10.939 -0.0148 -0.0107  0.0119
 5641W        W20772   4.769  13.415   1.212  0.0942 -0.1794  0.1629
 5642W        W20773  12.571  14.922  11.876 -0.0986  0.0310 -0.4691
 5643W        W20774  15.949   4.835  14.176  0.1572 -0.1470 -0.0035
 5644W        W20775  13.345  17.924  11.611  0.1422 -0.2863 -0.0879
 5645W        W20776   1.870   1.918  15.119 -0.1919  0.1111 -0.0802
 5646W        W20777   4.572  17.475  11.656  0.2384  0.0268 -0.3749
 5647W        W20778  15.732   1.060   3.849  0.2058 -0.3537  0.0695
 5648W        W20779   4.183   5.190  14.247  0.0570 -0.0639  0.0502
 5649W        W20780   4.255   8.292   0.609 -0.1755 -0.1879 -0.0536
 5650W        W20781   2.866   1.331   2.342  0.1549  0.1900  0.0134
 5651W        W20782  13.078   3.340   4.377 -0.1514  0.0168  0.1734
 5652W        W20783   2.229   8.717  13.707  0.0414  0.0698 -0.0502
 5653W        W20784  17.391   8.720  12.246  0.2027  0.3570  0.0080
 5654W        W20785  10.530  17.663  12.684 -0.1611  0.1394 -0.1841
 5655W        W20786   6.896   9.570  15.337  0.2354  0.2477  0.1577
 5656W        W20787   8.558  13.513   4.147  0.1228  0.0325  0.3798
 5657W        W20788  12.846  11.630   9.695 -0.2475 -0.0760  0.3287
 5658W        W20789   8.173   8.213  13.686  0.0592  0.0037  0.0791
 5659W        W20790   2.258   0.266   2.900 -0.1320 -0.2607  0.0364
 5660W        W20791   0.327  17.102   5.190  0.1398 -0.0529 -0.0498
 5661W        W20792  15.858  14.249  15.510  0.2701 -0.0894 -0.0342
 5662W        W20793   7.252  17.755   4.341  0.0048 -0.3617 -0.0891
 5663W        W20794   3.258  13.275  10.460 -0.0887  0.0313 -0.2165
 5664W        W20795  10.662  13.308   2.797 -0.0508  0.2242 -0.0116
 5665W        W20796  10.508   2.973   9.721 -0.0054  0.1401  0.5260
 5666W        W20797   3.178   8.536   2.302 -0.2706 -0.0178 -0.2409
 5667W        W20798  17.401   0.405  14.489 -0.0548 -0.1918 -0.2850
 5668W        W20799   9.009  16.696  15.717 -0.0598 -0.1185  0.0142
 5669W        W20800   7.041   5.040   1.591 -0.1531  0.2465  0.0858
 5670W        W20801   9.821   9.645   3.436  0.2881 -0.0216 -0.3145
 5671W        W20802  10.946  14.517  10.933 -0.1316 -0.0433  0.3431
 5672W        W20803   7.412  11.757  10.286 -0.0430 -0.2477 -0.2325
 5673W        W20804   1.651   8.315   2.704 -0.2685 -0.2997  0.0563
 5674W        W20805   9.181   1.706   4.423 -0.2114  0.0754 -0.0548
 5675W        W20806  16.061  11.018  10.015  0.0764 -0.0365 -0.1198
 5676W        W20807  11.156   4.477  14.047  0.2475  0.0172 -0.2843
 5677W        W20808   6.189   3.513  10.517  0.1090 -0.0833 -0.1829
 5678W        W20809   3.067   1.236  15.399 -0.2585 -0.2335  0.2880
 5679W        W20810   0.029   8.457   2.250 -0.1048 -0.1127  0.0197
 5680W        W20811  13.067  17.694  14.624 -0.1218  0.0773 -0.1139
 5681W        W20812  11.199  16.359  15.272 -0.1288  0.0059 -0.2360
 5682W        W20813   7.421   7.601  14.718 -0.0838 -0.1780 -0.0425
 5683W        W20814  13.558   2.799   1.881  0.0361  0.0597  0.2782
 5684W        W20815  13.848   7.850  14.913 -0.0950 -0.0161 -0.1365
 5685W        W20816  17.451  11.560  13.966 -0.2683 -0.0992 -0.2659
 5686W        W20817  11.110  13.998  12.228 -0.2321 -0.0920  0.0918
 5687W        W20818   0.034   3.127   3.933 -0.0320  0.0274  0.1254
 5688W        W20819  13.551  12.649  10.436 -0.0664 -0.3550 -0.1953
 5689W        W20820   3.748   6.758  14.271 -0.0546  0.0978  0.0769
 5690W        W20821  16.928  10.796  15.854 -0.3213  0.1262  0.1707
 5691W        W20822  16.133   9.874   1.136  0.0830  0.0771  0.1450
 5692W        W20823  11.026   6.196  14.234  0.0637  0.2302 -0.0311
 5693W        W20824   9.494   3.101   1.503 -0.1006  0.1819 -0.0395
 5694W        W20825  17.284  11.357   2.617 -0.0407  0.0408 -0.1457
 5695W        W20826  10.811  11.114  12.323  0.0199  0.0654 -0.1733
 5696W        W20827   9.442  15.365  12.771 -0.3090 -0.0786 -0.1455
 5697W        W20828  13.476  12.768   3.971  0.2205  0.3269  0.1182
 5698W        W20829  12.572   6.195   2.643 -0.0307 -0.1746 -0.0906
 5699W        W20830  17.072   2.157  12.464  0.3427  0.0129  0.3016
 5700W        W20831   6.629  17.766  14.312  0.1701  0.1286  0.1860
 5701W        W20832   1.327   5.015   0.091  0.0715 -0.1948 -0.1835
 5702W        W20833   4.346  18.135  13.456 -0.2457  0.1239  0.1910
 5703W        W20834  14.169  11.332   1.285  0.2613 -0.1297 -0.1560
 5704W        W20835   2.270  15.708  13.950  0.3444  0.2919 -0.3602
 5705W        W20836   0.710   1.135   4.646 -0.0337  0.0953 -0.4267
 5706W        W20837  10.464   1.488  10.851 -0.1840  0.0712 -0.1692
 5707W        W20838  14.712   3.199  14.067 -0.3669  0.0554 -0.0869
 5708W        W20839   8.199   3.138   4.897 -0.0657 -0.0949  0.2343
 5709W        W20840   7.760  12.382  13.477 -0.1102 -0.2600  0.1338
 5710W        W20841   6.567  10.456   0.101 -0.0369  0.1598  0.0063
 5711W        W20842   9.292  15.440  15.558 -0.1102  0.2175 -0.0312
 5712W        W20843  14.470   3.708  12.311 -0.0332  0.0610 -0.1195
 5713W        W20844  15.366  10.557   5.396 -0.0656 -0.2013 -0.3777
 5714W        W20845   1.815   3.752  15.943 -0.0568  0.0791 -0.0673
 5715W        W20846   6.155  12.398   1.904 -0.0135  0.1329 -0.2096
 5716W        W20847   3.001  10.867   1.622 -0.0418 -0.0053  0.1458
 5717W        W20848   9.851   5.973   4.285 -0.1361  0.1249 -0.0999
 5718W        W20849  10.990   1.242   2.720  0.0564  0.0124 -0.2391
 5719W        W20850  13.202  11.147  10.416 -0.2026  0.1832  0.1849
 5720W        W20851  14.251   0.614   5.491  0.1141  0.1951  0.0661
 5721W        W20852   3.095  13.079  14.609 -0.0854  0.1686  0.0714
 5722W        W20853  16.695  12.011   5.306  0.0937 -0.0180 -0.0639
 5723W        W20854  12.595  16.740  15.382 -0.1263 -0.0869  0.1028
 5724W        W20855   7.416  12.883  12.639  0.0662 -0.1240 -0.2753
 5725W        W20856   9.167   4.586  15.365  0.2101 -0.1245  0.0378
 5726W        W20857  10.869  15.639  14.625  0.0207 -0.1273  0.1366
 5727W        W20858   7.187   0.525  15.248  0.2071  0.0545  0.2519
 5728W        W20859   2.199   4.592  12.761  0.3520 -0.3889  0.2959
 5729W        W20860  16.454  15.695  13.011  0.1704  0.0996 -0.1185
 5730W        W20861  13.521  16.968  13.182 -0.3656  0.0560  0.3388
 5731W        W20862   7.628   4.662  10.835  0.2517 -0.3579 -0.1730
 5732W        W20863   0.801   8.864   3.708 -0.0718  0.1409 -0.1706
 5733W        W20864  10.689  14.156   1.385 -0.1082  0.0362 -0.0147
 5734W        W20865   5.691  13.444   0.557 -0.0289 -0.1121 -0.0476
 5735W        W20866  12.222   3.110   1.491  0.1006  0.1616  0.1501
 5736W        W20867  15.951  14.766   3.470 -0.0656  0.3299 -0.1711
 5737W        W20868  15.378  17.171  15.472  0.0551  0.3686 -0.1383
 5738W        W20869   5.630   9.948   2.719  0.2010  0.0644  0.3636
 5739W        W20870  13.833   3.190  13.611  0.1915 -0.1194  0.1466
 5740W        W20871  16.247  10.636  15.709 -0.2774  0.1773 -0.0605
 5741W        W20872  14.785  11.171  14.596 -0.0243  0.2281  0.0684
 5742W        W20873  10.043  12.765   3.357 -0.0032 -0.0466 -0.0022
 5743W        W20874   5.294  11.749   0.327  0.0684  0.3414  0.0019
 5744W        W20875  17.107   8.779   5.952 -0.3234 -0.1078  0.0987
 5745W        W20876   6.496   1.202   0.181 -0.1440 -0.0859  0.4261
 5746W        W20877   4.294  17.716   0.523  0.0221 -0.2316  0.2760
 5747W        W20878   5.051   0.118   3.279 -0.4183 -0.0511 -0.2033
 5748W        W20879  11.801  17.912   5.818 -0.0480 -0.2664 -0.1822
 5749W        W20880  17.158  15.323   3.161 -0.0791  0.0120  0.0474
 5750W        W20881   3.434   8.599   3.934 -0.0442  0.2705 -0.0041
 5751W        W20882  16.926   4.503  14.407 -0.0248  0.1960 -0.1495
 5752W        W20883   2.903   3.057  14.072 -0.0474 -0.1844 -0.0699
 5753W        W20884  12.877   6.940   3.732 -0.0173 -0.1230 -0.2627
 5754W        W20885  14.874   6.050  12.434 -0.1462  0.1896  0.4099
 5755W        W20886   2.140   2.673  11.922 -0.0608 -0.0039  0.1525
 5756W        W20887  16.736   1.680   4.340  0.3319  0.0928  0.1496
 5757W        W20888   3.591   7.345   0.329 -0.1256 -0.1643  0.0248
 5758W        W20889  15.902   4.067  11.030  0.2673 -0.1998 -0.2579
 5759W        W20890  15.429  11.566  10.872 -0.0896  0.0781  0.0330
 5760W        W20891   1.329  17.665   0.066 -0.1977  0.0886 -0.0272
 5761W        W20892  14.985   8.077   3.188 -0.0251 -0.2404 -0.0638
 5762W        W20893   0.841  15.771   0.041  0.2309 -0.2411  0.1464
 5763W        W20894   5.326  15.198   4.183  0.0126  0.0679 -0.2063
 5764W        W20895  14.962  11.461   0.810  0.0358 -0.2398  0.0226
 5765W        W20896   8.527  14.982   3.587  0.1782 -0.1559  0.0950
 5766W        W20897  10.855   8.928   2.606  0.0087 -0.2451  0.0319
 5767W        W20898   9.745  14.461   1.327  0.1169 -0.3141 -0.1283
 5768W        W20899   3.396   8.627  15.188 -0.2534 -0.0827 -0.1588
 5769W        W20900   3.123   8.065  10.604 -0.0022 -0.2455  0.5153
 5770W        W20901  16.404  15.221  15.930 -0.1576  0.5473 -0.0437
 5771W        W20902  17.016  13.025   0.078 -0.1761  0.1418  0.1545
 5772W        W20903  13.353   9.394   5.546  0.0369  0.0487 -0.4842
 5773W        W20904   1.723  17.270   3.338  0.2620  0.0967  0.2442
 5774W        W20905  10.689  17.783   2.386 -0.2093  0.2643 -0.0660
 5775W        W20906   2.082  17.573  15.076  0.2797  0.2479  0.0499
 5776W        W20907   5.314  11.079  15.202  0.3182  0.0033  0.0758
 5777W        W20908  13.336  10.758  13.663 -0.2662 -0.2786 -0.0011
 5778W        W20909   7.619   2.267  15.832  0.1166 -0.1496  0.0761
 5779W        W20910   0.709   5.736   0.125  0.2065 -0.2659 -0.2329
 5780W        W20911   1.336   3.384  14.951  0.0848 -0.0092  0.3452
 5781W        W20912  16.751  11.764   3.111  0.1030 -0.0730 -0.0839
 5782W        W20913   7.857   5.214   4.774 -0.0506  0.0798  0.1511
 5783W        W20914   8.516   1.061  11.740  0.3259  0.2270  0.1749
 5784W        W20915  15.564  12.462   1.294 -0.0972 -0.1231  0.0139
 5785W        W20916   7.417   4.800   1.182 -0.0304  0.2252  0.0311
 5786W        W20917  15.238   6.683   4.101  0.0580 -0.1560 -0.0621
 5787W        W20918  14.099   9.432   0.055  0.0301  0.0680 -0.0501
 5788W        W20919   9.931   2.790   0.760  0.0436  0.2730 -0.3755
 5789W        W20920   4.822  12.680  14.257  0.0061 -0.0459 -0.3273
 5790W        W20921   9.874  17.714  10.937  0.2336 -0.2334  0.0629
 5791W        W20922   5.721   6.535   0.279  0.0640  0.0310  0.0049
 5792W        W20923  17.084   8.542  15.427  0.2094 -0.1544  0.1032
 5793W        W20924  16.555   3.512  15.859  0.0269  0.2029  0.3024
 5794W        W20925  17.344  14.527   2.878  0.0139 -0.3371 -0.3656
 5795W        W20926  13.928   6.166  12.226  0.3370  0.2765  0.0122
 5796W        W20927   9.245  12.627  11.452 -0.1055  0.1522 -0.2121
 5797W        W20928   6.954  15.882   5.739 -0.1401 -0.0528 -0.0191
 5798W        W20929  16.215  10.718   5.932 -0.2923 -0.3133  0.1077
 5799W        W20930   7.008   8.817   4.344 -0.0625 -0.0271 -0.1900
 5800W        W20931   4.244  16.749   1.272 -0.1849  0.2318  0.1133
 5801W        W20932  11.770  11.313  14.165  0.1294 -0.0481 -0.0681
 5802W        W20933   1.003  10.690  14.167 -0.1653 -0.0440 -0.1219
 5803W        W20934  14.675   1.329   3.169  0.0297  0.0515 -0.0946
 5804W        W20935   4.744   0.930   1.549 -0.1098  0.0524 -0.1079
 5805W        W20936   6.299   2.621  13.018 -0.1428  0.2180 -0.1103
 5806W        W20937  16.363   3.835   4.482 -0.0799 -0.1940 -0.1449
 5807W        W20938  14.951  10.520   3.679 -0.1061 -0.0021  0.0110
 5808W        W20939  14.545   5.101  12.350 -0.0235 -0.2270 -0.0977
 5809W        W20940  10.267   8.836   0.100 -0.1862  0.0527  0.1481
 5810W        W20941   6.358  10.691  13.339  0.0488  0.0278  0.0632
 5811W        W20942   4.625   9.365  13.699 -0.0741 -0.3181  0.2446
 5812W        W20943   8.603  11.078  10.096 -0.2179  0.0847  0.0623
 5813W        W20944  15.998   8.783   2.717 -0.1506  0.2595 -0.2690
 5814W        W20945   2.854   5.513   2.422 -0.2382 -0.0451 -0.1863
 5815W        W20946   4.272  17.999   1.889  0.3132  0.1373 -0.0998
 5816W        W20947  11.824   2.870  14.852 -0.2103  0.2243  0.1221
 5817W        W20948  14.985   0.447   3.383 -0.2388 -0.0677 -0.1330
 5818W        W20949  14.890   4.475  11.826  0.3231  0.0871  0.3237
 5819W        W20950   5.898   4.626  11.145 -0.1683 -0.0386  0.2699
 5820W        W20951   9.282   8.923  12.933 -0.2803 -0.0227  0.0637
 5821W        W20952  14.427  16.948  15.021  0.1065 -0.2317  0.1202
 5822W        W20953   5.052   2.647  10.279  0.1672 -0.0732 -0.1787
 5823W        W20954  18.177  16.509  13.179  0.0471  0.0639 -0.0045
 5824W        W20955  16.252  16.471  13.563 -0.0403 -0.1152  0.1790
 5825W        W20956  17.718  14.839  15.253 -0.0625 -0.1535  0.1637
 5826W        W20957  15.489  11.721   0.209 -0.1158  0.4683  0.1775
 5827W        W20958  14.250   0.004  15.830 -0.0661 -0.1159  0.1869
 5828W        W20959  16.728   0.574  12.915  0.2244 -0.1604 -0.2692
 5829W        W20960   7.411  18.300   4.693 -0.3206  0.2660 -0.0034
 5830W        W20961  16.568  13.197  13.500  0.2324 -0.2128  0.2060
 5831W        W20962   3.453  12.267  14.275 -0.2140  0.0318  0.0990
 5832W        W20963  13.290   5.524  14.285 -0.1168  0.1010 -0.0742
 5833W        W20964   0.235   1.736  12.038 -0.1435  0.1495 -0.0628
 5834W        W20965   4.211  11.640   4.422 -0.0175  0.3625  0.0669
 5835W        W20966  13.158  14.160  13.286  0.1635  0.1253  0.1126
 5836W        W20967  13.113  17.785  16.040  0.0063 -0.1525  0.1842
 5837W        W20968  16.242  17.139   0.694  0.0105  0.0262 -0.3578
 5838W        W20969  18.036   0.633   2.794  0.2481  0.2907 -0.1836
 5839W        W20970  12.233  13.746   1.098  0.2355  0.0561 -0.1694
 5840W        W20971  11.786   4.486  15.972 -0.1873 -0.0661  0.3001
 5841W        W20972   7.937  13.691   4.709  0.1389 -0.0355  0.5147
 5842W        W20973  12.080  12.408   2.428  0.2342  0.1288  0.1563
 5843W        W20974  12.168   1.599   5.368 -0.1054 -0.0709 -0.2273
 5844W        W20975  17.532  12.878  14.652 -0.2206  0.1390  0.0680
 5845W        W20976  10.739  15.165   2.078 -0.0121  0.2162  0.2659
 5846W        W20977  15.279   8.555  14.219  0.1637  0.0995 -0.1053
 5847W        W20978  10.318  13.678   4.426 -0.0525  0.0982  0.5474
 5848W        W20979  16.731  16.280  10.514  0.3041 -0.0500  0.0501
 5849W        W20980   1.291   4.937  13.417  0.0007 -0.0787 -0.1311
 5850W        W20981  13.430  16.960   0.999  0.1497 -0.1507 -0.1775
 5851W        W20982   3.097   4.663  13.115  0.3407  0.3516  0.0680
 5852W        W20983   9.385   4.335   3.220  0.0141  0.1587 -0.2631
 5853W        W20984  13.809  14.824   1.869 -0.0582 -0.1693  0.0748
 5854W        W20985  18.059   8.291   2.613 -0.0049  0.0523 -0.0992
 5855W        W20986   1.196  14.437   2.972 -0.1762  0.1737  0.0957
 5856W        W20987  17.350   7.693   0.260 -0.3546 -0.0260 -0.1903
 5857W        W20988  12.231  14.154  14.431 -0.0026 -0.0764  0.0748
 5858W        W20989  18.238   7.547  14.550 -0.0967 -0.0439  0.5084
 5859W        W20990  17.982   5.163   4.226  0.3295 -0.0029 -0.0872
 5860W        W20991   9.421   1.536   1.635 -0.0395  0.0309  0.1134
 5861W        W20992   2.345  14.692   2.853 -0.1049 -0.0456 -0.0031
 5862W        W20993  14.500  10.555   3.481 -0.1831  0.0148  0.0159
 5863W        W20994  15.802  14.711  13.692 -0.2821  0.0824 -0.0309
 5864W        W20995   1.257   5.018   2.909  0.0247  0.0574 -0.0486
 5865W        W20996   9.814  17.973   5.120  0.1517 -0.1015 -0.1853
 5866W        W20997   2.713  15.334   5.621  0.0897  0.1620  0.0283
 5867W        W20998   7.039  11.499   3.283 -0.0686 -0.1577  0.2065
 5868W        W20999   8.060   7.569  13.716  0.0977 -0.2370  0.3128
 5869W        W21000  11.916   2.680   3.095  0.3156 -0.0264  0.0376
 5870W        W21001   3.120   7.241  13.541 -0.4556 -0.1655 -0.2036
 5871W        W21002  15.888  11.973  12.938  0.1243 -0.2255 -0.0239
 5872W        W21003   5.299  12.809  11.403  0.1213  0.0453  0.1232
 5873W        W21004  15.324  13.577  11.574  0.0866  0.1564  0.4812
 5874W        W21005  17.805   6.382   1.760  0.0450  0.0760 -0.1490
 5875W        W21006   6.989  16.554   4.374  0.0109 -0.4682 -0.0011
 5876W        W21007   1.861  10.405  14.889  0.1272  0.1360  0.1131
 5877W        W21008   5.364   2.848   2.469  0.0310  0.0948  0.0990
 5878W        W21009   8.417   2.731   5.093 -0.5212  0.0358 -0.1007
 5879W        W21010  14.974  15.759  12.181 -0.0418  0.2287 -0.0657
 5880W        W21011  12.118  13.189   1.790  0.2127  0.1037  0.2798
 5881W        W21012   1.561   8.375  14.070 -0.0797  0.0734  0.1788
 5882W        W21013  12.401   3.012   2.626 -0.3695  0.1135  0.0610
 5883W        W21014   9.817   5.363  13.637  0.4012  0.0439 -0.1501
 5884W        W21015   7.230   3.993   4.666  0.0372  0.1337 -0.2153
 5885W        W21016  12.941   6.251   3.427 -0.0938  0.2431  0.1146
 5886W        W21017   5.281   8.151   2.503  0.0208  0.1513 -0.0225
 5887W        W21018   6.273   7.748   2.771 -0.0789 -0.1281  0.1036
 5888W        W21019  17.154  11.320  10.494 -0.0165 -0.1481  0.1827
 5889W        W21020  17.659  11.418  14.438  0.2465  0.0620 -0.1318
 5890W        W21021  15.187   7.737   2.116  0.0269  0.0449 -0.0578
 5891W        W21022  13.931  16.649   3.413 -0.1623 -0.1108  0.0696
 5892W        W21023  12.571   2.977  11.167 -0.0826  0.2660 -0.1000
 5893W        W21024   4.679   8.326   1.866  0.1721 -0.1324 -0.1020
 5894W        W21025   7.512  10.202  14.653  0.2382  0.2094 -0.2471
 5895W        W21026   9.155  10.927  11.792  0.0205  0.1402 -0.0863
 5896W        W21027   8.430  12.557  12.629  0.1045 -0.1958  0.0076
 5897W        W21028   7.550   9.274   3.463 -0.1438 -0.1532  0.1831
 5898W        W21029  10.979   8.448  14.056 -0.0760  0.1876 -0.0527
 5899W        W21030   1.940  14.274   9.939  0.3120  0.0965  0.2876
 5900W        W21031   6.747   8.857  12.640  0.4016 -0.1902 -0.0395
 5901W        W21032   5.874  12.573   4.042 -0.1237  0.1469  0.0616
 5902W        W21033  10.196   1.842  10.425 -0.0608  0.1423 -0.0948
 5903W        W21034   6.636   2.919  13.279 -0.0360  0.1414 -0.1610
 5904W        W21035   7.955  12.433  10.863  0.1253  0.0003  0.0548
 5905W        W21036   8.592  17.843  14.929 -0.2381 -0.0511 -0.2663
 5906W        W21037  11.245   7.392  12.793 -0.1072  0.1218  0.1284
 5907W        W21038  15.332   8.415  11.257 -0.0106 -0.2537 -0.0276
 5908W        W21039   5.245   4.421   4.305  0.0093 -0.2876 -0.1448
 5909W        W21040   9.205   6.200  12.394 -0.0033  0.2371 -0.0053
 5910W        W21041   8.064   0.821  11.899 -0.4143 -0.2176 -0.0823
 5911W        W21042   7.421  15.793   0.706 -0.0065 -0.0891 -0.0780
 5912W        W21043   4.804   3.820  12.764  0.1809 -0.2035  0.2260
 5913W        W21044   3.384   3.666   1.601 -0.1303  0.2742  0.0958
 5914W        W21045  17.755  18.063  11.588 -0.2793  0.3253 -0.1331
 5915W        W21046  14.091   4.048   0.044 -0.0557  0.1370  0.1297
 5916W        W21047  16.762   3.773   4.174  0.1793  0.1103  0.0820
 5917W        W21048  12.805  11.718   4.067 -0.0144  0.1397  0.2184
 5918W        W21049   7.738  13.832  11.487  0.0932 -0.1642  0.1430
 5919W        W21050   8.651   8.836   4.483  0.2641 -0.1609  0.0635
 5920W        W21051  15.438   7.192   3.709  0.0135 -0.1225 -0.3177
 5921W        W21052   0.934   5.393   3.132 -0.1685  0.0031  0.0343
 5922W        W21053  12.658   7.789   3.207 -0.1279 -0.1461  0.0196
 5923W        W21054   6.477   6.282  10.875 -0.2285 -0.1333 -0.0834
 5924W        W21055  10.598  14.391   2.768  0.1483  0.1152  0.0526
 5925W        W21056  15.421   2.922   3.597 -0.1720  0.1003  0.2347
 5926W        W21057   2.060  11.706  11.654  0.3642  0.0273 -0.0696
 5927W        W21058  14.794  11.562  15.945 -0.1074 -0.1368  0.0118
 5928W        W21059   9.487   0.566   4.417 -0.0400  0.1919 -0.1279
 5929W        W21060   1.832  12.180  13.849 -0.0555  0.0194  0.3078
 5930W        W21061  11.942   2.024  14.470 -0.1876  0.0058 -0.0345
 5931W        W21062  13.079   3.723  15.587 -0.0714 -0.2632  0.0166
 5932W        W21063  17.612  17.363  15.317  0.0563 -0.0384  0.2445
 5933W        W21064   3.095  17.888   5.121  0.1027  0.0878  0.0162
 5934W        W21065   5.362  13.843  13.837 -0.1223  0.0792 -0.1858
 5935W        W21066   6.441  10.414  12.298 -0.0388 -0.0712 -0.0089
 5936W        W21067  14.882  16.233   1.584 -0.0133  0.1056  0.0030
 5937W        W21068  14.271   1.127   1.326  0.0708 -0.4163 -0.2152
 5938W        W21069   2.388   9.265   2.253  0.0349  0.0714  0.0992
 5939W        W21070   6.162   8.322   4.756  0.1539  0.0730 -0.2522
 5940W        W21071   1.686   6.572  12.829  0.0523  0.1286 -0.1890
 5941W        W21072   8.044  15.649   2.665 -0.0967  0.3841 -0.1091
 5942W        W21073   2.180   5.707  14.742 -0.0098 -0.0553  0.0583
 5943W        W21074  11.194  14.834  11.830  0.1686 -0.0473  0.0376
 5944W        W21075   8.849   1.727   5.340 -0.0299  0.3310  0.2688
 5945W        W21076   2.102  17.892   4.382 -0.1139 -0.1292 -0.2524
 5946W        W21077  13.039  16.707   0.584 -0.2285 -0.1914 -0.0677
 5947W        W21078   9.083  12.089  15.993 -0.0576  0.2859  0.1282
 5948W        W21079   3.485   0.725   1.762  0.0384  0.0643 -0.1024
 5949W        W21080  14.660  13.175  10.341  0.2769  0.1322  0.0510
 5950W        W21081   7.058   2.704  13.508 -0.0560 -0.0894  0.0774
 5951W        W21082   9.010  17.769   3.022 -0.1147 -0.3986 -0.2818
 5952W        W21083  13.925  12.699  14.040 -0.3260  0.1457 -0.1623
 5953W        W21084   7.330  10.550  13.382  0.2040  0.3334 -0.0841
 5954W        W21085  13.531   5.431   3.384  0.1517  0.1552  0.2333
 5955W        W21086   8.026   1.773   5.186  0.0815  0.0280 -0.1852
 5956W        W21087  16.939   0.921   1.361  0.4119 -0.0808  0.0036
 5957W        W21088   5.369   9.854   4.957  0.1550  0.0494 -0.3136
 5958W        W21089   2.244  10.576   5.702 -0.1256 -0.0228  0.5047
 5959W        W21090  10.886  14.650   3.141 -0.1736 -0.1196  0.2836
 5960W        W21091   6.070   8.303   1.059 -0.2760 -0.2277  0.3062
 5961W        W21092   5.002   3.531  13.147  0.2400  0.4760 -0.0532
 5962W        W21093  13.296   3.754   0.194 -0.0123  0.1032 -0.2690
 5963W        W21094   3.521   3.430  12.795 -0.0859 -0.2799 -0.3589
 5964W        W21095   2.436  10.732  11.985  0.0886  0.1079  0.0865
 5965W        W21096   3.524   6.697   1.272  0.1563  0.4579  0.0555
 5966W        W21097  17.089  15.520  15.369  0.2116 -0.0267  0.1553
 5967W        W21098   3.648  15.398  12.399  0.2932  0.0274 -0.1638
 5968W        W21099   9.848   0.244   0.835 -0.0223 -0.4939  0.0069
 5969W        W21100   7.683  18.021  15.346 -0.0693 -0.1737 -0.0577
 5970W        W21101   2.561  11.803  11.915  0.0740  0.3891 -0.4436
 5971W        W21102  15.681   0.854   5.830 -0.0843 -0.4134  0.1025
 5972W        W21103  10.097  13.636   0.392 -0.0114  0.2466 -0.1334
 5973W        W21104   4.879   7.409  14.108 -0.2246 -0.3571 -0.2396
 5974W        W21105   4.587   6.536   9.564  0.1552 -0.0998 -0.1588
 5975W        W21106   6.330   2.004   5.211  0.2398  0.0797 -0.4009
 5976W        W21107   6.910   3.815  14.387 -0.1705  0.0874 -0.1409
 5977W        W21108   5.743   3.560   4.754  0.0677  0.0496 -0.2406
 5978W        W21109   7.480  13.432  15.852  0.1647  0.0442 -0.0843
 5979W        W21110   2.112   5.701   4.791  0.0965  0.0197 -0.0457
 5980W        W21111   9.584  11.679   2.055 -0.1944  0.1854  0.0196
 5981W        W21112  16.453  10.498  13.940  0.1107 -0.2191 -0.0223
 5982W        W21113   1.410  14.718  15.496  0.0690 -0.0864  0.0373
 5983W        W21114   8.580  16.742  11.406  0.1513  0.0345 -0.3714
 5984W        W21115   5.107   4.847  13.607 -0.0924 -0.2566  0.0131
 5985W        W21116   3.017  11.706  12.118  0.2485 -0.0387  0.3201
 5986W        W21117   6.448  16.422  12.969 -0.0507  0.1940 -0.2906
 5987W        W21118  17.361   1.842   3.708 -0.1874  0.3183  0.3753
 5988W        W21119   6.806  11.639  14.314  0.0515  0.0430 -0.2618
 5989W        W21120   0.248  17.413  12.741  0.1035 -0.1736 -0.0958
 5990W        W21121   7.808  13.487   0.980  0.0063  0.1658  0.1672
 5991W        W21122  17.926  13.255  10.261 -0.1134  0.0747  0.1568
 5992W        W21123   7.761   8.582  11.361 -0.1862  0.2066  0.4804
 5993W        W21124  17.768  12.352  15.887 -0.1060  0.1470 -0.0381
 5994W        W21125   7.322   8.526   2.879 -0.1548  0.0956  0.0377
 5995W        W21126   5.018   9.531   4.902  0.4017 -0.0140  0.1059
 5996W        W21127   7.344   5.569  11.701 -0.2278  0.1461 -0.2803
 5997W        W21128  17.049   7.438  11.082  0.4027 -0.0215  0.2972
 5998W        W21129   9.605  10.045   4.427 -0.2765  0.0624  0.2796
 5999W        W21130   4.076   6.791  14.602  0.1993 -0.0208 -0.0169
 6000W        W21131  16.731  17.244   0.262 -0.2409 -0.1787  0.2311
 6001W        W21132  13.493  13.796  14.254 -0.0029 -0.2817 -0.2383
 6002W        W21133   6.057   2.488   1.953  0.2101  0.2605 -0.1117
 6003W        W21134   2.926  17.440  12.556 -0.0901  0.1322  0.3921
 6004W        W21135   9.328  18.017  15.464 -0.2089  0.1413  0.0066
 6005W        W21136   8.736  18.186  11.292  0.1029  0.2133 -0.1364
 6006W        W21137   1.974  17.585  12.642 -0.1239 -0.2511 -0.3365
 6007W        W21138   9.129   2.274   4.384 -0.1531  0.1250  0.4779
 6008W        W21139   6.842  11.824   0.645  0.0823  0.2709 -0.1435
 6009W        W21140   7.540  16.210   3.527  0.0642  0.3039  0.1240
 6010W        W21141   9.807  12.993  12.051 -0.1523  0.2422  0.2954
 6011W        W21142  14.819   9.547   3.633 -0.3134  0.0952  0.0234
 6012W        W21143  14.212  15.809  15.807  0.3961  0.0843 -0.2198
 6013W        W21144  15.753  15.322   4.089  0.0794  0.1249 -0.0333
 6014W        W21145   9.461   5.641   1.227  0.5379  0.2231  0.3766
 6015W        W21146   9.773   5.499  14.142 -0.0285 -0.0051  0.1050
 6016W        W21147  11.697   6.909   1.516 -0.1220  0.2599  0.3166
 6017W        W21148   3.163   3.089  10.124 -0.1177  0.0552  0.0582
 6018W        W21149   2.587  15.066   4.925 -0.2750 -0.0237  0.0767
 6019W        W21150  17.284   1.622  11.720  0.0006 -0.0192  0.0974
 6020W        W21151  11.161   2.010  12.078  0.1597  0.4565  0.0030
 6021W        W21152   7.635   2.719  11.568  0.0228 -0.2377  0.1325
 6022W        W21153  10.350   9.302   3.496  0.1231  0.1500 -0.0068
 6023W        W21154  10.421   7.562  11.495  0.0276  0.1285 -0.2400
 6024W        W21155   6.995   9.268  12.917 -0.1525 -0.1365  0.0230
 6025W        W21156   2.607  14.951   1.172  0.1162  0.2157 -0.0115
 6026W        W21157  15.045  10.724  15.419  0.1743  0.2159 -0.1061
 6027W        W21158   5.402   5.710   5.465 -0.1084  0.0377 -0.1745
 6028W        W21159   0.730  12.914   4.693 -0.0751 -0.2093  0.0216
 6029W        W21160  14.604  10.740  10.746 -0.2784 -0.0934 -0.5245
 6030W        W21161   2.006   2.769  13.135 -0.0744  0.2329 -0.2003
 6031W        W21162  17.417   5.570  11.646 -0.1903  0.2331 -0.1505
 6032W        W21163  17.290   4.766  15.530 -0.0335  0.1230 -0.0060
 6033W        W21164  12.410  14.679  15.463 -0.1493  0.1375 -0.1586
 6034W        W21165   8.502   0.637  15.034  0.0025 -0.0260  0.1142
 6035W        W21166  13.404   7.163   4.453  0.1120  0.0022 -0.0719
 6036W        W21167  15.744   8.035  10.915 -0.3211 -0.2347 -0.0506
 6037W        W21168   0.552  17.543   2.789 -0.2176 -0.1870 -0.0492
 6038W        W21169  11.579   4.336   1.780  0.2331 -0.0571  0.0281
 6039W        W21170  15.571   5.068  14.915 -0.0733 -0.0646 -0.1226
 6040W        W21171  15.576   8.791   2.399 -0.3388 -0.2314  0.0395
 6041W        W21172  13.791  11.435   4.028 -0.3693  0.0539  0.0434
 6042W        W21173   1.993   7.908  14.873  0.1390  0.0739  0.0030
 6043W        W21174   3.087  14.564  16.087 -0.3814 -0.1185 -0.2091
 6044W        W21175   5.019  16.700  13.082  0.1571  0.1481 -0.1107
 6045W        W21176  10.071  11.702   1.778 -0.1609  0.0200 -0.1247
 6046W        W21177   3.007   3.821  13.675 -0.0577 -0.0875 -0.1296
 6047W        W21178   8.770   8.988   0.862  0.0615  0.1372 -0.4693
 6048W        W21179   5.124   3.063  13.240 -0.2500 -0.0172 -0.2279
 6049W        W21180   1.515   2.200   0.953 -0.2622  0.1440 -0.1728
 6050W        W21181   3.262  18.097   1.651  0.1494 -0.1518  0.0531
 6051W        W21182   2.085   6.943  15.944  0.1753  0.2513  0.2052
 6052W        W21183   0.428   6.858   0.968 -0.1136 -0.4957 -0.1210
 6053W        W21184  10.961  15.056  11.396  0.2217 -0.3034  0.0100
 6054W        W21185  15.411   8.442  11.829 -0.2205  0.2571  0.0452
 6055W        W21186   0.866   6.417   3.093 -0.0097 -0.1590 -0.4946
 6056W        W21187   5.906  11.499  11.269 -0.0272 -0.1002  0.3691
 6057W        W21188   2.988  16.531  14.009  0.2158  0.1550  0.0663
 6058W        W21189  12.027  15.315   3.390  0.0296  0.2684 -0.0361
 6059W        W21190  16.580   3.682  15.377  0.1579  0.2961 -0.0143
 6060W        W21191   6.769   1.188   2.575 -0.0187  0.0619  0.0701
 6061W        W21192   6.379   3.521  12.167 -0.2334  0.3128 -0.0136
 6062W        W21193   7.991   5.044  12.126 -0.0141 -0.2082  0.1739
 6063W        W21194  10.062   5.019  13.354 -0.0304  0.0877  0.0049
 6064W        W21195   2.831  13.763  12.224 -0.1964  0.0628  0.2268
 6065W        W21196   2.296   0.166   1.825 -0.1099  0.0046 -0.1151
 6066W        W21197   0.551  10.567  14.003  0.0334  0.0079 -0.1545
 6067W        W21198   0.577   9.484   2.400  0.1331  0.0022  0.0134
 6068W        W21199   9.239  12.221  12.479 -0.0562 -0.0254  0.0658
 6069W        W21200  10.804  15.753  16.042 -0.1918 -0.3546  0.1626
 6070W        W21201  13.965   6.459  11.382  0.2602  0.0238 -0.2954
 6071W        W21202  13.624   2.551   4.912  0.2101  0.0225  0.0929
 6072W        W21203   3.497  11.769   4.596 -0.1680 -0.0853  0.0903
 6073W        W21204  10.770   4.899   3.560  0.3298 -0.2131 -0.2575
 6074W        W21205   3.691  12.490  10.278  0.0336 -0.2124 -0.1184
 6075W        W21206   1.466   8.214  16.104  0.1419  0.1852  0.1547
 6076W        W21207   4.220   6.268   1.821 -0.0566 -0.0647  0.2656
 6077W        W21208   1.784   5.020  14.263 -0.1696  0.1065  0.1290
 6078W        W21209   0.804   2.178   5.422 -0.2646  0.0088  0.1197
 6079W        W21210  13.636  11.979  14.485  0.1296 -0.0509  0.0866
 6080W        W21211  13.123  16.145  11.886 -0.2354  0.0367 -0.0159
 6081W        W21212   8.542   4.872  10.306 -0.2185  0.5522 -0.0124
 6082W        W21213   7.637   9.444   5.191 -0.5405  0.0884 -0.2602
 6083W        W21214   5.161   1.977   3.514 -0.1201 -0.3768  0.3138
 6084W        W21215   3.719  18.302   0.025  0.0822  0.3101 -0.2624
 6085W        W21216   9.420  15.493   4.127  0.3064 -0.2028  0.0067
 6086W        W21217  10.354   0.065   3.947 -0.1401  0.0748  0.0995
 6087W        W21218   6.001  10.404  11.833  0.0080  0.5285  0.2517
 6088W        W21219   6.118   6.883   0.116 -0.0172 -0.0594 -0.0369
 6089W        W21220  16.434   3.664   2.673  0.0481  0.0351  0.0358
 6090W        W21221  11.216  18.003  13.259 -0.3622 -0.2738  0.1844
 6091W        W21222  18.102   6.917  14.346 -0.0302 -0.0769 -0.3528
 6092W        W21223   2.647  11.078   3.247  0.2082  0.0541 -0.1523
 6093W        W21224   5.092   1.715   4.787  0.0819  0.0727  0.0017
 6094W        W21225   9.939  15.676   2.677 -0.0222 -0.2623  0.0547
 6095W        W21226   1.839  11.314   1.042 -0.1382 -0.2890 -0.0760
 6096W        W21227  11.981  11.618   1.528 -0.0637 -0.0852 -0.2279
 6097W        W21228  13.724  11.743  10.778  0.0102  0.1069  0.1549
 6098W        W21229   0.016  11.109  14.502  0.2205 -0.0324 -0.1896
 6099W        W21230  16.235  17.371  14.150  0.0579 -0.5027 -0.1623
 6100W        W21231   7.121   9.419  14.885 -0.1519 -0.4162  0.2442
 6101W        W21232  12.120  18.211   0.741 -0.2256  0.1654  0.2367
 6102W        W21233   9.243   2.569  14.045  0.0141  0.0078  0.1581
 6103W        W21234  15.670  11.943   1.004 -0.1955  0.2685  0.1932
 6104W        W21235   6.586  14.490  13.250  0.4359 -0.0523 -0.2456
 6105W        W21236  16.683  13.002  11.319 -0.2094  0.0456  0.0050
 6106W        W21237  10.563  16.109  12.295 -0.0231 -0.0030  0.0239
 6107W        W21238   7.589  10.661  15.585 -0.0954  0.0148 -0.1376
 6108W        W21239   7.838  13.476  14.919  0.2200 -0.1022 -0.2295
 6109W        W21240   1.745  12.121   4.430  0.1602  0.2296  0.1387
 6110W        W21241  10.130  16.322   0.271 -0.0837 -0.2177  0.0441
 6111W        W21242   9.628   8.694   1.698 -0.2589  0.2914  0.0444
 6112W        W21243  14.680   4.574   1.229  0.0233 -0.1856 -0.0214
 6113W        W21244   2.643   3.261   3.372 -0.0935 -0.0112  0.2380
 6114W        W21245   7.923   8.505  15.327  0.2103  0.1602 -0.0496
 6115W        W21246   1.495   2.923   4.377 -0.2985 -0.0715  0.1275
 6116W        W21247   6.749   3.530   0.726  0.0317 -0.0029 -0.0853
 6117W        W21248   7.160  13.737   3.372 -0.1853  0.0386  0.3504
 6118W        W21249   2.462   0.969  12.284  0.1264 -0.1325  0.2167
 6119W        W21250   5.892   2.455  13.975 -0.0386  0.0484 -0.0801
 6120W        W21251   2.816   1.766  11.921  0.0650  0.1171 -0.0181
 6121W        W21252  10.161   6.797   5.449 -0.3709 -0.1623 -0.3148
 6122W        W21253  15.761  12.345   5.642  0.1871 -0.3059  0.4054
 6123W        W21254   0.844   7.099   0.225 -0.2944 -0.0404 -0.2437
 6124W        W21255   5.780  14.608  12.682  0.0032 -0.2488 -0.0982
 6125W        W21256  14.056   1.357   0.690  0.1706  0.3275 -0.3008
 6126W        W21257   3.107  16.296   1.714  0.2783 -0.0277 -0.1595
 6127W        W21258  12.632  13.778  13.757  0.1072 -0.2581  0.3644
 6128W        W21259   0.697   5.834  15.403 -0.0024 -0.4128 -0.0156
 6129W        W21260  14.217  17.487   5.683 -0.0491 -0.3500  0.1389
 6130W        W21261   3.694   2.956   3.643  0.0127 -0.1560 -0.0781
 6131W        W21262   0.251   0.441   0.702  0.1800  0.2271 -0.0666
 6132W        W21263   7.394  15.208   4.893 -0.0992  0.2172  0.5268
 6133W        W21264  16.856   0.301   4.909 -0.2319 -0.1685 -0.1421
 6134W        W21265   6.111  15.948   2.010 -0.0394 -0.0935 -0.2653
 6135W        W21266   5.253   7.094   5.569 -0.1815 -0.1076  0.1871
 6136W        W21267  11.120   6.150  10.834  0.0526  0.0413  0.1676
 6137W        W21268   3.712  11.598  11.025 -0.1503  0.0970  0.1236
 6138W        W21269  10.611  12.012   5.199 -0.2467 -0.1951 -0.2213
 6139W        W21270   0.068  16.201  13.507 -0.0646 -0.4174  0.1240
 6140W        W21271   6.219   1.889  10.878 -0.0581 -0.1752 -0.0949
 6141W        W21272  11.569   2.443  14.698  0.2863 -0.1425  0.2131
 6142W        W21273  14.447   1.573  11.517 -0.1536 -0.0173  0.3251
 6143W        W21274  18.115  14.148   1.936  0.0911  0.2646 -0.0633
 6144W        W21275  13.688   4.244   2.986  0.2262  0.2258 -0.0262
 6145W        W21276   9.347   5.788   3.055  0.0771  0.1545  0.2530
 6146W        W21277  10.310  13.116   1.027  0.2353 -0.1435 -0.0578
 6147W        W21278   8.038   2.892   5.826  0.1180  0.3921  0.0822
 6148W        W21279  10.651   0.649   0.092 -0.1953 -0.0002 -0.0279
 6149W        W21280  11.493  12.267   2.698 -0.1976 -0.3676  0.1344
 6150W        W21281  10.236  12.613   4.235 -0.0171 -0.0344  0.0463
 6151W        W21282   5.212   2.750   0.744  0.0966 -0.0157  0.2638
 6152W        W21283   8.498  11.613   3.945  0.0237 -0.1383 -0.0461
 6153W        W21284   8.508   8.012   0.942 -0.1106 -0.2012 -0.1345
 6154W        W21285  17.725   7.329   3.299 -0.0364 -0.1980 -0.0997
 6155W        W21286  12.912   1.791  16.012 -0.1345  0.1565 -0.3653
 6156W        W21287   2.800   3.512  11.741  0.2405  0.1775 -0.0500
 6157W        W21288  15.431   3.022   4.450  0.2202  0.2330  0.0520
 6158W        W21289   4.744  11.177  13.285  0.0982  0.2577 -0.1426
 6159W        W21290  10.848  17.352   5.902  0.3540  0.1118 -0.1126
 6160W        W21291   0.602  13.386  11.777  0.0360  0.0698 -0.0137
 6161W        W21292  11.621  16.805   1.033  0.0946 -0.0783 -0.2035
 6162W        W21293  10.128   9.626  11.200 -0.0162  0.0480  0.1870
 6163W        W21294  15.526  17.422   3.066 -0.1006 -0.2873  0.0663
 6164W        W21295  12.890   9.985  10.549  0.0675 -0.0025 -0.3265
 6165W        W21296   4.988   7.036   5.164  0.2278  0.2498  0.1387
 6166W        W21297  17.724  13.578  13.432 -0.0427 -0.2174 -0.0585
 6167W        W21298   1.254  17.692  15.503 -0.3133 -0.0369  0.2979
 6168W        W21299  10.877   3.624  14.400 -0.0092 -0.0614 -0.1409
 6169W        W21300   2.133   3.450  15.625  0.0149 -0.1433  0.1406
 6170W        W21301   9.748   9.919  13.723  0.0085 -0.0627  0.0543
 6171W        W21302   4.221  17.783  16.086 -0.0506  0.4027 -0.0372
 6172W        W21303   7.291   8.044  13.626 -0.4433 -0.0169 -0.1211
 6173W        W21304   3.288  10.138   2.513  0.0513 -0.1980 -0.0647
 6174W        W21305   1.753   2.121   2.843 -0.1693  0.1479 -0.1350
 6175W        W21306  10.368  16.453  13.571 -0.0389 -0.1826  0.1192
 6176W        W21307   6.168   3.395   5.368  0.0241 -0.3351  0.1121
 6177W        W21308  14.024   9.581  14.188 -0.2172 -0.1736 -0.0505
 6178W        W21309  10.008  15.267   3.508  0.1961  0.1502  0.0366
 6179W        W21310   7.936  11.612   4.157  0.0360  0.0032  0.0449
 6180W        W21311   0.318   9.405  14.607 -0.1084  0.0214  0.2344
 6181W        W21312  16.362  17.408  14.642  0.1736 -0.1690 -0.2291
 6182W        W21313  11.556   6.315   1.569 -0.0869  0.2807 -0.0232
 6183W        W21314  17.681  18.015   2.137 -0.0065  0.0976 -0.1629
 6184W        W21315  10.553  10.550  13.998 -0.2107  0.3499  0.1389
 6185W        W21316   2.092   5.525  10.171  0.2421  0.2902  0.0782
 6186W        W21317   3.356  12.986  11.824 -0.1803  0.2307 -0.0206
 6187W        W21318   1.666  13.965   5.654 -0.1358  0.1655 -0.2942
 6188W        W21319   8.090   8.073   4.365  0.0604 -0.1567  0.2791
 6189W        W21320   3.712   3.433   4.010  0.0382 -0.0360  0.2564
 6190W        W21321   6.043   6.875  11.334  0.0549  0.1955  0.0546
 6191W        W21322   1.275   4.449   0.799 -0.1798 -0.0791  0.0252
 6192W        W21323  10.585  10.902   5.627  0.0749 -0.0833  0.0115
 6193W        W21324  10.939   2.406  11.639 -0.1217 -0.2852  0.1332
 6194W        W21325   0.641   5.865   4.596  0.0430  0.1344 -0.0607
 6195W        W21326  16.022  10.766  12.947 -0.0726  0.0694  0.2379
 6196W        W21327  13.261  11.252   5.794 -0.0714  0.0615 -0.1788
 6197W        W21328   8.367   6.939  12.297  0.3513  0.0677 -0.0591
 6198W        W21329   5.884  16.528  15.936 -0.0703 -0.3077 -0.1124
 6199W        W21330   4.212  13.332  14.370 -0.0459  0.0595  0.2531
 6200W        W21331   8.384  14.017   4.691 -0.0818 -0.0192 -0.2456
 6201W        W21332   6.058   9.084  11.888 -0.0417 -0.2323 -0.1976
 6202W        W21333   0.019  17.330  12.225 -0.0259  0.1064  0.1424
 6203W        W21334   7.483   0.848   3.730  0.0617  0.3627 -0.1567
 6204W        W21335   5.681   6.872   5.768 -0.1599 -0.0464  0.1359
 6205W        W21336  12.047   4.428   4.429  0.0964  0.1379 -0.0128
 6206W        W21337  17.765   1.054   2.416  0.1831  0.1525 -0.0470
 6207W        W21338  18.026  16.465   4.698  0.0723 -0.3703  0.0266
 6208W        W21339   7.398   2.851  12.044  0.1207 -0.2327  0.2923
 6209W        W21340   1.890   5.262   0.913 -0.3162 -0.2312  0.1221
 6210W        W21341   4.055   5.758  14.142 -0.1577  0.3751  0.0309
 6211W        W21342  11.876  10.461  15.267  0.1728 -0.1269 -0.0460
 6212W        W21343  14.951   7.937  15.023 -0.0593 -0.0523  0.0525
 6213W        W21344   7.896  17.839  13.373 -0.1067 -0.0116 -0.0409
 6214W        W21345  18.127   2.760   0.752  0.0254 -0.1220 -0.1424
 6215W        W21346  12.218  12.834  13.938  0.0700  0.0893 -0.1052
 6216W        W21347  13.351  13.548  12.771  0.0962 -0.2110  0.1114
 6217W        W21348  11.363   4.878  10.927 -0.0403  0.1000 -0.1307
 6218W        W21349  13.103   2.662   4.953 -0.1574 -0.3703 -0.0146
 6219W        W21350  12.109  13.710   1.759 -0.1215 -0.0860 -0.0341
 6220W        W21351  16.816   0.468   3.405 -0.1851  0.0232  0.1085
 6221W        W21352   7.460  14.845   5.292 -0.0608 -0.0271 -0.1162
 6222W        W21353   9.912   3.894   3.807 -0.3078 -0.2948  0.0021
 6223W        W21354   4.275   6.186  12.051  0.3384  0.1086  0.3271
 6224W        W21355  15.083  11.538   9.758 -0.0698  0.0022 -0.1191
 6225W        W21356   0.867   6.632   1.714 -0.3348 -0.1723 -0.1958
 6226W        W21357   6.914   5.660   4.836 -0.0548  0.2385 -0.1771
 6227W        W21358  10.744   3.692   1.703  0.0681 -0.0898  0.0867
 6228W        W21359  17.023   9.571   0.114  0.0846 -0.1060  0.1166
 6229W        W21360  12.750  12.413   4.568 -0.1035  0.1313  0.0946
 6230W        W21361  16.396  11.015   1.026  0.1473  0.0141  0.2018
 6231W        W21362  15.056   0.412  15.209 -0.0367  0.0668  0.1939
 6232W        W21363  14.982   3.862  13.748  0.3215 -0.1868  0.1354
 6233W        W21364   0.227  11.894  15.116 -0.0370 -0.3267 -0.2647
 6234W        W21365   6.467  16.295  12.094 -0.1031 -0.0551  0.1796
 6235W        W21366  17.137   6.515  10.549  0.1855 -0.1437 -0.0100
 6236W        W21367  14.737  17.907  13.484  0.0703  0.1212  0.1132
 6237W        W21368  16.959  13.627  13.516  0.1456  0.0605  0.1164
 6238W        W21369   6.594  12.032  14.838  0.0448 -0.1288  0.0484
 6239W        W21370  16.538  14.176  14.223  0.3020  0.0109 -0.1216
 6240W        W21371   2.500   8.577   5.115 -0.1225  0.2158 -0.1331
 6241W        W21372  12.377   0.936   4.388  0.2216 -0.1663  0.1469
 6242W        W21373  12.407  11.246  10.961 -0.1148 -0.3093  0.1198
 6243W        W21374   6.902  17.167   3.673 -0.3434 -0.3310  0.3407
 6244W        W21375   7.425   4.016   5.590 -0.1024 -0.3716  0.1537
 6245W        W21376  12.953  17.056   1.049  0.0566  0.1024 -0.2747
 6246W        W21377   7.798   1.582  11.547 -0.0710  0.1734 -0.2251
 6247W        W21378   6.291   1.686  13.287 -0.3552  0.3358  0.1437
 6248W        W21379   7.507   4.514   0.217  0.0006  0.2389 -0.1668
 6249W        W21380   0.124   7.356  12.897  0.3533  0.3063  0.0495
 6250W        W21381   9.210   2.325  12.920 -0.2199  0.0666 -0.1427
 6251W        W21382  16.593   7.622   1.084 -0.3383  0.2124 -0.1437
 6252W        W21383   9.758  13.855   3.802 -0.1449 -0.0129 -0.0088
 6253W        W21384   0.673   4.598   4.277 -0.1073  0.0129 -0.2165
 6254W        W21385   3.923   4.521  14.908  0.2514 -0.1552 -0.0519
 6255W        W21386  17.867   6.857   2.569 -0.1868  0.0618  0.2261
 6256W        W21387  12.666  15.492  12.512 -0.3996  0.0054  0.0139
 6257W        W21388   3.361   2.209   0.805 -0.1393  0.2555 -0.0857
 6258W        W21389  16.496  11.909  13.520 -0.0617 -0.3200  0.0539
 6259W        W21390  11.021   3.469   5.603 -0.0107 -0.0586  0.1533
 6260W        W21391   3.151  14.665  12.241  0.2267  0.0699 -0.2636
 6261W        W21392  12.067   1.388  11.739 -0.0733  0.1498 -0.0289
 6262W        W21393  10.631  16.747   4.629  0.5089 -0.0314 -0.2852
 6263W        W21394  11.364  13.545  15.421  0.0708  0.1429  0.1873
 6264W        W21395   8.705  18.006  15.853  0.1619 -0.1790  0.3841
 6265W        W21396   0.137   3.526   4.183 -0.2996  0.2483 -0.1393
 6266W        W21397  13.381   7.827   0.905  0.1880  0.0595  0.3360
 6267W        W21398  13.593   1.420  15.777 -0.0620  0.0338  0.1324
 6268W        W21399   2.546   1.109  15.226  0.4017 -0.0570  0.3185
 6269W        W21400   5.076   1.420   0.483 -0.1164 -0.0057 -0.1160
 6270W        W21401   7.954  12.024  12.592 -0.3239 -0.2656 -0.0473
 6271W        W21402  17.629  11.805   0.540  0.0900 -0.2606 -0.0857
 6272W        W21403   6.395   8.423  14.535  0.1948 -0.2644 -0.1959
 6273W        W21404   3.737   0.668   0.612  0.2049 -0.1433  0.0256
 6274W        W21405  16.616   7.579   3.211  0.2920  0.2788  0.0114
 6275W        W21406  10.775   6.928   3.221  0.1664 -0.2018 -0.2134
 6276W        W21407  16.921  12.299   2.445 -0.3899  0.0013 -0.1204
 6277W        W21408  17.758   4.342   4.274 -0.0513 -0.0672 -0.3790
 6278W        W21409   5.440   6.711  12.099 -0.0930  0.0266  0.0396
 6279W        W21410  12.754   9.443   3.938  0.2285 -0.0220  0.1355
 6280W        W21411  13.920  16.351  11.411 -0.0382  0.2928 -0.0681
 6281W        W21412   9.752   6.972   2.412 -0.0156 -0.3195  0.1456
 6282W        W21413   4.351  13.851  10.307  0.2059  0.0779  0.0721
 6283W        W21414  16.129   2.351   0.510 -0.1790  0.0202 -0.2599
 6284W        W21415   9.868  13.801  13.983  0.1893  0.0107 -0.0540
 6285W        W21416   4.832   0.066  12.716 -0.1241 -0.3877  0.0601
 6286W        W21417   0.924   1.122   5.417 -0.2004  0.1593  0.1781
 6287W        W21418  12.283   5.339   2.721  0.3013  0.1425 -0.1227
 6288W        W21419   8.783  11.769   6.031  0.0387  0.0794 -0.0814
 6289W        W21420   9.107   4.399  14.388  0.1107  0.0472 -0.1460
 6290W        W21421  16.587   9.000  12.846 -0.2497  0.4428 -0.0229
 6291W        W21422  12.297  13.333  15.740 -0.0607 -0.1202  0.1557
 6292W        W21423   3.657   1.343   6.613 -0.1165  0.0775 -0.0357
 6293W        W21424   5.846   0.217   2.238 -0.0330 -0.3182 -0.0640
 6294W        W21425   6.641  17.616   0.663 -0.2090 -0.1387 -0.1498
 6295W        W21426   1.615  16.904   2.999  0.1845 -0.1748  0.1010
 6296W        W21427  18.250  15.540  15.727 -0.3514 -0.0281 -0.0862
 6297W        W21428  14.753   7.072  15.129  0.0283  0.1547 -0.0203
 6298W        W21429   5.571   7.137   0.496 -0.0213 -0.1000  0.0216
 6299W        W21430  13.237  16.503   4.204 -0.0432 -0.1285 -0.3341
 6300W        W21431   1.466   5.870   1.388  0.0526 -0.0763 -0.2465
 6301W        W21432   3.097   6.491  12.319 -0.4425 -0.4243 -0.3019
 6302W        W21433   4.936   3.941   3.207 -0.1402  0.1430 -0.1973
 6303W        W21434   3.034   0.367  14.898  0.0035  0.1109  0.5410
 6304W        W21435   6.160   3.370   0.297 -0.1146 -0.4354  0.2138
 6305W        W21436   3.203   2.667   5.368  0.2513  0.3262 -0.1014
 6306W        W21437   9.488   5.701  15.007 -0.0218  0.4627  0.2609
 6307W        W21438   2.537   8.259   1.499 -0.0217  0.0017 -0.0786
 6308W        W21439   4.080  14.952  16.041  0.1071  0.0589 -0.1877
 6309W        W21440   1.630   3.476   4.299  0.2573 -0.0748  0.3499
 6310W        W21441  10.935  11.842   2.463  0.0141  0.0859  0.1309
 6311W        W21442   2.272   1.368   0.547 -0.1691 -0.1314  0.0797
 6312W        W21443   2.365  12.696   0.041  0.1311  0.0313 -0.3513
 6313W        W21444   9.757   1.246   5.221  0.0058  0.2798 -0.0655
 6314W        W21445   1.117  14.199   5.681  0.1938  0.0176  0.4027
 6315W        W21446  14.485  13.663  11.829 -0.3251  0.0290  0.2604
 6316W        W21447   8.370   0.229  10.659  0.0932 -0.0187 -0.1501
 6317W        W21448   9.248   2.583   3.992 -0.0349 -0.5346  0.1527
 6318W        W21449   9.275   0.448   3.490  0.0394 -0.2231 -0.0312
 6319W        W21450   5.063  10.835  12.569 -0.0182 -0.0134 -0.1029
 6320W        W21451   9.862  11.189   4.541 -0.0019  0.2814  0.0670
 6321W        W21452  15.639  16.993   2.588  0.2555 -0.0733  0.0238
 6322W        W21453  11.133  17.415   0.793 -0.2741  0.1006 -0.1975
 6323W        W21454  10.096  17.301  13.445 -0.0882 -0.0640  0.0050
 6324W        W21455   8.686   8.744  11.084  0.1016 -0.1466  0.1562
 6325W        W21456   8.407  16.107   1.011 -0.0169 -0.1304  0.3104
 6326W        W21457  15.281   3.600  15.459 -0.1371  0.2942  0.0323
 6327W        W21458   8.201   4.236  14.473 -0.2509  0.0076 -0.3360
 6328W        W21459   8.017   1.486  15.425 -0.1716 -0.2972  0.0717
 6329W        W21460   1.829  15.052   0.618  0.2436  0.1142 -0.2534
 6330W        W21461  10.459  12.046   1.680  0.2678  0.2915 -0.1886
 6331W        W21462  18.006  16.818   5.466 -0.0688 -0.6302 -0.1194
 6332W        W21463   1.994  11.036   2.058  0.0764 -0.3154 -0.1169
 6333W        W21464   9.043  11.900   1.894 -0.1475 -0.0815  0.0981
 6334W        W21465  12.168  15.872  15.938 -0.0936  0.2011 -0.0969
 6335W        W21466  15.412  17.136  13.483  0.1410  0.1388 -0.2062
 6336W        W21467  10.524   8.912   3.008  0.0560  0.0302  0.2203
 6337W        W21468  17.822  15.075  12.119 -0.0050 -0.0509 -0.0318
 6338W        W21469   5.311   4.576  15.005  0.1401 -0.2260  0.2403
 6339W        W21470   5.270  14.156   0.430 -0.3344  0.3563  0.0757
 6340W        W21471   6.584   5.847   3.127 -0.1358 -0.0793  0.1036
 6341W        W21472   8.070   2.114   0.987  0.2414  0.1149  0.1625
 6342W        W21473  10.053  13.253  14.753 -0.0654 -0.1432 -0.1524
 6343W        W21474  11.663  10.488   5.121 -0.0623  0.2726  0.0472
 6344W        W21475   4.113   6.733   4.219 -0.3081 -0.1008 -0.0394
 6345W        W21476  14.671   7.796   2.173  0.0458 -0.1177 -0.1952
 6346W        W21477  17.300   9.842  15.883 -0.1555  0.0584 -0.2925
 6347W        W21478   9.123   1.510  11.832 -0.2773  0.3594 -0.0336
 6348W        W21479   7.995   5.697  15.880  0.0664 -0.1152  0.3675
 6349W        W21480  10.267  10.668  13.585 -0.0231 -0.1835  0.0897
 6350W        W21481   4.339   2.460  13.696  0.1888 -0.0513 -0.1828
 6351W        W21482   2.213   6.018  13.503 -0.1879  0.0587  0.0917
 6352W        W21483  11.684   3.960  15.756 -0.0165 -0.1403  0.4608
 6353W        W21484   6.589   1.595  11.910 -0.1683 -0.0433 -0.1247
 6354W        W21485  12.372  10.390  15.445  0.2715 -0.0435  0.1578
 6355W        W21486   1.446   9.426   3.670  0.1393 -0.0054 -0.0324
 6356W        W21487   8.585  11.242   1.338  0.6719 -0.3101 -0.1527
 6357W        W21488  15.411   4.225  13.769  0.1242  0.0967  0.2853
 6358W        W21489   6.692   4.614   3.753 -0.0319 -0.1534 -0.2811
 6359W        W21490   3.121  12.812  15.481  0.1071  0.0617  0.1962
 6360W        W21491   7.339  10.959   4.096  0.2191 -0.0665 -0.0677
 6361W        W21492   3.020  11.002  12.735 -0.2382  0.1381 -0.0048
 6362W        W21493  16.128  10.984  12.273  0.4431 -0.0247 -0.1608
 6363W        W21494  16.430  16.332   3.622  0.0509 -0.0868  0.0544
 6364W        W21495   0.504   1.576   4.683  0.1780 -0.3513 -0.0622
 6365W        W21496   2.758   0.393   2.938  0.0423  0.3927 -0.1070
 6366W        W21497   6.057  17.700  14.060 -0.1241 -0.2421  0.0723
 6367W        W21498  10.411   4.160  15.605  0.0479 -0.0048 -0.0711
 6368W        W21499   9.932   8.209   3.042  0.1030 -0.1822  0.2720
 6369W        W21500  14.747   1.471   0.968 -0.0519  0.0073  0.0339
 6370W        W21501  18.304  16.165   0.382  0.1685  0.1599 -0.2034
 6371W        W21502  12.250   1.454  10.780 -0.0003  0.2030 -0.0873
 6372W        W21503  17.838   3.160   4.744 -0.3485 -0.1308  0.0027
 6373W        W21504   2.160   0.444   0.396  0.1271 -0.0671 -0.0658
 6374W        W21505   0.624  12.193  10.918  0.0628  0.0457 -0.0002
 6375W        W21506   0.039   9.293  10.997 -0.2587  0.2576 -0.0268
 6376W        W21507  15.306  14.837   4.038  0.4310  0.3236  0.0219
 6377W        W21508  16.308   0.748  13.257  0.0054 -0.0140 -0.0032
 6378W        W21509   1.564  15.284  15.139  0.1579  0.2323  0.0023
 6379W        W21510  10.220   1.441   5.528 -0.3120  0.0235 -0.0051
 6380W        W21511  11.083  10.188  12.488 -0.0139  0.0247  0.0279
 6381W        W21512  13.953  11.665  15.125  0.0674 -0.0551 -0.0205
 6382W        W21513   2.398   6.714   3.688  0.1076  0.0481  0.0276
 6383W        W21514  13.240   7.077   3.413  0.1150  0.0945 -0.2746
 6384W        W21515   9.205   4.226   5.942 -0.0721 -0.0486  0.0458
 6385W        W21516   2.548   3.804   3.421 -0.0705 -0.0150 -0.0004
 6386W        W21517  11.311  11.114  11.955  0.1405 -0.0491 -0.0029
 6387W        W21518   5.332   8.064  12.227  0.0779  0.4719  0.2290
 6388W        W21519   4.385   7.356  15.415  0.3180 -0.1100  0.0146
 6389W        W21520  13.972  13.620   1.370  0.1408 -0.0373 -0.0273
 6390W        W21521   0.848  17.693   1.957 -0.4089  0.1814  0.2933
 6391W        W21522  11.296  13.873  13.630 -0.2583  0.1751 -0.0850
 6392W        W21523  16.566   8.373  14.313  0.1770  0.0628 -0.0434
 6393W        W21524   3.748   3.619   6.055 -0.0457  0.0995  0.3850
 6394W        W21525   8.749   6.529   4.263  0.1325 -0.0780  0.0415
 6395W        W21526   4.138  16.799   5.645 -0.2043 -0.1763  0.1933
 6396W        W21527  13.538   5.998   2.753 -0.2986  0.1663  0.0437
 6397W        W21528  16.355  17.408  11.607 -0.0948 -0.1716 -0.2503
 6398W        W21529   2.178  15.828   2.372  0.2080 -0.2292 -0.3738
 6399W        W21530   3.772  12.468  10.770  0.1464  0.1990 -0.0812
 6400W        W21531   7.209  12.428  13.222 -0.1386 -0.0808 -0.1051
 6401W        W21532   3.938   1.513  12.558  0.0760  0.0770 -0.0421
 6402W        W21533  12.843  13.602   3.022 -0.0196  0.0021  0.0360
 6403W        W21534   5.425   4.230  11.117  0.2370  0.2062  0.3201
 6404W        W21535   9.124  11.637   4.950 -0.0371  0.1037 -0.2884
 6405W        W21536  11.782   5.413  11.427 -0.2825  0.1745  0.0870
 6406W        W21537   7.088   6.154   4.994  0.0481 -0.0465 -0.2825
 6407W        W21538   3.858   3.625  13.186 -0.0370 -0.2608  0.1903
 6408W        W21539  11.277   6.283  13.423 -0.0793 -0.1896  0.0380
 6409W        W21540   2.857   4.266   1.202 -0.2061  0.2185 -0.0216
 6410W        W21541  12.340   4.490   5.302  0.0033 -0.1214 -0.1666
 6411W        W21542   5.580   7.379   3.714  0.1797  0.3568 -0.0146
 6412W        W21543  12.165   6.280  11.769  0.4734 -0.0212 -0.2164
 6413W        W21544  14.436   9.854  13.472 -0.0893 -0.2267 -0.1077
 6414W        W21545   5.337   3.201   9.941  0.3801 -0.0417 -0.2845
 6415W        W21546  14.112   1.715  11.874 -0.1145  0.0091  0.0182
 6416W        W21547   2.802   5.297   2.885 -0.2883 -0.0676 -0.1634
 6417W        W21548   1.265  12.373  13.681  0.1192 -0.1307 -0.0875
 6418W        W21549   5.782  13.991   1.861  0.0818  0.2084  0.0037
 6419W        W21550   6.219   5.262   2.516 -0.2493  0.1697 -0.0675
 6420W        W21551  15.547  11.438   3.481  0.1580  0.0554 -0.1913
 6421W        W21552  16.161  17.543  12.463 -0.1807  0.4003 -0.0711
 6422W        W21553   4.269  18.205   5.962  0.0261  0.1838  0.1944
 6423W        W21554   5.928  10.415  12.341  0.1335 -0.0262 -0.0233
 6424W        W21555   9.187  12.276   4.173 -0.2496  0.1218 -0.4014
 6425W        W21556  13.008   0.063  15.200 -0.1718  0.0712  0.1082
 6426W        W21557   8.338   4.322   2.039  0.0490 -0.1026  0.0520
 6427W        W21558   0.849   5.485   4.810 -0.2230 -0.0789 -0.0632
 6428W        W21559   7.994   4.564   3.495 -0.1937 -0.0159 -0.0104
 6429W        W21560   7.592  12.258   6.313  0.1728  0.0220  0.0776
 6430W        W21561  10.206   4.094  10.540 -0.0311  0.1044  0.0489
 6431W        W21562  16.515   4.570   0.954  0.2420 -0.1427  0.0026
 6432W        W21563   6.281   2.546  15.982 -0.1329  0.1555  0.3265
 6433W        W21564   6.343   5.425  15.512 -0.5554 -0.0354  0.0163
 6434W        W21565   3.990  15.774  12.639  0.2604  0.0618  0.0382
 6435W        W21566   1.493   9.350  15.599  0.0855 -0.2581  0.2064
 6436W        W21567  17.965  11.710   1.013 -0.1439 -0.3474 -0.1118
 6437W        W21568   6.053   7.093  12.820  0.1738 -0.0966  0.2797
 6438W        W21569   2.647  10.855   0.796 -0.1404 -0.1707  0.1622
 6439W        W21570   4.939   1.234   2.263 -0.1479  0.1665 -0.2675
 6440W        W21571   4.177  15.772   2.238  0.2034 -0.3946 -0.1686
 6441W        W21572   2.997  17.588   0.082 -0.1993 -0.2983 -0.2164
 6442W        W21573   5.026   7.237   0.539  0.0001 -0.2423  0.2332
 6443W        W21574   5.835  12.432   3.133  0.3198  0.0443  0.1758
 6444W        W21575  13.183   1.265   4.005 -0.0063  0.1885 -0.3942
 6445W        W21576   6.037   7.338   0.324  0.0450 -0.1361 -0.0315
 6446W        W21577  15.933   7.686  14.292  0.1048 -0.1570 -0.2410
 6447W        W21578   3.037   5.778  10.014  0.1794  0.1112 -0.4097
 6448W        W21579  13.801   8.697  14.526  0.0054  0.0910  0.0746
 6449W        W21580   8.025  16.369   0.571 -0.1829  0.1548 -0.3554
 6450W        W21581   3.354  18.245   4.924 -0.0204  0.1529  0.0332
 6451W        W21582   0.798   7.730  14.327 -0.2205  0.1510 -0.2611
 6452W        W21583  14.884  12.820   2.817  0.0648  0.0829 -0.0110
 6453W        W21584  13.699  17.466  13.185  0.1714 -0.2021 -0.0894
 6454W        W21585   4.567  16.683   2.841  0.1834 -0.2129 -0.0571
 6455W        W21586   8.447  12.578   1.331  0.0601  0.0223  0.0519
 6456W        W21587   8.849   4.317  14.806  0.3093 -0.2227 -0.1155
 6457W        W21588  17.424   4.269   1.076 -0.2038 -0.2361 -0.1352
 6458W        W21589  12.897  16.263   5.003  0.1532 -0.3920  0.0564
 6459W        W21590   6.164  13.453  13.703 -0.3412 -0.4297 -0.2725
 6460W        W21591  16.274  10.042   0.663  0.1733 -0.1764  0.0996
 6461W        W21592  12.717  15.708   3.710  0.1414 -0.0704  0.2448
 6462W        W21593  11.539   3.728  12.457 -0.2134  0.1161  0.2707
 6463W        W21594   0.387  15.105   3.029  0.0328  0.0935  0.1658
 6464W        W21595   6.017  14.360   3.821 -0.1058 -0.2253 -0.1287
 6465W        W21596  18.027  12.158   0.624 -0.0813  0.2576  0.2774
 6466W        W21597  15.196  12.132  14.154 -0.1477 -0.3210 -0.0839
 6467W        W21598   5.752   6.105   2.761  0.0650 -0.0705  0.0684
 6468W        W21599  12.764  17.689  12.839 -0.0071 -0.1285  0.0425
 6469W        W21600   9.567   2.325   2.221 -0.0130 -0.1955  0.0592
 6470W        W21601   1.557   8.618   4.284  0.0951  0.2063 -0.2942
 6471W        W21602   9.293  15.150   0.199 -0.2090 -0.2478  0.1429
 6472W        W21603   0.075   3.584  15.008  0.1695 -0.1257  0.0215
 6473W        W21604  11.280  16.742  15.543  0.1451  0.0590  0.1188
 6474W        W21605   5.728   5.091   2.514 -0.0342 -0.0656 -0.3523
 6475W        W21606  11.358   6.147  16.012  0.3105  0.1255  0.2082
 6476W        W21607  10.873   4.397   4.116  0.1443  0.1170  0.1361
 6477W        W21608  11.414   8.226   3.061 -0.1658 -0.1126 -0.2934
 6478W        W21609  15.189  15.211   4.876 -0.4033  0.2747  0.0448
 6479W        W21610   8.307   1.226  13.896 -0.2390 -0.2471  0.0158
 6480W        W21611   8.289  14.995  16.009 -0.0112  0.3587  0.5341
 6481W        W21612  15.850   1.242   6.257 -0.0697  0.0664  0.0748
 6482W        W21613   0.376   2.992  14.545  0.3341  0.1689  0.2719
 6483W        W21614  12.014  16.686   3.067  0.0042  0.0355 -0.1999
 6484W        W21615  15.395   0.306   1.132  0.0168  0.0994 -0.0588
 6485W        W21616   7.469   6.960  15.794  0.2701 -0.2615  0.2142
 6486W        W21617   3.314  17.372   0.832 -0.4086 -0.3279 -0.4490
 6487W        W21618   3.311   2.049   1.296 -0.2113  0.0138  0.2522
 6488W        W21619   1.102   7.061  15.940  0.0396  0.1051  0.0731
 6489W        W21620  14.779   4.458   2.163 -0.2630  0.0769 -0.0374
 6490W        W21621   6.950  14.817  11.234 -0.0083  0.0571  0.0842
 6491W        W21622   0.694   7.609  11.499  0.3199 -0.3946  0.4727
 6492W        W21623   5.353  16.410  12.026 -0.0898 -0.0639  0.2435
 6493W        W21624   3.808   4.894  15.301  0.2863 -0.1254 -0.0951
 6494W        W21625   9.432   3.126   2.608 -0.1082 -0.1553  0.2275
 6495W        W21626  12.415   5.420   5.292  0.0657  0.1104 -0.0830
 6496W        W21627  14.296   8.482  11.899 -0.0674  0.0387 -0.0027
 6497W        W21628   6.366  15.886   2.415  0.1379 -0.1598 -0.3549
 6498W        W21629  12.683  15.917  15.913  0.1332 -0.0277 -0.3401
 6499W        W21630   5.326   9.978  11.547  0.3161  0.0545  0.1139
 6500W        W21631  15.587   6.917   1.154  0.0621 -0.0391 -0.2101
 6501W        W21632  12.222   8.250  13.981 -0.0982 -0.0580  0.0547
 6502W        W21633   9.008   7.415   4.544 -0.2570  0.0966 -0.0521
 6503W        W21634  17.760  12.444   1.992  0.2592  0.1715 -0.0325
 6504W        W21635  15.536   4.719  14.587  0.0626  0.1955 -0.2401
 6505W        W21636   7.303  16.740   6.124 -0.4268 -0.1245 -0.1769
 6506W        W21637  15.272  15.941   1.761  0.0136 -0.0635  0.2103
 6507W        W21638   5.573  15.570  11.480  0.0164  0.1348  0.0662
 6508W        W21639  12.111   5.848   1.538 -0.2148 -0.3395  0.3007
 6509W        W21640  11.166  15.232  13.928  0.0655 -0.2698 -0.1448
 6510W        W21641  15.369   6.707  11.167 -0.0474 -0.2586 -0.1215
 6511W        W21642  12.059  10.218  11.098  0.1547  0.3477 -0.2651
 6512W        W21643  11.563   9.101  13.943  0.0781 -0.1878  0.0843
 6513W        W21644  16.039   7.945   0.374  0.1957 -0.0812 -0.1421
 6514W        W21645  15.433   8.147   1.041 -0.1124  0.2145  0.2151
 6515W        W21646  16.179  16.517   5.134  0.2933 -0.0593  0.0749
 6516W        W21647  16.763  11.816   0.772  0.1431  0.0791 -0.0906
 6517W        W21648  11.596  17.166   3.158 -0.1385  0.2041  0.1757
 6518W        W21649  13.803  17.978   4.430  0.0538  0.2020 -0.0409
 6519W        W21650   5.806  18.313   5.708  0.0427  0.1703  0.1539
 6520W        W21651  11.652  15.837  15.746  0.4561 -0.0682 -0.1162
 6521W        W21652   6.174  18.142  10.881  0.3663 -0.0316 -0.0355
 6522W        W21653   8.274  16.231   0.182 -0.0508 -0.3470  0.0427
 6523W        W21654   5.900   7.563   4.062 -0.0459 -0.0593 -0.1622
 6524W        W21655   5.498   4.159  14.813  0.2281 -0.0134 -0.1265
 6525W        W21656  11.881  11.953   2.345  0.3133 -0.0199 -0.0541
 6526W        W21657   0.809   7.668   3.003 -0.0585 -0.2049  0.0946
 6527W        W21658  17.239  15.965   3.376 -0.1102  0.1624 -0.0929
 6528W        W21659  11.094  16.916   0.921  0.1186 -0.1134  0.3440
 6529W        W21660   9.992   6.596  11.957 -0.1209 -0.0387 -0.4568
 6530W        W21661  14.149  17.978  14.356  0.0737 -0.4796 -0.2380
 6531W        W21662  17.231  13.111   0.482  0.2462 -0.2031  0.0767
 6532W        W21663  16.688   2.450  13.738 -0.1938  0.1355 -0.2652
 6533W        W21664   2.603  18.257   1.036 -0.1897 -0.3942  0.1932
 6534W        W21665  12.001   9.611   2.400  0.1248  0.0877  0.0230
 6535W        W21666   6.949  12.171  10.930 -0.1533 -0.0245  0.2887
 6536W        W21667  16.933  16.644   1.011  0.0348  0.0446  0.2009
 6537W        W21668  12.046   7.831   3.187 -0.0598 -0.3228 -0.1949
 6538W        W21669   0.884  14.830  13.281  0.0159 -0.1068  0.1817
 6539W        W21670  14.795   7.149  13.286  0.0372 -0.3044  0.0325
 6540W        W21671   6.373  10.162  10.821  0.2495 -0.1220 -0.0303
 6541W        W21672  16.145  12.405  14.890  0.1230 -0.0568  0.0421
 6542W        W21673  18.291  13.459  11.654  0.1713 -0.3165 -0.0001
 6543W        W21674   9.783   8.314  13.768  0.1493  0.1719 -0.2021
 6544W        W21675  11.144  16.780  10.206  0.3022 -0.0555  0.1715
 6545W        W21676   3.868   9.132  14.589  0.0429  0.0893  0.3459
 6546W        W21677  12.278   4.923  13.293  0.2126 -0.2788  0.1605
 6547W        W21678  15.782   1.760  12.758 -0.1642  0.1655 -0.0535
 6548W        W21679  17.764  11.850  16.062 -0.0901  0.0044 -0.1076
 6549W        W21680  18.323   2.113   4.137 -0.0331  0.2175  0.0002
 6550W        W21681  13.539  14.352  11.023 -0.1957 -0.0158 -0.0092
 6551W        W21682  11.204   1.469   0.674  0.2366  0.1144  0.1008
 6552W        W21683   7.658   1.983  11.112 -0.1853 -0.0918 -0.0415
 6553W        W21684   4.879  16.431   0.194  0.2061  0.0331  0.2358
 6554W        W21685   2.743   3.159   0.743  0.3366  0.1470  0.2162
 6555W        W21686  15.228  11.910  10.593  0.1013  0.4060  0.0473
 6556W        W21687   5.555   5.919  15.513  0.0728  0.1621 -0.0423
 6557W        W21688   0.689   5.459  12.456  0.1118  0.0406 -0.0064
 6558W        W21689  14.403   3.068   5.818  0.3268 -0.0966  0.4951
 6559W        W21690   9.323   7.916   0.089 -0.0848  0.1577 -0.1499
 6560W        W21691   9.016   2.546   2.201  0.0443 -0.4526 -0.1037
 6561W        W21692   8.918  12.504  14.311  0.1453  0.0552 -0.1467
 6562W        W21693  11.521   0.059   1.683 -0.2755 -0.0556 -0.0127
 6563W        W21694   3.445   1.203  12.532 -0.0468 -0.1746 -0.1519
 6564W        W21695  16.714  16.919   5.832  0.0304 -0.1202  0.0295
 6565W        W21696   6.655  12.826   4.804  0.0454 -0.0430 -0.4242
 6566W        W21697   1.281   9.936  12.842 -0.1358  0.0430  0.0564
 6567W        W21698  11.088  13.681  14.005  0.0640  0.1588 -0.0705
 6568W        W21699   8.662   2.729   1.218 -0.2444  0.0891 -0.0745
 6569W        W21700   5.920  17.623  15.005  0.1282 -0.0176  0.2396
 6570W        W21701   3.745   9.009  15.089  0.0936  0.0104  0.1200
 6571W        W21702   7.383   4.013   1.888  0.1832  0.0848 -0.0756
 6572W        W21703  11.412  12.132   5.055 -0.0572 -0.0495  0.0097
 6573W        W21704   6.400   9.087  10.795 -0.1008  0.0436  0.2212
 6574W        W21705  14.822   4.157   4.980 -0.2565 -0.0984 -0.0555
 6575W        W21706  11.123  11.617   4.136  0.0266 -0.0636 -0.2176
 6576W        W21707   7.591   6.108  13.253  0.0238 -0.3160  0.0795
 6577W        W21708  12.218   4.892   3.124  0.5447 -0.1880  0.1493
 6578W        W21709   9.518   2.550  14.899 -0.2524 -0.0781 -0.4725
 6579W        W21710   8.458   3.519  10.837 -0.1838  0.0740  0.0530
 6580W        W21711  10.349   1.751  13.140  0.4387 -0.0277 -0.1394
 6581W        W21712  14.776   3.491   3.589  0.0497  0.1098 -0.1321
 6582W        W21713   9.446   5.857   1.676 -0.1144 -0.1852 -0.0786
 6583W        W21714  10.259  14.548   4.217 -0.0969 -0.0381  0.3400
 6584W        W21715   2.247  18.240   1.301  0.1619 -0.3367 -0.1552
 6585W        W21716  15.720  13.348   3.247  0.1450  0.1860 -0.3431
 6586W        W21717   3.463  10.084  14.789  0.1281 -0.1585  0.0374
 6587W        W21718  17.362   4.648   4.860  0.0645  0.0190  0.1117
 6588W        W21719   9.126   6.795  15.840  0.0490  0.1162  0.2673
 6589W        W21720  15.089  15.610   6.044  0.0545 -0.4742 -0.0968
 6590W        W21721   8.436   3.373  11.917  0.1864 -0.1165  0.0542
 6591W        W21722  14.600   6.871  15.844 -0.2051 -0.0432  0.0475
 6592W        W21723   0.321   1.094   1.214 -0.0177 -0.1698  0.0473
 6593W        W21724   1.902   5.375  11.732 -0.2135  0.1102 -0.1784
 6594W        W21725  15.134   2.654   2.071 -0.1141 -0.2208  0.1477
 6595W        W21726   6.872  17.162  13.513  0.1565 -0.0260 -0.4045
 6596W        W21727  13.090   4.766   2.652  0.0276  0.1565  0.0744
 6597W        W21728  13.818   4.696  12.425 -0.0975 -0.0152  0.2588
 6598W        W21729   9.686   8.571   4.208 -0.0776 -0.1525  0.0614
 6599W        W21730   4.057   7.584  10.349  0.4711 -0.0319 -0.1922
 6600W        W21731  13.135   5.096   1.718 -0.1819  0.0653  0.2440
 6601W        W21732  10.557  12.677  15.832 -0.5399  0.2038  0.1358
 6602W        W21733  12.920  13.604  14.874 -0.0462  0.0483 -0.0381
 6603W        W21734   0.870  13.475   4.721 -0.3379  0.0080  0.0521
 6604W        W21735  16.787   1.859  13.215 -0.2222  0.0599 -0.3249
 6605W        W21736  12.509   9.684   5.055  0.0784  0.2156  0.0871
 6606W        W21737   6.851   6.310   1.208  0.2218 -0.1034 -0.1034
 6607W        W21738   1.253   8.258   2.453 -0.0211 -0.0327  0.1048
 6608W        W21739   9.801  15.360   4.499 -0.2700 -0.0218 -0.0345
 6609W        W21740   3.431   0.656  15.174 -0.2393 -0.0730  0.1314
 6610W        W21741   7.975   3.448  14.921 -0.1191  0.0176 -0.0302
 6611W        W21742  12.625  13.370  13.498  0.3274 -0.0481  0.3372
 6612W        W21743  14.628   9.619   5.031  0.4139  0.0592  0.2347
 6613W        W21744  15.960  12.852   1.146  0.3093  0.2337 -0.2647
 6614W        W21745  12.867  14.700  11.366 -0.1962  0.1897 -0.0573
 6615W        W21746   3.722  10.573  13.577 -0.1561 -0.1703 -0.2491
 6616W        W21747   8.205   3.032   1.904 -0.0197 -0.0703  0.0589
 6617W        W21748  14.741   2.875   2.366  0.1342  0.1774 -0.0781
 6618W        W21749   7.991  12.596   3.376  0.0553  0.2775 -0.0044
 6619W        W21750  17.719   0.212  15.199 -0.0314 -0.0845 -0.2834
 6620W        W21751   9.881   5.745  15.458  0.3085  0.0262  0.1451
 6621W        W21752   4.490  16.244  14.104  0.0672 -0.0178  0.0069
 6622W        W21753  14.219  12.681  12.494  0.1750 -0.2989 -0.0010
 6623W        W21754   8.670   2.427  11.699 -0.2715 -0.3955  0.1558
 6624W        W21755  16.915  13.699   1.247  0.0307  0.2079  0.1881
 6625W        W21756  13.267  15.353   3.188 -0.0214 -0.0630  0.0075
 6626W        W21757   2.059  11.833  15.187  0.0185 -0.2507 -0.1117
 6627W        W21758  12.229   1.612  13.537  0.0824 -0.1234 -0.0935
 6628W        W21759  14.947   3.620   0.396  0.3253 -0.1862  0.0443
 6629W        W21760   9.840  17.998  13.977 -0.2119 -0.0042  0.0799
 6630W        W21761  11.016  11.683  16.034 -0.2473 -0.1693 -0.1521
 6631W        W21762   3.228   1.206  13.662  0.1737  0.0430  0.0233
 6632W        W21763  14.490  10.762   0.507 -0.2569 -0.3611 -0.2339
 6633W        W21764   5.234   7.092   0.969  0.1589 -0.0204 -0.4549
 6634W        W21765   6.404   3.044  16.103 -0.0455  0.1330  0.1228
 6635W        W21766   4.646   5.691  10.902 -0.1362  0.1183  0.1606
 6636W        W21767   2.285  14.329  12.968 -0.0740  0.1705 -0.2292
 6637W        W21768   4.934   2.012   2.902  0.0591 -0.0451  0.0100
 6638W        W21769  18.305   2.063   4.998  0.0058 -0.2969 -0.2101
 6639W        W21770  11.290   5.760  11.527  0.0904 -0.1397  0.0319
 6640W        W21771   0.299  17.679  11.528 -0.0737 -0.0783 -0.0218
 6641W        W21772  10.787  16.148  13.437 -0.0018 -0.2674 -0.1693
 6642W        W21773   3.852   3.270   5.001 -0.5343  0.3407 -0.0464
 6643W        W21774   3.036  17.933   5.621 -0.0305  0.0125  0.1168
 6644W        W21775  12.822  15.295   4.050 -0.4285 -0.1407 -0.0742
 6645W        W21776  15.584  15.504  12.777  0.2946 -0.0794  0.0116
 6646W        W21777   6.651  16.679  11.711 -0.3901 -0.0475 -0.0186
 6647W        W21778  17.029   2.320  13.175  0.3471  0.0362 -0.0271
 6648W        W21779   6.763  11.739  15.358  0.0475  0.3634 -0.0160
 6649W        W21780  14.658   1.579   4.545 -0.1863  0.1686 -0.2707
 6650W        W21781   7.011   6.172   3.850  0.2470  0.0307 -0.1475
 6651W        W21782   3.126  12.568  14.473  0.1253  0.4474 -0.1915
 6652W        W21783   1.998   1.844  14.175  0.1566  0.2395 -0.2817
 6653W        W21784   4.758  13.608  15.073 -0.2437 -0.1750 -0.2452
 6654W        W21785   1.105  14.436   5.078 -0.0727 -0.3326  0.0514
 6655W        W21786   3.676   0.221   5.047  0.0653 -0.2009  0.1707
 6656W        W21787   6.213  14.187  11.278  0.0093 -0.1989  0.1342
 6657W        W21788  14.920   8.021  13.519 -0.3778  0.2096  0.3192
 6658W        W21789   9.875   8.540  11.762  0.0090  0.1553 -0.2288
 6659W        W21790  14.248  17.773  11.376  0.1825 -0.1911 -0.0928
 6660W        W21791   6.758   5.175   5.572  0.0659  0.2258 -0.0728
 6661W        W21792  11.524   1.785  13.298  0.0558  0.3019 -0.0967
 6662W        W21793  14.244  17.740   4.679 -0.0471  0.2426 -0.1871
 6663W        W21794  13.833   6.647   3.706 -0.1156 -0.2477  0.2177
 6664W        W21795   8.517   9.615   1.620 -0.3333  0.0057  0.0765
 6665W        W21796   6.551   9.708   3.037  0.4671  0.2955 -0.1113
 6666W        W21797   3.697  12.961   0.631  0.1507  0.0700  0.2305
 6667W        W21798  12.250   9.134   2.739  0.1797  0.0922  0.2881
 6668W        W21799   3.584   5.979   4.124 -0.2058 -0.2283  0.1314
 6669W        W21800  12.930   4.326   2.396  0.2697 -0.2145  0.0998
 6670W        W21801  17.790  14.957   0.319 -0.1218 -0.0978  0.2278
 6671W        W21802  12.468   2.717   3.996 -0.0867 -0.0001 -0.3050
 6672W        W21803   2.351   0.099   5.166 -0.0949  0.2473  0.2601
 6673W        W21804   6.540   6.354   4.629 -0.0147  0.4461  0.1162
 6674W        W21805  16.316   4.235   4.012  0.1542  0.0384 -0.0253
 6675W        W21806  13.098   1.289  12.405  0.0750 -0.1541  0.3427
 6676W        W21807   3.104  10.306   4.659 -0.1119 -0.2145 -0.0284
 6677W        W21808   6.362  11.385   4.610  0.0919  0.1554 -0.1059
 6678W        W21809   0.691  15.922   1.989  0.0957  0.0495  0.1415
 6679W        W21810   8.697   2.353   5.159  0.1057  0.1180  0.0103
 6680W        W21811  14.164   1.367   2.400 -0.0648 -0.2234 -0.2856
 6681W        W21812  10.751  13.704  15.114  0.0953 -0.1382 -0.0713
 6682W        W21813   3.553  14.953  15.953 -0.0789 -0.2966 -0.2690
 6683W        W21814  16.856   0.898  11.530 -0.1836  0.2263 -0.0523
 6684W        W21815   2.590  14.295  13.849  0.1426 -0.1222  0.1418
 6685W        W21816   7.724   2.461   5.753 -0.0624  0.0712 -0.2111
 6686W        W21817  10.296   1.547  12.291 -0.0592  0.2712  0.0171
 6687W        W21818   9.302  17.244  11.383  0.2710 -0.2133  0.1532
 6688W        W21819  14.857  11.053   1.676 -0.3339 -0.1986 -0.1151
 6689W        W21820   8.011   3.952  15.015  0.0550  0.0277 -0.1443
 6690W        W21821   6.921   1.635   3.646  0.0471  0.0990 -0.2384
 6691W        W21822   4.300   3.550   4.795 -0.1378  0.2400  0.0168
 6692W        W21823  11.509   8.397  14.209 -0.3210 -0.1775 -0.1839
 6693W        W21824   7.158  12.952  11.859  0.2512  0.4682  0.1711
 6694W        W21825   0.506   9.029   5.354  0.0185  0.0450  0.2701
 6695W        W21826   4.838  13.413   3.748 -0.0375  0.1394  0.0359
 6696W        W21827   4.352  10.699   1.498  0.1219 -0.1052  0.1070
 6697W        W21828  14.958  17.852   4.150  0.0268  0.2246 -0.0696
 6698W        W21829   4.286   4.126   0.221  0.0469  0.2636 -0.1423
 6699W        W21830   8.792   7.661   0.725  0.0277  0.3086  0.0610
 6700W        W21831  17.924   4.369   4.800  0.0201  0.0685  0.0668
 6701W        W21832  15.394  14.854  15.364  0.3096  0.0683  0.1594
 6702W        W21833   9.140  16.211  13.035 -0.0380 -0.1673 -0.1715
 6703W        W21834  11.159   5.557   0.598  0.2665  0.1223 -0.0654
 6704W        W21835   3.394   9.424   3.148  0.1180 -0.0111  0.1119
 6705W        W21836   7.973  12.848  15.308  0.0110  0.0048 -0.1118
 6706W        W21837  15.343   3.411   2.387 -0.1023  0.1900  0.0561
 6707W        W21838  14.373  14.891   1.270  0.0635  0.2411 -0.2027
 6708W        W21839  13.566   4.385   4.367  0.1018 -0.1468 -0.3752
 6709W        W21840  18.234   4.100   0.897  0.2817  0.0490  0.1644
 6710W        W21841   6.015   0.114  13.710  0.0116  0.1634 -0.3188
 6711W        W21842  18.024   6.745  15.367  0.3464 -0.1083  0.3284
 6712W        W21843  18.247   8.406  10.847  0.1998 -0.3034 -0.3227
 6713W        W21844  12.336  12.010   2.748  0.0680  0.0258 -0.2891
 6714W        W21845  15.096  15.731  12.737 -0.0449  0.1974 -0.2348
 6715W        W21846  13.468  11.094   2.708 -0.0361  0.0106  0.3841
 6716W        W21847   9.397   2.076  14.237 -0.1512  0.1138  0.2202
 6717W        W21848   3.132  11.342  11.765  0.3098 -0.1206 -0.0067
 6718W        W21849   1.228  12.134   0.960 -0.1088 -0.2391 -0.4911
 6719W        W21850   1.468   7.609  13.170 -0.2161 -0.0064 -0.2365
 6720W        W21851   7.021  10.782   1.756 -0.0383  0.1913 -0.2740
 6721W        W21852  16.121   9.766   1.728 -0.3008  0.1333  0.1871
 6722W        W21853   8.319   5.200  13.460  0.2736 -0.0678  0.2855
 6723W        W21854   0.279   0.404   3.583 -0.0551 -0.2830  0.1424
 6724W        W21855  17.934   7.521   1.921  0.1947 -0.1097 -0.0270
 6725W        W21856   2.594  15.412  11.997  0.3305  0.1508 -0.1544
 6726W        W21857   3.882   3.933   6.613 -0.0859 -0.0076 -0.2769
 6727W        W21858   5.142   1.081   0.076  0.2521  0.1491 -0.3960
 6728W        W21859   3.213   5.010   2.901 -0.1294 -0.1005 -0.0122
 6729W        W21860   5.144   2.822   2.962 -0.0452 -0.0919 -0.1060
 6730W        W21861   9.614  17.914   0.116  0.4443  0.0154 -0.1589
 6731W        W21862   9.228   6.172  10.882 -0.2547 -0.0873 -0.2188
 6732W        W21863  15.251   5.588  10.551  0.2739  0.0220  0.0625
 6733W        W21864  16.957  16.732  14.925 -0.0284  0.0189  0.0352
 6734W        W21865  15.627   7.230  11.296 -0.3613 -0.0535  0.0040
 6735W        W21866  10.132   9.579   2.522 -0.2615 -0.1304  0.0846
 6736W        W21867   3.254  14.195   4.468  0.4213 -0.0210 -0.0139
 6737W        W21868   4.923   9.001  12.559 -0.0074 -0.0850  0.1162
 6738W        W21869   3.201  17.559   4.642  0.0591  0.0534 -0.0107
 6739W        W21870   8.835   7.110  15.492 -0.1386  0.0156 -0.2001
 6740W        W21871   5.422  14.437  10.714 -0.0547 -0.1242  0.1579
 6741W        W21872   5.402   8.506   9.615 -0.2737 -0.2380  0.2419
 6742W        W21873  12.087   6.292   0.277 -0.0588  0.1338 -0.3483
 6743W        W21874  10.958   8.379  11.282  0.1370  0.0234  0.3453
 6744W        W21875   7.279  18.262  10.771 -0.1034 -0.1735 -0.0756
 6745W        W21876  12.642  11.337  14.170 -0.2848 -0.0546  0.0112
 6746W        W21877   8.586  14.327  15.436  0.0039 -0.1234  0.0098
 6747W        W21878   3.560   4.096   6.212 -0.0445  0.0875 -0.1580
 6748W        W21879   4.159   1.515  14.189 -0.0972 -0.0860  0.1059
 6749W        W21880  15.421   6.119   5.315 -0.0137  0.1934  0.0342
 6750W        W21881   5.218   9.791   4.491 -0.2661  0.0531 -0.1839
 6751W        W21882   5.265   5.335  13.536 -0.0146 -0.0504  0.1077
 6752W        W21883  14.716   3.319   2.495  0.1371  0.0035  0.0924
 6753W        W21884  18.189  10.687  10.944  0.1700 -0.0868  0.0884
 6754W        W21885   2.608  15.917   3.784  0.3089 -0.0163 -0.1545
 6755W        W21886  11.825  11.122  10.299  0.0665 -0.3148  0.2540
 6756W        W21887  15.570  11.475  12.642 -0.0498 -0.0345  0.1107
 6757W        W21888  18.287   9.126   3.698  0.0788 -0.0298  0.1165
 6758W        W21889   0.200   8.279  14.142  0.1451  0.1959 -0.0242
 6759W        W21890   1.741   9.765  13.630 -0.1248  0.0373 -0.1264
 6760W        W21891  15.059  15.658  15.173 -0.1552  0.0571 -0.0844
 6761W        W21892  10.199   1.240  13.005 -0.0514 -0.0923 -0.0348
 6762W        W21893   2.868  14.896   5.294 -0.2528 -0.3201  0.0602
 6763W        W21894  14.222   8.811  10.486  0.0943 -0.2240 -0.0139
 6764W        W21895   8.085  18.200   4.412  0.0158 -0.0223 -0.0024
 6765W        W21896  14.177  11.225   1.872 -0.1877 -0.3153 -0.0270
 6766W        W21897  15.216   3.050  12.775  0.0914 -0.0479  0.0565
 6767W        W21898  17.336   2.962  10.112  0.2030 -0.2987 -0.2036
 6768W        W21899  11.814  13.765  11.536  0.0445 -0.1171  0.0858
 6769W        W21900   1.957  10.949   3.922  0.3196  0.0691 -0.2706
 6770W        W21901  14.612  10.711  14.519 -0.1138  0.4490  0.0941
 6771W        W21902  18.181   2.180  15.166  0.0743  0.0530  0.3711
 6772W        W21903  16.176  11.658   1.887 -0.0651  0.2998  0.0084
 6773W        W21904  12.831  11.724  15.741  0.1687 -0.0177 -0.2297
 6774W        W21905  13.258   8.971   1.393 -0.0745 -0.2271 -0.4675
 6775W        W21906   1.111  13.868  15.360  0.1728  0.1526 -0.3051
 6776W        W21907   6.928   6.926  13.392  0.0256  0.0294 -0.0411
 6777W        W21908  13.467   0.935   5.608  0.0588 -0.1032  0.0206
 6778W        W21909   2.555  14.776  11.519 -0.2853 -0.0106  0.0112
 6779W        W21910  17.767  12.619  10.904 -0.0117 -0.0334 -0.1785
 6780W        W21911   2.792   6.914  11.155 -0.4980  0.2385  0.1384
 6781W        W21912  16.034   1.718   0.712 -0.0271 -0.0203  0.1202
 6782W        W21913  17.161   2.838   0.784  0.2486 -0.2694  0.0875
 6783W        W21914   5.876  13.330   1.091  0.3358  0.2489  0.0923
 6784W        W21915   0.096   6.962  11.655 -0.2195 -0.2704  0.0223
 6785W        W21916  11.615  17.446   0.967 -0.0186  0.0873 -0.1306
 6786W        W21917  16.014   0.735  14.604 -0.0102 -0.0720  0.1174
 6787W        W21918   7.766   1.198  13.688  0.1138 -0.1619  0.2699
 6788W        W21919  11.695  12.071   0.951  0.2208 -0.1432 -0.0124
 6789W        W21920  10.361  13.840  11.550  0.0129 -0.0114 -0.0849
 6790W        W21921   0.859   1.024   1.298  0.0601  0.0191 -0.1052
 6791W        W21922   7.166  11.684  11.094 -0.1326 -0.2758  0.2058
 6792W        W21923  14.723   9.314  15.575 -0.2514  0.3377  0.1315
 6793W        W21924   3.792   9.405   2.247  0.2327  0.1017 -0.1030
 6794W        W21925  12.791  17.233  12.685 -0.1089 -0.0451 -0.0714
 6795W        W21926  11.849   7.515  14.564  0.1857 -0.0907 -0.0130
 6796W        W21927  11.371  18.093  14.254  0.0066  0.2544  0.0082
 6797W        W21928  18.184   2.509   1.815  0.2571 -0.0368 -0.2117
 6798W        W21929   7.651   4.565  11.516  0.0507  0.0772  0.0673
 6799W        W21930  16.379   7.409   3.665  0.3111  0.2048  0.1808
 6800W        W21931   3.542  17.093  14.409 -0.3747 -0.3036 -0.2468
 6801W        W21932  12.273   8.577  11.887 -0.0152 -0.0318 -0.2103
 6802W        W21933  13.230   6.934  13.035  0.1154  0.0235  0.1281
 6803W        W21934  14.403  10.084  10.628 -0.1602 -0.2041 -0.2557
 6804W        W21935   2.428   8.080   5.026 -0.2997 -0.0377  0.0632
 6805W        W21936  13.705  15.175   2.474 -0.2566 -0.1161 -0.3561
 6806W        W21937   8.402  10.711  15.935 -0.0139  0.1851 -0.4097
 6807W        W21938   2.192   2.915   0.036 -0.0764  0.1173 -0.1633
 6808W        W21939  16.547   5.538  11.935  0.1389  0.0849 -0.1348
 6809W        W21940   0.756   3.205   0.359 -0.3421  0.0616  0.1964
 6810W        W21941   1.002  13.549   2.221 -0.1676  0.0978 -0.3161
 6811W        W21942   7.738   0.704   4.256 -0.4718  0.0544  0.1829
 6812W        W21943  14.924   5.524  14.329  0.0853  0.0760 -0.0658
 6813W        W21944   4.261   3.781  14.948  0.0478 -0.1101 -0.0053
 6814W        W21945   2.894  11.458   0.113 -0.3991 -0.1565  0.0775
 6815W        W21946   2.572   1.883   4.688  0.0119 -0.0373  0.0143
 6816W        W21947   8.315   9.797  16.052  0.0976  0.0327  0.1948
 6817W        W21948   6.785  17.605   4.319  0.1520 -0.1122  0.5430
 6818W        W21949  16.074   1.124  15.797 -0.0993  0.1982  0.1332
 6819W        W21950   8.713  12.152   3.765 -0.1674 -0.0187 -0.1081
 6820W        W21951   0.669   9.735  12.568 -0.0019  0.1467  0.0407
 6821W        W21952  13.557  14.450   0.153 -0.5125  0.1960  0.2618
 6822W        W21953   7.854   4.160   1.131 -0.2320  0.0615 -0.3930
 6823W        W21954   0.543  10.146   2.321 -0.1337  0.0977  0.0392
 6824W        W21955   8.086   9.813  15.389 -0.1698 -0.3003 -0.3405
 6825W        W21956  10.958   0.266  11.069  0.1776 -0.2040  0.2417
 6826W        W21957   5.206  11.271  13.539 -0.1242 -0.3676 -0.0830
 6827W        W21958  13.626   3.881   1.621 -0.0919  0.1631  0.1508
 6828W        W21959  10.989   3.270  14.786 -0.0980 -0.0160  0.0583
 6829W        W21960  11.498  16.153   4.914 -0.1163 -0.1498  0.1656
 6830W        W21961   8.675  10.846   4.540 -0.1221  0.0428 -0.5751
 6831W        W21962  11.804   8.050   5.260  0.1063  0.1797  0.4679
 6832W        W21963   3.707  10.561  15.956  0.1702  0.3016  0.0268
 6833W        W21964   2.370   2.948  15.280  0.1381  0.0051 -0.0764
 6834W        W21965  10.836   1.880   0.963 -0.1547  0.2120  0.0828
 6835W        W21966  15.721  13.426   1.701  0.2140  0.0190 -0.0742
 6836W        W21967  17.424  11.311  11.753  0.2292  0.2733 -0.0591
 6837W        W21968  12.411   5.379  12.184 -0.0812 -0.1527 -0.2023
 6838W        W21969  18.249   7.266  11.983 -0.2173  0.0589  0.4448
 6839W        W21970  17.195  12.494   1.241  0.1405 -0.0665 -0.0304
 6840W        W21971   8.815  15.696  14.913  0.2260  0.0567 -0.3472
 6841W        W21972   2.789   8.732  15.397  0.2063  0.1456 -0.0975
 6842W        W21973   6.072   2.216  11.627 -0.0497  0.2855  0.0714
 6843W        W21974  15.442  12.410   2.031  0.1892 -0.3155 -0.0523
 6844W        W21975  11.983   3.058  15.660 -0.0732 -0.0316 -0.5156
 6845W        W21976  10.406   8.781  10.414  0.0942  0.1191  0.0396
 6846W        W21977   1.885  10.056   1.928 -0.1557  0.1651  0.0517
 6847W        W21978  10.411   9.505  13.075  0.1550 -0.0748  0.2314
 6848W        W21979  11.989   4.303  13.936  0.1015  0.0059 -0.0956
 6849W        W21980  17.688   6.533   3.557 -0.0502  0.1305  0.0547
 6850W        W21981  11.067  16.524  12.540  0.0987  0.1040  0.1172
 6851W        W21982  16.944  11.457   3.926  0.1286  0.1099  0.2768
 6852W        W21983  12.211   4.933   1.249 -0.2341 -0.0471  0.1555
 6853W        W21984   8.174   0.369  14.816 -0.2222 -0.1238 -0.2762
 6854W        W21985   2.333   9.100   3.640 -0.1110 -0.1540 -0.2565
 6855W        W21986  11.592  16.261   0.281  0.1357 -0.1542  0.0541
 6856W        W21987  12.534   3.885   3.093  0.0640 -0.0354  0.0645
 6857W        W21988   2.970  11.988   3.850  0.0350 -0.0330 -0.2515
 6858W        W21989   0.655   2.747   0.659  0.2802 -0.2852 -0.0047
 6859W        W21990  11.498   6.005  15.360 -0.0040 -0.2940 -0.1896
 6860W        W21991  15.174   3.091   2.757 -0.2175  0.3092  0.0581
 6861W        W21992   6.034  12.131  15.460  0.0410 -0.2505  0.0458
 6862W        W21993   3.702  18.291  14.679 -0.1055  0.2594 -0.2866
 6863W        W21994  11.600   2.257   0.176  0.0700  0.3121  0.3456
 6864W        W21995  11.824  13.737   2.185  0.2846 -0.1340 -0.1052
 6865W        W21996  17.538  10.943   4.031 -0.1652 -0.0144 -0.0347
 6866W        W21997  10.778   4.584  14.427  0.1616 -0.1193  0.0989
 6867W        W21998   9.841  17.596   2.941  0.0979  0.1575 -0.4410
 6868W        W21999  13.081   8.385   1.643  0.0027  0.1908  0.1597
 6869W        W22000   7.886   7.275   0.750  0.0599  0.1217 -0.1274
 6870W        W22001  11.016   9.526   5.513  0.0923  0.0568  0.0950
 6871W        W22002  17.199   8.090  14.517 -0.1644 -0.2442  0.0509
 6872W        W22003   7.088  13.646  14.161 -0.4856  0.1226  0.2401
 6873W        W22004   5.754   5.248  15.027 -0.1267  0.1959 -0.0838
 6874W        W22005  13.335  14.803  12.821  0.0451 -0.0085  0.2403
 6875W        W22006   5.077   6.159   3.551  0.1447  0.2002 -0.0858
 6876W        W22007   0.184   5.300   1.796  0.0613  0.2029  0.0162
 6877W        W22008   9.904   8.595  15.783  0.1149 -0.0675 -0.0068
 6878W        W22009   5.824  10.249   5.154 -0.0339 -0.0325 -0.1071
 6879W        W22010   2.301   0.211  13.028 -0.0361  0.2479 -0.0710
 6880W        W22011   9.277  16.514  14.625  0.1594  0.3453  0.2828
 6881W        W22012  16.324   8.936  11.535  0.0013  0.0526  0.1491
 6882W        W22013   6.682   3.783   4.745 -0.3423  0.0710  0.4744
 6883W        W22014  12.915  11.220  10.015 -0.0617 -0.0504 -0.1055
 6884W        W22015   3.253  13.454  13.599  0.0570 -0.1038 -0.0129
 6885W        W22016  14.326  13.844  15.490 -0.0351 -0.1868 -0.4251
 6886W        W22017  16.825   4.819  13.637 -0.1216 -0.0266 -0.1107
 6887W        W22018  13.699   8.328  14.922 -0.0135 -0.1697  0.0308
 6888W        W22019  17.535   3.484   4.010 -0.3657  0.0651  0.4723
 6889W        W22020  16.989  11.589  11.018  0.1877 -0.2042  0.1175
 6890W        W22021  16.752   0.129  13.581  0.2238 -0.0580 -0.0286
 6891W        W22022   7.371   3.379  12.094 -0.3985 -0.1186  0.1568
 6892W        W22023   5.291   3.853   5.498  0.1853 -0.0871  0.0352
 6893W        W22024  13.065  15.965  12.621 -0.0745  0.0889  0.0656
 6894W        W22025  13.048   1.641  12.939  0.2142  0.0009  0.0796
 6895W        W22026  11.463  11.010  11.052 -0.2921  0.1169  0.1106
 6896W        W22027   8.939   2.327  11.300  0.1555 -0.2786 -0.0711
 6897W        W22028   3.818   6.819   4.595  0.0599 -0.0089  0.0607
 6898W        W22029   6.219  13.058   2.181 -0.0161  0.2894 -0.0814
 6899W        W22030  11.395   9.805   2.906 -0.1311 -0.2083  0.0759
 6900W        W22031  12.126  13.653  14.638  0.0618  0.0732 -0.2344
 6901W        W22032  12.332  13.735   3.711 -0.2762  0.0585 -0.4044
 6902W        W22033   7.311  10.598  12.595  0.1013 -0.0282 -0.0307
 6903W        W22034  12.736  16.767  11.941  0.1209 -0.1657 -0.3328
 6904W        W22035  18.169  10.551   0.415 -0.1418 -0.1985  0.0449
 6905W        W22036  15.989   1.524   1.805  0.0327 -0.1348  0.0755
 6906W        W22037   5.542  17.414  11.969  0.2610 -0.1950 -0.2552
 6907W        W22038  15.771  14.308   3.721 -0.3369 -0.1057 -0.3097
 6908W        W22039  16.762  16.738   0.193 -0.1588  0.2737  0.1212
 6909W        W22040  15.756   1.955  12.310  0.0884 -0.2709  0.2808
 6910W        W22041   5.814   5.674   5.820 -0.0187 -0.1411 -0.2627
 6911W        W22042  17.091   8.133  13.542  0.1145  0.0493  0.0242
 6912W        W22043   2.221  10.004   4.004  0.0657  0.0297 -0.3181
 6913W        W22044  14.180   0.765  15.998  0.0376 -0.2718  0.0811
 6914W        W22045   6.769  13.199   5.100 -0.0346  0.0191  0.3576
 6915W        W22046   3.278   2.885   4.043  0.0543  0.0086 -0.0371
 6916W        W22047  11.052  12.498   0.398  0.1380  0.0119  0.0035
 6917W        W22048   1.344   6.888  12.528  0.2731 -0.3562 -0.1580
 6918W        W22049  12.477  12.773  14.382 -0.0934 -0.0527  0.1978
 6919W        W22050   7.361  15.615   5.093  0.5013 -0.1371  0.2499
 6920W        W22051  11.559  17.971   1.936  0.0820  0.1425  0.0979
 6921W        W22052  10.124   5.951  11.151 -0.2099  0.1967 -0.0427
 6922W        W22053   6.307  14.780  14.561 -0.2408  0.0679 -0.0783
 6923W        W22054   4.402   6.850  11.535  0.3383  0.3344 -0.3458
 6924W        W22055  12.139   8.081  11.081  0.1776 -0.1001  0.2126
 6925W        W22056   4.102  13.767   0.544 -0.1204  0.0104 -0.3650
 6926W        W22057   3.048   0.644  15.940 -0.1375  0.1136 -0.0611
 6927W        W22058   6.938  15.507   0.976  0.0657  0.1991  0.0282
 6928W        W22059   9.505   3.947   4.134 -0.2022 -0.1898  0.0349
 6929W        W22060   6.179  10.419  13.768  0.3037  0.2547 -0.0890
 6930W        W22061  14.948  11.253   2.911 -0.1197 -0.1103  0.0656
 6931W        W22062  14.636  17.740  14.433  0.0879 -0.4091  0.1523
 6932W        W22063  18.097  12.073  12.811 -0.2042 -0.2053 -0.1422
 6933W        W22064   7.002  17.379  14.794  0.0444 -0.0573  0.0117
 6934W        W22065   0.575  10.463  15.305  0.3582  0.1623 -0.1566
 6935W        W22066   7.548   7.034   3.415 -0.2601  0.1343 -0.1209
 6936W        W22067  18.050  10.678   1.353  0.1892  0.2803  0.0256
 6937W        W22068   6.614   8.177  15.868  0.0518 -0.1011 -0.0654
 6938W        W22069   3.524   3.865   4.897  0.0630  0.2784  0.0833
 6939W        W22070   0.380  16.245   4.081 -0.0888  0.1774  0.3166
 6940W        W22071  16.339  14.361   5.211 -0.3820 -0.0641 -0.0476
 6941W        W22072   9.880   2.055  13.000 -0.0498  0.1188  0.1093
 6942W        W22073  15.180   9.011   3.498 -0.0299 -0.3408 -0.1145
 6943W        W22074   0.841   1.727  14.457 -0.0665 -0.0013  0.1353
 6944W        W22075  15.457   5.668  15.938 -0.0748  0.0267 -0.1189
 6945W        W22076   8.258   8.894   0.629 -0.0666 -0.0720  0.3332
 6946W        W22077   9.409   1.571  14.972  0.0136 -0.0774 -0.0389
 6947W        W22078  12.782  16.287  12.875  0.0999 -0.0886  0.0989
 6948W        W22079   8.183   7.465   2.966 -0.0941  0.0040  0.2009
 6949W        W22080   8.372   7.226  12.775  0.0030  0.0951 -0.3259
 6950W        W22081  15.306   5.917  11.341  0.2618 -0.0454  0.0288
 6951W        W22082   0.703   9.139  12.660  0.0678  0.2066 -0.3590
 6952W        W22083   5.993   4.195   4.008 -0.0693 -0.0082 -0.2012
 6953W        W22084   7.041   9.348  13.904 -0.1811 -0.3048 -0.1638
 6954W        W22085  17.290  17.104  14.059  0.2220  0.5058 -0.0148
 6955W        W22086   6.965  11.689  10.062  0.1897 -0.0724 -0.2172
 6956W        W22087  15.203   1.178   5.753 -0.0285 -0.0206 -0.2039
 6957W        W22088   5.726   4.543  15.464  0.1562 -0.1962  0.4556
 6958W        W22089  15.511  13.404  10.643 -0.2462 -0.1549  0.0683
 6959W        W22090   2.718   5.783  15.367  0.2302  0.1842  0.1434
 6960W        W22091   3.073  12.576  11.706  0.1749 -0.0194  0.3949
 6961W        W22092   4.205   6.114  15.778 -0.2832 -0.1115 -0.2418
 6962W        W22093   1.779   2.502  11.584  0.2007 -0.0045 -0.1329
 6963W        W22094  11.490  15.416  14.864  0.1364  0.2154  0.0636
 6964W        W22095  17.581  18.241  13.278 -0.2690  0.0176 -0.2410
 6965W        W22096  12.152  10.703  14.247 -0.1554  0.3323  0.3571
 6966W        W22097   1.074  10.041  16.034 -0.2994 -0.0417  0.3304
 6967W        W22098  18.297   8.851   2.020  0.1117 -0.1828  0.1374
 6968W        W22099   5.056   5.927  12.656 -0.0758  0.0064 -0.0708
 6969W        W22100  15.700   3.046   1.142  0.2768 -0.1482 -0.0203
 6970W        W22101  11.515  15.457   4.132 -0.0301  0.2574  0.2333
 6971W        W22102   8.430   2.706  14.958  0.0308  0.1844 -0.0493
 6972W        W22103   9.968  10.229  12.471 -0.0691 -0.2541  0.0994
 6973W        W22104   6.596   0.398   1.832 -0.0991  0.0216 -0.2941
 6974W        W22105   7.477   4.809   1.844 -0.0718 -0.1863  0.2987
 6975W        W22106   9.064   5.011  13.938  0.2810  0.1565 -0.0251
 6976W        W22107  11.089  16.477   1.970  0.1903 -0.1578 -0.0353
 6977W        W22108  14.211   4.071   0.513  0.2768 -0.1348  0.1547
 6978W        W22109   1.556  10.520  12.849 -0.1702  0.2507 -0.0056
 6979W        W22110   0.493  11.656   1.118 -0.1487  0.2504  0.1536
 6980W        W22111   0.900   3.031   2.599  0.3880  0.1123 -0.0342
 6981W        W22112  10.034  17.967  10.175 -0.0143  0.2073  0.0280
 6982W        W22113  14.823  14.248   2.029 -0.0030 -0.0686 -0.0471
 6983W        W22114   2.117   2.409  14.715  0.2794 -0.0946 -0.1359
 6984W        W22115   8.414  17.820  11.912 -0.1219 -0.2021  0.0086
 6985W        W22116   6.799  17.546   2.318  0.0856 -0.0033  0.1134
 6986W        W22117  14.170  13.971   5.340  0.1294  0.1809 -0.0070
 6987W        W22118   7.122   4.279  15.991 -0.0479  0.0424 -0.2950
 6988W        W22119   9.649   0.979  15.901  0.1411  0.2615 -0.2530
 6989W        W22120   4.926   9.798   0.777  0.1096  0.0500 -0.1160
 6990W        W22121  15.507   2.805  14.999 -0.1323 -0.0343 -0.0190
 6991W        W22122  15.872  10.448  15.447  0.0278  0.0910 -0.1141
 6992W        W22123   6.743   0.616   2.526  0.1633 -0.1328 -0.2263
 6993W        W22124   1.325   2.265  11.031  0.0535  0.0681  0.0996
 6994W        W22125  10.695   8.260   0.612 -0.0261  0.0292  0.0383
 6995W        W22126   9.311  14.696   3.914 -0.0422 -0.2710  0.2413
 6996W        W22127   4.224   2.260  14.102 -0.0197 -0.2739  0.1636
 6997W        W22128   2.844   7.606  11.668 -0.0220  0.1473  0.1110
 6998W        W22129  12.659  15.196  11.475  0.2350 -0.0499 -0.4432
 6999W        W22130  18.048   4.314  12.072 -0.1182 -0.0193 -0.1423
 7000W        W22131   4.452   4.219   3.504  0.1879 -0.3310  0.0151
 7001W        W22132   7.756   5.121   1.519  0.1213  0.1161 -0.1058
 7002W        W22133   5.073   7.899   3.207 -0.0580 -0.2280  0.1620
 7003W        W22134  13.253  14.432   3.016  0.1762 -0.2162  0.0502
 7004W        W22135   3.355   9.049  14.760  0.0433  0.0010 -0.1260
 7005W        W22136  10.842  15.737  14.164  0.0701 -0.2990 -0.0886
 7006W        W22137   6.936  16.893  12.762 -0.3654  0.1927 -0.1934
 7007W        W22138   1.267   2.546   4.216 -0.0713  0.3230  0.0101
 7008W        W22139  17.288  18.327  15.955 -0.2409  0.1632 -0.2110
 7009W        W22140  17.143   1.081  13.652 -0.0385  0.2339 -0.0614
 7010W        W22141  14.289   2.665   0.026 -0.2123  0.1588 -0.3650
 7011W        W22142  13.315   6.406  15.974  0.0183  0.0412 -0.0872
 7012W        W22143   4.636   0.064   2.500  0.0612 -0.1560  0.0381
 7013W        W22144   3.556   3.450   2.240  0.0339 -0.0156  0.1390
 7014W        W22145   2.828  13.178  13.642  0.2541  0.2770 -0.0023
 7015W        W22146   1.317   2.132   2.113 -0.1528 -0.0633  0.1482
 7016W        W22147  17.293  13.482  12.501 -0.2927  0.1870 -0.2207
 7017W        W22148  17.111  10.864   5.578 -0.0775  0.4060  0.1676
 7018W        W22149  10.100  15.750   4.670  0.0243  0.2090  0.0440
 7019W        W22150  18.098  17.917  13.497  0.0126  0.0101  0.3161
 7020W        W22151   7.673   2.445   0.805  0.2498  0.1289  0.0856
 7021W        W22152   5.354   7.349  15.259 -0.1983 -0.3247 -0.1741
 7022W        W22153   4.205   1.818   1.733  0.2378  0.0486  0.2335
 7023W        W22154  15.286   4.583  14.140  0.3658  0.0968 -0.0769
 7024W        W22155   7.221   7.803  15.612 -0.1231 -0.2871 -0.1334
 7025W        W22156  12.330   7.919   1.821 -0.1021  0.0625 -0.4459
 7026W        W22157  11.375  12.222   0.185 -0.0652  0.1208 -0.2557
 7027W        W22158   2.608   2.196  13.100 -0.1369 -0.2291 -0.0653
 7028W        W22159  13.493   8.534  15.337  0.1317 -0.1275  0.3178
 7029W        W22160  14.199  16.658  11.823  0.0014  0.0486  0.0469
 7030W        W22161   3.374   2.140   3.299  0.2007 -0.1420  0.2502
 7031W        W22162  15.689  12.800   5.242  0.2531 -0.0508 -0.1186
 7032W        W22163   1.796  17.806   0.133  0.0819 -0.2171 -0.4128
 7033W        W22164  14.333  11.071  13.574 -0.1328  0.1882 -0.0854
 7034W        W22165   5.543  17.499  15.770 -0.2124 -0.0092 -0.0331
 7035W        W22166   9.954   6.971  13.160  0.2375 -0.3945  0.0540
 7036W        W22167  16.789  18.303  12.557  0.1114 -0.2983  0.0206
 7037W        W22168  14.014  17.403   3.644  0.0312 -0.0445  0.0258
 7038W        W22169   1.834   3.181   3.074  0.1103  0.3309  0.2997
 7039W        W22170  11.166  13.857   0.500 -0.1343 -0.1390  0.1509
 7040W        W22171  11.346  12.582  12.410 -0.1198 -0.1217  0.1184
 7041W        W22172  17.337  12.660   5.638 -0.1078 -0.2439 -0.0414
 7042W        W22173   4.663   8.676   4.219  0.3109 -0.3477  0.1927
 7043W        W22174  12.298   3.822   2.150 -0.2062 -0.1536 -0.1255
 7044W        W22175   2.301   7.614   5.099 -0.0035  0.2086 -0.2466
 7045W        W22176  11.240  17.701  15.330 -0.0143  0.1716  0.0988
 7046W        W22177   2.690  18.136  13.180 -0.1146  0.0835  0.1235
 7047W        W22178   3.629  15.121   4.822  0.0074 -0.3470 -0.0163
 7048W        W22179  13.581   8.338   0.892  0.2564  0.0028 -0.1565
 7049W        W22180  12.349  17.238   4.756  0.0241 -0.1172  0.0774
 7050W        W22181  11.802   8.999   3.035 -0.1802  0.2365 -0.0905
 7051W        W22182  14.138  15.206   3.333  0.0213  0.3730 -0.0584
 7052W        W22183  10.545   6.675   3.980  0.0503 -0.0036  0.1361
 7053W        W22184   2.593  10.849  13.053 -0.1525  0.2303  0.2280
 7054W        W22185  16.241  16.408  11.730  0.0058 -0.1339  0.0519
 7055W        W22186  17.435   2.547  10.471  0.1088  0.1122 -0.0388
 7056W        W22187  10.018   6.928  11.048  0.1727 -0.1166 -0.0136
 7057W        W22188   9.541   0.244  11.393 -0.3032  0.3369  0.0123
 7058W        W22189   6.964  14.541   0.769 -0.1772 -0.1632  0.2754
 7059W        W22190  16.290  10.046  13.484  0.5083  0.1510  0.3060
 7060W        W22191   8.152   0.295  11.981 -0.1542  0.0577 -0.0760
 7061W        W22192   4.071   2.860   1.519  0.1618  0.2124 -0.1900
 7062W        W22193   2.242   7.435   3.480 -0.1271 -0.0821  0.0021
 7063W        W22194  11.595   4.243  14.234 -0.2405  0.2964 -0.0644
 7064W        W22195   8.143   7.365  10.727  0.0732  0.1242  0.0139
 7065W        W22196   1.183   5.645   3.468 -0.3189  0.2287  0.0210
 7066W        W22197   2.281  17.847  16.091  0.1901 -0.1400  0.0017
 7067W        W22198   8.494  10.314   2.425 -0.1025  0.0632 -0.2099
 7068W        W22199  10.299   4.600   5.614 -0.1758 -0.1017  0.0971
 7069W        W22200  15.991   0.802  11.619  0.0886  0.0839 -0.0041
 7070W        W22201  10.907   9.334  13.555 -0.0172 -0.0737 -0.0591
 7071W        W22202   8.773   5.294  14.402 -0.0990 -0.2342  0.0569
 7072W        W22203  11.080  15.739   4.298 -0.2429  0.3377 -0.0330
 7073W        W22204  10.452  14.488   3.349  0.0456 -0.1965 -0.0284
 7074W        W22205   1.500  10.272   6.230 -0.1348 -0.1263  0.1681
 7075W        W22206   4.704   4.418   0.367  0.2871 -0.0668 -0.2173
 7076W        W22207   6.017   8.397  15.363 -0.1821 -0.2893  0.1543
 7077W        W22208   6.450  18.060   2.976 -0.0867  0.2344 -0.0214
 7078W        W22209   4.403  15.358   0.186  0.1738  0.2138  0.2655
 7079W        W22210   3.980   2.432   2.221 -0.1437  0.1036 -0.0600
 7080W        W22211  12.894   8.264  14.679 -0.0999 -0.1187  0.0605
 7081W        W22212   1.256   0.910  15.105  0.0997 -0.0728  0.2447
 7082W        W22213   7.617   3.023   1.845 -0.0211 -0.0626 -0.0147
 7083W        W22214   2.957  11.669  15.490 -0.1235  0.0634 -0.3117
 7084W        W22215  11.001   5.067  13.514  0.0982  0.0629 -0.0884
 7085W        W22216   2.021  16.910   1.238 -0.0199 -0.1712 -0.1047
 7086W        W22217  14.750  14.501  14.818 -0.4182 -0.3649  0.2101
 7087W        W22218   5.253   4.009  12.435 -0.1824 -0.2208  0.0331
 7088W        W22219  12.061  13.977  11.980  0.0497 -0.2649 -0.1123
 7089W        W22220  11.575  16.909  10.710  0.1142  0.0778 -0.0581
 7090W        W22221   9.333  17.508  15.930 -0.1388  0.1351  0.0035
 7091W        W22222   6.457   8.555  13.976  0.0691  0.1304 -0.1503
 7092W        W22223  16.114   7.237  13.129  0.3449 -0.1520 -0.1166
 7093W        W22224  17.613   1.059  13.151  0.3467 -0.0176 -0.1000
 7094W        W22225  14.492  12.569   9.585  0.0102 -0.4701  0.0071
 7095W        W22226  15.977   0.439   5.327  0.0980 -0.0497 -0.2557
 7096W        W22227   3.520   0.136   4.477  0.3733 -0.0306 -0.1354
 7097W        W22228  11.316  11.880   3.709 -0.0044  0.1295  0.0658
 7098W        W22229  12.839   4.630   0.229 -0.0495 -0.1776 -0.1125
 7099W        W22230  12.611   8.364   1.761 -0.1502 -0.0674 -0.0070
 7100W        W22231  14.949   4.129   5.932 -0.0681 -0.0203 -0.0304
 7101W        W22232   0.553   4.424   4.819 -0.1720  0.0733 -0.0752
 7102W        W22233   1.506  17.749  14.937  0.1891 -0.2441  0.2714
 7103W        W22234   4.594  11.255   0.742 -0.0836  0.1907  0.4229
 7104W        W22235  12.903   7.657  10.516 -0.4582 -0.0996  0.0122
 7105W        W22236  18.055   4.471   2.635  0.0521 -0.1530 -0.0392
 7106W        W22237  13.423   2.377   3.357 -0.2689 -0.0783  0.4344
 7107W        W22238  11.239   7.948  14.113  0.1719 -0.2805  0.0067
 7108W        W22239  12.279   2.142  12.726 -0.0034 -0.1000 -0.0150
 7109W        W22240  13.283   3.690  10.903 -0.2613 -0.1055  0.2068
 7110W        W22241   5.848  14.674   0.513  0.0836 -0.3830  0.0950
 7111W        W22242   3.702  18.023  12.233  0.0878 -0.0354  0.1639
 7112W        W22243  15.596   0.816   1.591 -0.1558 -0.0792  0.0157
 7113W        W22244   7.422   5.642   3.151 -0.3532 -0.1499 -0.0592
 7114W        W22245   7.317  17.577   0.931 -0.0368 -0.0675  0.3799
 7115W        W22246   0.144   6.870   2.707  0.3772  0.0008  0.1734
 7116W        W22247   6.442   6.964   1.736  0.2517 -0.3573  0.3239
 7117W        W22248   5.012  13.634  12.522 -0.0405  0.0450  0.1539
 7118W        W22249  10.659  11.823  12.716  0.1413  0.0180  0.1900
 7119W        W22250  13.459  12.615   5.042  0.2275 -0.2649  0.3665
 7120W        W22251  13.579  12.200  12.176 -0.2204 -0.2116  0.1290
 7121W        W22252  13.884  16.936   0.808 -0.0250 -0.0253 -0.2629
 7122W        W22253   7.400  14.590  14.415 -0.0341 -0.0887 -0.3529
 7123W        W22254  11.813  13.501  11.918  0.0001  0.1973 -0.0252
 7124W        W22255  11.457   9.086   1.378  0.1904 -0.0590 -0.1828
 7125W        W22256  14.277  14.509   0.817 -0.1658  0.1033  0.2060
 7126W        W22257  17.549   6.730  15.742 -0.2780  0.4185 -0.0661
 7127W        W22258  13.665  16.212  11.874  0.1360 -0.0242  0.1026
 7128W        W22259   9.470   0.973   2.418  0.1316 -0.0618 -0.0246
 7129W        W22260   7.311   9.678   5.593 -0.0592 -0.1471 -0.1518
 7130W        W22261   9.065  11.111  12.785 -0.0428  0.3356  0.1245
 7131W        W22262  10.808  13.624   4.444 -0.2148 -0.0774 -0.0418
 7132W        W22263   7.035   6.951   5.151  0.0226  0.3932 -0.2717
 7133W        W22264   6.303  14.415   4.258  0.0988  0.2545  0.0880
 7134W        W22265  14.371  16.341  13.854  0.1438 -0.1309  0.0903
 7135W        W22266   6.792  15.375   3.315 -0.0703  0.0949 -0.0011
 7136W        W22267   2.589   5.404  12.913 -0.0617  0.1436 -0.1725
 7137W        W22268  16.177  17.445   2.361 -0.1552 -0.0044 -0.0363
 7138W        W22269   2.857   1.538  13.830  0.2601 -0.0997 -0.0143
 7139W        W22270  17.858  17.454   0.222 -0.0883  0.0027 -0.0629
 7140W        W22271   4.125   8.270   3.366  0.1661 -0.0213 -0.2406
 7141W        W22272  11.830  16.546   0.650 -0.1794 -0.1819  0.1457
 7142W        W22273   0.115  13.736   1.896  0.2651  0.2814 -0.0223
 7143W        W22274  17.634   6.412  10.350 -0.2852  0.3191  0.2083
 7144W        W22275  16.189   0.829   4.738 -0.0752 -0.0077 -0.1872
 7145W        W22276  16.201  17.029  15.759 -0.1783 -0.2572  0.0330
 7146W        W22277  15.630   4.121  13.304 -0.0218  0.2941 -0.0396
 7147W        W22278  11.120   7.700   2.232  0.2876 -0.2434  0.0917
 7148W        W22279  11.322   8.876  15.864  0.0793 -0.2273  0.1943
 7149W        W22280   4.889   8.347   3.331 -0.1410  0.3607 -0.2489
 7150W        W22281  12.421  18.308  15.608 -0.2203  0.1703  0.1007
 7151W        W22282   3.493  10.084  10.897  0.3022  0.0255  0.3257
 7152W        W22283  13.735   0.631   4.702 -0.3294 -0.2123  0.1290
 7153W        W22284   4.663   3.388   3.968 -0.2181 -0.2645 -0.2412
 7154W        W22285   5.964   4.326  14.492 -0.0211 -0.0612  0.1462
 7155W        W22286  12.478   5.680  15.285  0.1328  0.2337  0.2061
 7156W        W22287  15.826  18.193  12.622  0.0854  0.1223 -0.0126
 7157W        W22288   2.154   2.440   2.354 -0.0354  0.0071  0.3935
 7158W        W22289   1.233   7.554  14.459 -0.2570  0.2031  0.1715
 7159W        W22290  13.392   7.877  14.383  0.1928  0.0210  0.0840
 7160W        W22291  10.239  15.109   4.781  0.2618  0.1843 -0.1795
 7161W        W22292  17.852  17.653  11.010 -0.0887 -0.1707  0.3912
 7162W        W22293   7.964   2.623  15.753  0.0591  0.1284 -0.1433
 7163W        W22294  13.142  13.469   5.978  0.0313  0.7354  0.1728
 7164W        W22295   4.737   4.221   2.325 -0.0817 -0.0411 -0.1728
 7165W        W22296   6.685  13.020   2.970  0.1213  0.2137  0.2747
 7166W        W22297   6.052   0.824   3.585  0.0512 -0.2005  0.1284
 7167W        W22298  11.685  12.781  14.918  0.1299  0.2132 -0.1456
 7168W        W22299   0.548   1.374  12.266  0.0640  0.0238 -0.0503
 7169W        W22300   1.891  11.621  15.640 -0.0862  0.1743 -0.1449
 7170W        W22301  13.777   2.970   3.201 -0.3785  0.1631  0.0547
 7171W        W22302  14.320   6.525   5.753  0.1287  0.1332  0.4835
 7172W        W22303   2.824   7.713   5.151  0.1496 -0.0728  0.1142
 7173W        W22304   0.406   0.763  11.676  0.2185 -0.2819 -0.1330
 7174W        W22305  11.284  12.948  11.971 -0.1422  0.3473  0.0880
 7175W        W22306  11.035   5.142   5.724  0.2861  0.2548 -0.2266
 7176W        W22307  17.208   6.037  12.363 -0.0482 -0.3467  0.0373
 7177W        W22308   0.877   8.868  13.510 -0.0307  0.1302 -0.1945
 7178W        W22309   4.616   2.770  12.460  0.0259  0.0979 -0.2122
 7179W        W22310  16.305  11.810   5.095 -0.1770  0.0924  0.2779
 7180W        W22311  18.206   2.350   3.065 -0.1541 -0.0594 -0.1337
 7181W        W22312  14.593  10.065   4.105  0.0356 -0.1902 -0.1722
 7182W        W22313   3.659   0.005  11.814  0.0473  0.1474 -0.0247
 7183W        W22314   8.867  14.605   5.146  0.1156  0.0807 -0.0458
 7184W        W22315  14.379  15.610   3.173  0.1146  0.3658 -0.1023
 7185W        W22316  13.263   2.841  14.999  0.1722 -0.3621  0.0498
 7186W        W22317   1.421  13.059  11.239 -0.2112  0.1902 -0.1992
 7187W        W22318  15.405   0.081   3.324  0.1176  0.2072  0.0032
 7188W        W22319  11.245  15.246   4.536  0.4477  0.2096 -0.0213
 7189W        W22320   4.035   4.571   3.827 -0.2500 -0.1768 -0.1695
 7190W        W22321   7.529   3.526   1.895 -0.1045  0.1803 -0.1378
 7191W        W22322  11.662  16.704  13.771  0.1342  0.0404 -0.0692
 7192W        W22323   3.917   7.520  15.076  0.2223 -0.1488 -0.0522
 7193W        W22324  15.285  16.515  12.855 -0.0550 -0.1805  0.0619
 7194W        W22325   0.045   6.534  14.709 -0.0435  0.3563 -0.0080
 7195W        W22326  17.378   7.087  14.272 -0.0176  0.1180  0.1840
 7196W        W22327  12.057  10.140   3.673 -0.0817 -0.0153  0.1174
 7197W        W22328  11.150  12.617  13.186  0.3377  0.2062  0.0233
 7198W        W22329   6.341  16.928   4.917  0.1004 -0.0461  0.0157
 7199W        W22330  18.300   5.191  11.655 -0.1205  0.0362 -0.1030
 7200W        W22331   2.147  10.189  14.471 -0.2128 -0.0272  0.1645
 7201W        W22332  12.933  17.579  10.626  0.0933 -0.0703  0.2420
 7202W        W22333   6.670   2.041  11.193  0.2193 -0.1388 -0.0187
 7203W        W22334   2.659  11.120  11.723 -0.1935  0.0568 -0.1764
 7204W        W22335  17.935  15.258  11.532  0.4145  0.1364 -0.0846
 7205W        W22336  11.043  14.730  12.978 -0.1318 -0.0776 -0.3079
 7206W        W22337   3.068   5.159  15.899 -0.0799  0.0927 -0.1024
 7207W        W22338  12.458   3.201  13.847 -0.1719  0.0714 -0.0578
 7208W        W22339  11.787  11.064   4.083  0.1577  0.1973  0.0975
 7209W        W22340   3.757  18.016   2.516 -0.1446  0.0444 -0.1384
 7210W        W22341  14.045   6.238  15.424 -0.1271 -0.0316  0.0016
 7211W        W22342   3.958   7.204   3.410  0.0852 -0.3424  0.2786
 7212W        W22343   2.273  17.955  12.228  0.0251 -0.1309 -0.1231
 7213W        W22344  13.994  13.285   0.046  0.2470 -0.1997  0.1366
 7214W        W22345  10.897  12.005   0.315 -0.0090  0.3460 -0.2247
 7215W        W22346   0.060   9.076  16.008 -0.1762 -0.1423  0.0274
 7216W        W22347  15.255  15.730  13.638 -0.4697 -0.0293  0.0382
 7217W        W22348   7.183   5.399  15.586 -0.3767 -0.1071 -0.1055
 7218W        W22349  18.146  10.471  11.459 -0.2339 -0.1148 -0.1734
 7219W        W22350   8.014   5.111   3.368  0.1469  0.1689  0.0918
 7220W        W22351   9.243   3.943   2.903  0.0903  0.2499 -0.3979
 7221W        W22352  17.490   2.535  12.233  0.0984 -0.2409  0.2092
 7222W        W22353  14.423   1.620   2.836  0.1627  0.2597 -0.1082
 7223W        W22354  17.469   7.461   0.747  0.1863  0.3221 -0.3418
 7224W        W22355   0.772   2.673   4.026 -0.0466  0.2413  0.3467
 7225W        W22356  13.327  13.959   0.384 -0.0640  0.2804  0.0466
 7226W        W22357  17.839   2.351  10.713  0.0610 -0.2568 -0.1586
 7227W        W22358  15.083   7.475   1.610 -0.1372  0.0921  0.0415
 7228W        W22359   1.181  10.855   1.663 -0.6793 -0.1494  0.0267
 7229W        W22360   8.887   8.119  14.086  0.1407 -0.1695 -0.1432
 7230W        W22361   4.989   5.522   3.749  0.4021  0.1205  0.1060
 7231W        W22362  10.148  10.917   4.243  0.2023 -0.0238  0.0825
 7232W        W22363   4.154   9.210  11.773 -0.0694 -0.3369 -0.1209
 7233W        W22364   7.707  13.683   3.793  0.2840 -0.0002 -0.3629
 7234W        W22365  16.288  11.891  10.253  0.0016 -0.1438  0.0849
 7235W        W22366   5.623  10.792  14.908 -0.0253  0.1752 -0.2298
 7236W        W22367  15.489   8.107  15.102 -0.0498  0.2582 -0.0565
 7237W        W22368  15.960  17.033  11.786 -0.1420 -0.2016 -0.0548
 7238W        W22369   2.413  10.361  12.699 -0.1732 -0.0862  0.4737
 7239W        W22370   5.756  13.479   3.047 -0.1058  0.1685  0.2378
 7240W        W22371   6.713  12.445  13.168 -0.0092  0.0794  0.0406
 7241W        W22372   6.923  13.663   6.155 -0.1349 -0.1885 -0.0087
 7242W        W22373   1.068  10.389   5.823  0.3234 -0.0835  0.3822
 7243W        W22374   4.043  13.742  15.256 -0.0154 -0.1669 -0.3907
 7244W        W22375   2.404   1.154   5.238 -0.1165  0.2572 -0.1071
 7245W        W22376   3.570  16.135   1.569 -0.1240 -0.0690 -0.1583
 7246W        W22377  15.706   2.674  13.942 -0.1326 -0.0720  0.0107
 7247W        W22378  12.116   4.525  11.544  0.0395  0.0635 -0.0118
 7248W        W22379   0.840  12.855  14.871  0.1976  0.1206 -0.4278
 7249W        W22380  17.740  13.303   4.920 -0.0439  0.1886  0.2076
 7250W        W22381   6.203  10.725  16.066 -0.0619 -0.0011 -0.1431
 7251W        W22382   5.828   0.034   1.726  0.0540 -0.0651  0.1405
 7252W        W22383   9.422  12.100   4.991  0.2679  0.0142 -0.0886
 7253W        W22384  13.928   4.542   2.640 -0.1711  0.0337 -0.1628
 7254W        W22385   9.801   0.416   2.316  0.1101  0.1335  0.2366
 7255W        W22386   9.158   2.710   1.724  0.1498 -0.1066  0.1950
 7256W        W22387  17.960   1.669  12.438  0.2254 -0.0169  0.2267
 7257W        W22388   5.976   7.145  13.705  0.0086 -0.3818 -0.2456
 7258W        W22389   0.679  14.249   5.205  0.2362  0.0525 -0.1255
 7259W        W22390  17.201  11.940   5.194 -0.0352 -0.1789 -0.0395
 7260W        W22391  11.325   5.607  13.379  0.0921 -0.0296  0.0341
 7261W        W22392   0.025   7.310   4.405 -0.0317  0.1594  0.1772
 7262W        W22393  17.276  14.694   5.402  0.1063 -0.1206  0.0537
 7263W        W22394   0.490   6.932   0.504  0.1545  0.1455 -0.1090
 7264W        W22395  12.180   4.514   3.523  0.1851  0.0938  0.0424
 7265W        W22396  11.997  17.120   2.425 -0.0652  0.1335  0.1823
 7266W        W22397   4.098   3.118   4.225 -0.4624  0.2144  0.1078
 7267W        W22398   9.838   4.189   0.809 -0.1690  0.1794 -0.2322
 7268W        W22399   4.688  10.352  10.696 -0.2560 -0.1108 -0.0089
 7269W        W22400  17.634  11.904  15.538 -0.1171  0.0079 -0.0921
 7270W        W22401   0.234  15.249   0.573 -0.1249  0.1133 -0.0546
 7271W        W22402   5.813   8.100   4.459  0.0882 -0.1261  0.1491
 7272W        W22403   4.406   0.376  13.385  0.1950 -0.2009 -0.0293
 7273W        W22404   1.728  12.219   2.244  0.0459  0.1363 -0.3031
 7274W        W22405   1.380   7.408   4.691  0.1374  0.0041 -0.0954
 7275W        W22406   2.699   1.342   0.748  0.0742 -0.3494 -0.3158
 7276W        W22407  10.940   6.647  12.322  0.1458  0.2710  0.3473
 7277W        W22408   7.496   7.796   0.078  0.4453 -0.5016 -0.3711
 7278W        W22409   5.524  12.209   0.299  0.0104  0.2139 -0.1132
 7279W        W22410   6.321   3.121  10.052 -0.0090  0.0948  0.0195
 7280W        W22411  14.676  15.529  13.792  0.4230 -0.1711  0.0987
 7281W        W22412   6.319   8.853  13.562  0.0440  0.1164  0.0969
 7282W        W22413  10.164   6.331   4.155  0.1444 -0.0047 -0.0902
 7283W        W22414   7.251   0.132  13.156  0.1276  0.2012 -0.0096
 7284W        W22415  15.720   6.263  11.136  0.0918  0.0602 -0.0827
 7285W        W22416  17.223   6.052  14.018  0.0258 -0.1020 -0.0950
 7286W        W22417   9.417  11.047   0.832  0.1874 -0.0900 -0.1775
 7287W        W22418   7.637   6.124  10.851  0.1079 -0.2606 -0.3669
 7288W        W22419   2.863  12.545  15.898  0.0506 -0.1869  0.1577
 7289W        W22420   9.556   2.817   2.166  0.3645 -0.2251 -0.0877
 7290W        W22421  11.653   4.251  13.341  0.1299  0.0716  0.0591
 7291W        W22422   0.160   0.819   5.044  0.0270 -0.1410  0.1509
 7292W        W22423  11.188  10.569  10.804 -0.0907  0.0960 -0.3709
 7293W        W22424  13.175   1.627   2.282  0.1287  0.0255 -0.0281
 7294W        W22425  11.549   2.335  13.547 -0.0857  0.0903 -0.4338
 7295W        W22426   4.199   9.124  13.647 -0.4350  0.1906 -0.5579
 7296W        W22427  13.733   8.861   3.065 -0.0377 -0.3683 -0.2770
 7297W        W22428   9.781  16.186   3.706  0.1252  0.1320  0.0422
 7298W        W22429   5.833  10.294  10.661  0.0218 -0.1119  0.0869
 7299W        W22430   8.617  10.273  13.800 -0.1339 -0.0245  0.0695
 7300W        W22431   7.683  11.423   1.920  0.0874 -0.0563 -0.1353
 7301W        W22432  12.913   6.037  12.962 -0.1796 -0.1195  0.0156
 7302W        W22433  10.667  12.809  15.343 -0.0028 -0.0511 -0.0491
 7303W        W22434   2.824  13.290  11.260  0.1335  0.1530  0.1774
 7304W        W22435   3.726   9.659  11.053  0.0301 -0.1603  0.1101
 7305W        W22436  11.686  14.933  14.564 -0.1993  0.1598  0.3425
 7306W        W22437  13.982   5.731  11.904 -0.1283 -0.1366 -0.0790
 7307W        W22438  17.633  16.748   2.271 -0.2261  0.0470 -0.3280
 7308W        W22439   2.239   2.350   1.661 -0.0535 -0.0387  0.2942
 7309W        W22440   1.641  10.524   3.631 -0.1985 -0.2123  0.0754
 7310W        W22441  12.746  15.910   5.295  0.3652  0.0366 -0.2661
 7311W        W22442   1.389  11.457  15.704  0.0869 -0.0162 -0.0565
 7312W        W22443  15.566  12.758  14.315 -0.1390  0.2713  0.0446
 7313W        W22444   0.189  16.489  15.929 -0.2826  0.1937  0.2067
 7314W        W22445   4.031  16.041  14.252 -0.3218  0.2396  0.1912
 7315W        W22446  11.749   6.011   3.709 -0.2639 -0.0867 -0.2227
 7316W        W22447   7.080   6.741  14.671  0.1518  0.0506 -0.0878
 7317W        W22448  13.514   4.670  13.333 -0.0379 -0.0092 -0.0841
 7318W        W22449  14.430  12.742   3.989  0.0234 -0.1699  0.2020
 7319W        W22450  14.603  17.569  11.748 -0.0028  0.0092  0.2217
 7320W        W22451   8.632   2.116   9.743 -0.1469  0.0935  0.1152
 7321W        W22452  14.710  13.520  12.451 -0.1084  0.2332  0.0029
 7322W        W22453  17.254  11.756   3.013  0.2256 -0.0857  0.0479
 7323W        W22454  15.474   4.227   5.140 -0.0097 -0.0006 -0.0817
 7324W        W22455   7.270   7.552   1.976 -0.0663 -0.3471  0.1504
 7325W        W22456   4.740  17.422   4.145  0.1218  0.0962  0.0474
 7326W        W22457  12.696  14.734  13.722  0.0804  0.0660  0.0351
 7327W        W22458   8.655   9.491   0.050  0.1871  0.1060 -0.3877
 7328W        W22459   4.728   9.980   4.426  0.1927 -0.2987 -0.2690
 7329W        W22460   3.703   7.523   5.622  0.0273 -0.0782  0.2678
 7330W        W22461   9.297  17.861   0.854  0.0722  0.3094  0.0922
 7331W        W22462  12.246  17.308   1.772 -0.1339 -0.3335 -0.1678
 7332W        W22463   7.571   9.413  12.676  0.0886 -0.2950 -0.0794
 7333W        W22464   5.117  14.194   5.549 -0.0671 -0.0505  0.0521
 7334W        W22465   0.735  14.434  15.356  0.3652  0.1889 -0.0218
 7335W        W22466   3.068   6.829   1.400 -0.1238 -0.4093 -0.1084
 7336W        W22467   5.291  17.558   3.055 -0.0488 -0.2988  0.1230
 7337W        W22468  15.866  18.170  13.983  0.1891  0.1545  0.1626
 7338W        W22469  16.586   1.732   2.972  0.1303 -0.2175  0.2325
 7339W        W22470  14.381   9.712  14.836  0.2050  0.0224  0.0782
 7340W        W22471  14.306   0.605  12.066 -0.0826  0.2622  0.1032
 7341W        W22472   5.290   8.860  14.445  0.0022  0.1030 -0.2388
 7342W        W22473  12.210  11.160   4.660  0.2469  0.3001 -0.0696
 7343W        W22474  11.009   1.049   3.200  0.0932  0.0572 -0.1594
 7344W        W22475  13.198   9.176   2.355  0.1613 -0.1644 -0.0452
 7345W        W22476  13.465   0.035  12.912  0.0346  0.1132  0.2096
 7346W        W22477   7.348  10.894  15.182 -0.3378 -0.0731  0.1776
 7347W        W22478  17.373  12.185  11.615 -0.1142  0.2364 -0.3393
 7348W        W22479  12.886  14.719   1.046 -0.1572  0.0287 -0.0128
 7349W        W22480   1.433   5.809  11.200  0.0791 -0.0809 -0.2720
 7350W        W22481   5.732   0.053  11.685  0.0873 -0.2975  0.2631
 7351W        W22482  10.988  13.111  12.330  0.0586  0.0417 -0.0094
 7352W        W22483  14.965  10.243   5.655 -0.1093 -0.1337 -0.2303
 7353W        W22484  14.625   5.375  14.688 -0.1461  0.1344  0.3205
 7354W        W22485   9.243  11.005  13.234  0.1413  0.2386 -0.0730
 7355W        W22486   2.406  17.544   1.798  0.3366 -0.2076  0.0064
 7356W        W22487   5.660   4.279  12.252  0.2258  0.2287  0.0362
 7357W        W22488  15.227   2.097   0.354  0.5197  0.2154  0.4545
 7358W        W22489   3.806  16.679  15.584  0.0601  0.0002  0.0310
 7359W        W22490  11.971  15.329   5.535 -0.1077  0.0734  0.1147
 7360W        W22491  12.402   7.498  15.447  0.0147 -0.0950 -0.2775
 7361W        W22492  12.179   4.003  15.498  0.0495 -0.0757 -0.0692
 7362W        W22493  14.337   1.999   5.595  0.2652 -0.0236  0.1026
 7363W        W22494   0.742  17.186   1.901  0.0464  0.1079  0.2770
 7364W        W22495  14.897   5.166   3.796  0.1950  0.0831  0.1424
 7365W        W22496   7.574  10.717   0.009  0.0298 -0.1976  0.6297
 7366W        W22497  10.780  15.622  12.103  0.2163 -0.0174 -0.0241
 7367W        W22498   8.406   2.951  13.741 -0.0785  0.3005  0.6513
 7368W        W22499  15.255   6.968  13.365  0.0719 -0.0527 -0.2544
 7369W        W22500   1.901   0.973  14.390 -0.3719 -0.0653  0.0670
 7370W        W22501   7.982   5.546   0.748 -0.2563  0.3142  0.3045
 7371W        W22502   8.883   5.549   0.424  0.2551  0.0733  0.1992
 7372W        W22503  14.343   2.120   2.926 -0.1693  0.2870 -0.0864
 7373W        W22504   9.938  10.623   0.757  0.1392 -0.0171 -0.2659
 7374W        W22505  10.918  10.252  11.067  0.0195 -0.0305  0.0111
 7375W        W22506  13.414  12.920  11.888  0.0127  0.1603  0.2891
 7376W        W22507   5.715  15.687  10.218 -0.0670 -0.3214 -0.0729
 7377W        W22508   7.126   9.002  11.650  0.0030 -0.1089  0.4059
 7378W        W22509   7.999   6.088   0.829  0.0293 -0.2415 -0.3670
 7379W        W22510   5.128  12.846  14.726  0.0629 -0.2420 -0.2242
 7380W        W22511   6.903  10.631  14.235  0.0675 -0.0739 -0.0321
 7381W        W22512   3.912  13.425  14.781  0.0324 -0.0060  0.0685
 7382W        W22513  12.848   5.403  13.026  0.0036 -0.2071  0.0652
 7383W        W22514  12.080  15.108   5.098 -0.0046  0.3594 -0.0488
 7384W        W22515   2.542   5.734  12.513 -0.2667  0.0490  0.2193
 7385W        W22516  15.584   2.345  12.989  0.1317 -0.2188  0.0416
 7386W        W22517  16.461   4.759  14.293 -0.0665 -0.0812  0.0800
 7387W        W22518   5.701  16.334   0.966 -0.5125 -0.1553  0.3183
 7388W        W22519   0.119   5.827   2.501 -0.2819 -0.0160 -0.2413
 7389W        W22520  15.794   7.974   5.075 -0.3452 -0.3761  0.0676
 7390W        W22521   3.305   0.476   2.808  0.2395 -0.1187 -0.1388
 7391W        W22522   5.158   5.909   1.737  0.2261 -0.0860  0.0317
 7392W        W22523  16.385  17.268  12.107 -0.0828 -0.1473  0.2839
 7393W        W22524  10.389  16.577  12.206  0.0552 -0.0125  0.0576
 7394W        W22525  12.548   2.274  11.767 -0.0730 -0.0456  0.0293
 7395W        W22526   4.828   0.068  10.681 -0.1786 -0.1934  0.1486
 7396W        W22527  17.036  18.133   1.596 -0.0084  0.1594  0.0729
 7397W        W22528  14.032   3.376   5.415  0.2291  0.1069  0.1299
 7398W        W22529  16.733   9.587  11.540 -0.4906  0.1964 -0.3548
 7399W        W22530   3.758   2.852  12.900  0.2201 -0.1084 -0.1460
 7400W        W22531   2.909   7.301  13.071  0.0010  0.1601  0.3881
 7401W        W22532   8.784   2.258  14.763  0.1029  0.1390  0.2604
 7402W        W22533  13.952  12.041  11.714  0.1165 -0.1079 -0.1445
 7403W        W22534   7.113  17.015   0.059  0.0286 -0.2106  0.3637
 7404W        W22535   2.112  16.690   5.720  0.1398  0.2204  0.2046
 7405W        W22536  15.247  10.949   2.566 -0.0624  0.0008 -0.2650
 7406W        W22537  16.199   6.778  16.026 -0.1188 -0.0179  0.2097
 7407W        W22538   2.491   1.314   3.984 -0.3668 -0.0141  0.0609
 7408W        W22539   1.980  16.034   2.824  0.0508 -0.1500  0.2998
 7409W        W22540   3.334   6.554  11.617 -0.3342 -0.2398  0.1870
 7410W        W22541   0.983   1.990  14.066  0.5899  0.1943  0.0572
 7411W        W22542   0.767  13.044  12.741  0.4599  0.1068  0.2620
 7412W        W22543  17.287  10.791  11.333  0.1640 -0.2860  0.1351
 7413W        W22544  11.342  15.679  13.755 -0.1745  0.3181  0.2125
 7414W        W22545   9.516   7.213   1.468  0.0347 -0.0057  0.0925
 7415W        W22546   8.159  13.829  12.998 -0.0897  0.1741 -0.2749
 7416W        W22547   1.147   2.033   3.550 -0.1504 -0.3876  0.1190
 7417W        W22548   5.520   5.539  10.668  0.0638 -0.0210 -0.0030
 7418W        W22549  17.322   2.719  15.593 -0.0828 -0.0123  0.1955
 7419W        W22550   9.085  14.759  14.438 -0.0139 -0.1640 -0.3030
 7420W        W22551   0.020   0.777  13.976 -0.2981  0.0148  0.0118
 7421W        W22552  13.197  16.666   1.592 -0.1062  0.3638 -0.0424
 7422W        W22553   6.121  16.053  10.352  0.0506 -0.0216 -0.1808
 7423W        W22554  16.450   6.307  13.210 -0.0598 -0.1442  0.1827
 7424W        W22555   0.071   2.037  11.522  0.0449  0.2108 -0.3066
 7425W        W22556   9.917   0.481   5.554  0.2461  0.0585  0.3061
 7426W        W22557  15.065  16.540  12.111  0.0675 -0.1222 -0.2588
 7427W        W22558   2.416   1.426  15.606  0.0603  0.1864  0.0044
 7428W        W22559  12.614  16.548  14.107  0.0966  0.2858  0.0874
 7429W        W22560   0.069   1.468   1.504  0.4263 -0.1682  0.2083
 7430W        W22561  10.620   9.374  11.137 -0.0993  0.2243  0.2687
 7431W        W22562   1.777  15.757  15.243 -0.1311 -0.0911 -0.1870
 7432W        W22563  17.523  16.413   3.247  0.1398  0.0984  0.2583
 7433W        W22564   1.727  17.121  13.993  0.0305 -0.3462  0.0228
 7434W        W22565   1.933   0.518   5.715  0.0240 -0.0300  0.2061
 7435W        W22566  11.331   2.045   2.123  0.0199 -0.3961  0.1167
 7436W        W22567  11.831  14.309  14.089 -0.4170 -0.1973 -0.0667
 7437W        W22568  11.846  16.462   5.023 -0.2217 -0.0732  0.0016
 7438W        W22569   6.183   9.521   0.664 -0.0673 -0.1934 -0.0078
 7439W        W22570   2.990  17.838   0.593  0.0046 -0.0663 -0.0114
 7440W        W22571  13.808   9.486  11.736 -0.0838 -0.0237  0.1240
 7441W        W22572   7.778   5.440  11.417 -0.2677 -0.0234 -0.0007
 7442W        W22573  18.170  10.614   4.712 -0.1397 -0.1473 -0.0540
 7443W        W22574   1.585   3.201  14.104  0.0187  0.1412  0.0837
 7444W        W22575   4.762  15.910  14.343  0.0484 -0.1663  0.4669
 7445W        W22576  10.641   5.274   5.434 -0.2889 -0.1303  0.0992
 7446W        W22577   9.374  14.562   2.704  0.1568 -0.0700  0.1752
 7447W        W22578   4.413   5.039   4.903 -0.2714 -0.0561  0.1945
 7448W        W22579   3.973   2.803   5.786  0.0803  0.0462 -0.1943
 7449W        W22580  10.045  17.710  14.316 -0.1272 -0.2525  0.1049
 7450W        W22581   6.908  12.046   3.195  0.1951 -0.0706  0.1251
 7451W        W22582   8.299   6.348  14.464  0.2140  0.0415  0.1933
 7452W        W22583   9.615  11.981   1.682 -0.4148  0.2919  0.0059
 7453W        W22584   1.944   9.608   0.904  0.0592 -0.1630  0.1495
 7454W        W22585   8.935   7.331  14.548 -0.1680 -0.0911 -0.1772
 7455W        W22586   1.091  11.340  13.101  0.0940  0.0476  0.2198
 7456W        W22587   2.760   8.364  14.120  0.0616  0.0930 -0.2907
 7457W        W22588  13.938   5.876  12.946  0.1363  0.4812 -0.4863
 7458W        W22589   6.429  14.467   2.323 -0.1817 -0.1791 -0.3026
 7459W        W22590   8.209  17.247  15.438  0.1701 -0.0458  0.1772
 7460W        W22591  14.209  17.815  15.533  0.4091  0.1365  0.0982
 7461W        W22592   2.782   6.308  15.119 -0.0279  0.1757  0.0772
 7462W        W22593  12.642  16.482   3.180 -0.2108 -0.1604  0.0624
 7463W        W22594  10.465   6.064  16.027  0.2703 -0.1156 -0.2568
 7464W        W22595   4.562  14.755   1.427 -0.1362 -0.0018  0.0408
 7465W        W22596  18.324   7.100  14.751 -0.1666 -0.1002  0.0742
 7466W        W22597  17.980   9.749  15.777  0.2561 -0.0203 -0.1204
 7467W        W22598  12.323  16.507   9.668  0.2894  0.0127 -0.0171
 7468W        W22599  11.756   1.068   4.447  0.2506 -0.1083 -0.0124
 7469W        W22600  11.536  15.206  11.764  0.1418  0.0120  0.0597
 7470W        W22601   3.209  13.406   3.657 -0.2021 -0.2356  0.0936
 7471W        W22602   5.531  12.114   2.928  0.0840 -0.1642  0.3519
 7472W        W22603   8.589   5.466   1.286  0.3063  0.0133  0.3600
 7473W        W22604  12.236   5.751   5.618 -0.0210 -0.1460  0.0572
 7474W        W22605  17.139  13.256   4.196  0.2999 -0.0683 -0.0346
 7475W        W22606   7.161   2.311  12.489  0.3753 -0.2589  0.1908
 7476W        W22607   2.454   9.458   3.269 -0.0077 -0.0551 -0.1495
 7477W        W22608  14.091  10.959  10.651  0.0080 -0.1278 -0.2698
 7478W        W22609  11.501   9.733   0.634  0.1486  0.1670 -0.0420
 7479W        W22610   9.706   3.857  12.020  0.2384  0.0873 -0.1586
 7480W        W22611   0.376   1.431  10.549  0.1406 -0.2672 -0.0367
 7481W        W22612   0.621  11.911  13.436 -0.0617  0.0420  0.2882
 7482W        W22613  13.118   0.495  11.309  0.4582  0.0261 -0.0599
 7483W        W22614  13.454  11.677   2.049  0.0167  0.0515  0.2333
 7484W        W22615  10.743  16.272   2.256  0.4524  0.0288 -0.0457
 7485W        W22616  12.608  14.791  14.653  0.0662  0.0347  0.0881
 7486W        W22617   4.417   3.219  15.838 -0.0767  0.3385 -0.2741
 7487W        W22618   8.309  15.392   4.897 -0.2368  0.0060  0.0556
 7488W        W22619   2.717  16.251  11.365 -0.0736  0.2975 -0.2130
 7489W        W22620  15.145   9.204   1.286  0.1184  0.1781  0.2283
 7490W        W22621   2.461  14.129   5.791 -0.0314  0.0019  0.1807
 7491W        W22622   4.704  11.370   2.506 -0.0386  0.0808  0.0045
 7492W        W22623   6.236   8.627  10.959 -0.1851  0.0085 -0.1457
 7493W        W22624   6.630  17.588   2.814  0.1012 -0.2757  0.2142
 7494W        W22625  17.380   1.313  10.943  0.2849  0.0830 -0.1180
 7495W        W22626  17.469  13.003  12.632 -0.0182  0.0744 -0.1633
 7496W        W22627  12.075   2.647   0.961 -0.2319 -0.0949  0.1115
 7497W        W22628   6.572   5.148  14.554  0.0412  0.2567  0.2074
 7498W        W22629   9.902  16.662   1.664 -0.0083  0.1922  0.0360
 7499W        W22630   0.416  10.322   3.363  0.4353 -0.1252 -0.2836
 7500W        W22631  13.191   6.917   0.830  0.1287 -0.0097 -0.1550
 7501W        W22632   5.578  14.696  15.838  0.1268  0.1396  0.1763
 7502W        W22633  11.394   3.779   4.870 -0.0879  0.1124  0.1092
 7503W        W22634  11.145  11.474   4.678  0.1181 -0.1994 -0.4349
 7504W        W22635   5.035  13.038  10.402 -0.1155  0.0404 -0.0095
 7505W        W22636  10.545   4.230   2.605  0.3022  0.1351  0.0721
 7506W        W22637   8.374   7.538  11.145 -0.0213  0.1684 -0.1034
 7507W        W22638   5.132  17.041  13.435  0.2125  0.2458 -0.3612
 7508W        W22639   2.852  18.139  14.939  0.0676  0.3747  0.1448
 7509W        W22640   8.222  14.960   3.191  0.1545 -0.1571  0.2322
 7510W        W22641  14.148   3.340   1.141  0.1866  0.1748  0.1607
 7511W        W22642   8.794  12.996  11.414 -0.1513  0.5148 -0.1594
 7512W        W22643  17.887   6.282   2.423 -0.0573 -0.1711 -0.1549
 7513W        W22644  18.224  13.956   3.751 -0.0384  0.2375  0.0508
 7514W        W22645  10.572   5.637  12.206 -0.3593 -0.0029  0.1836
 7515W        W22646   1.593  13.565  13.697  0.0634 -0.0443 -0.1217
 7516W        W22647   4.129  13.416   1.997 -0.0648  0.0582  0.0739
 7517W        W22648   2.475   7.264   0.070 -0.4300  0.0445 -0.2583
 7518W        W22649  14.610   3.242  15.411  0.1926  0.2914 -0.1344
 7519W        W22650  16.755  14.205   2.044  0.0679 -0.0448  0.0449
 7520W        W22651   1.847   9.341  13.304  0.1689  0.2264 -0.0165
 7521W        W22652   0.661  11.287   2.569 -0.0335 -0.1875 -0.3604
 7522W        W22653  15.916   0.134  15.376 -0.0181 -0.1806 -0.0295
 7523W        W22654   2.795   1.422  11.398 -0.1282 -0.0609  0.1447
 7524W        W22655   8.495  13.059   5.476 -0.1239 -0.2838 -0.2445
 7525W        W22656   5.868  12.083   4.839 -0.1370 -0.2800  0.0939
 7526W        W22657   4.457   4.835   5.380 -0.0154  0.0480  0.0828
 7527W        W22658  11.529  15.236   5.336 -0.1116 -0.0934  0.0894
 7528W        W22659  10.831   0.416  14.371 -0.0694 -0.1367 -0.1378
 7529W        W22660  17.554  11.688   1.872  0.1214 -0.1496  0.0558
 7530W        W22661   7.889  16.612   6.126 -0.0737  0.2128  0.0942
 7531W        W22662   3.082   6.151  11.831  0.1348 -0.0721 -0.0381
 7532W        W22663  16.160   3.975  15.510 -0.2433  0.0643  0.3824
 7533W        W22664  12.350   2.110  11.333  0.1147  0.2529 -0.0464
 7534W        W22665  10.393   6.134  15.272  0.2831 -0.3051 -0.1041
 7535W        W22666  15.377  12.068  11.239  0.1237 -0.3405  0.4863
 7536W        W22667  18.113  12.584   5.446  0.1899  0.1364 -0.1381
 7537W        W22668   3.300  16.554  12.680  0.2029 -0.1601 -0.1604
 7538W        W22669   7.633   8.272  12.160 -0.0672 -0.1711 -0.1167
 7539W        W22670  11.317  12.150   1.669 -0.1613  0.2492 -0.0884
 7540W        W22671  18.216   9.642  15.282 -0.1823  0.3221 -0.0339
 7541W        W22672  10.667   2.598  11.256 -0.0764 -0.1945  0.4424
 7542W        W22673  14.093   5.389  13.650  0.0273  0.0535  0.2610
 7543W        W22674  15.330   7.320  13.037  0.0618 -0.0967  0.3178
 7544W        W22675  12.422   9.240   1.510  0.0233  0.0973  0.1723
 7545W        W22676   9.251  10.359  15.066 -0.0130 -0.0289  0.0650
 7546W        W22677  17.274   4.681  10.247 -0.1585 -0.2544 -0.0542
 7547W        W22678  16.044  14.677  14.734  0.1817  0.0632  0.2464
 7548W        W22679   0.037   4.015   0.132  0.1783  0.0194 -0.0003
 7549W        W22680  13.899   4.679   4.583  0.2919  0.0865 -0.1813
 7550W        W22681   1.569   1.364  15.108  0.1542 -0.0896 -0.2270
 7551W        W22682  13.151   1.597   3.594 -0.2189 -0.0305 -0.0642
 7552W        W22683   7.133  10.558  15.454  0.0084 -0.1134  0.1392
 7553W        W22684   2.926  13.501  14.878  0.0321 -0.1530 -0.0985
 7554W        W22685   8.454  12.447  10.942  0.1634 -0.0762  0.0311
 7555W        W22686   7.948   0.685   4.726 -0.0222 -0.4117  0.2018
 7556W        W22687  14.432  15.360   1.500  0.1784  0.2410  0.2974
 7557W        W22688   7.396  10.465  14.264  0.2601 -0.0263  0.1667
 7558W        W22689   8.578  16.023  14.601 -0.3042 -0.0350  0.0516
 7559W        W22690   0.636   4.861   1.052 -0.3018 -0.1081 -0.0908
 7560W        W22691   0.340  16.941   3.079  0.1985 -0.3003  0.5003
 7561W        W22692  15.989  15.867   0.015  0.3473 -0.0856 -0.1197
 7562W        W22693   3.498   6.997  11.269 -0.1642 -0.0790  0.2895
 7563W        W22694   5.671   2.083   1.939 -0.0475  0.2277  0.2369
 7564W        W22695   6.243   6.341  13.370  0.0311  0.1303  0.2064
 7565W        W22696  11.067   4.251   0.083  0.4295  0.0104  0.0733
 7566W        W22697   1.534   4.567  10.324  0.0011 -0.0084  0.1065
 7567W        W22698   3.608  17.809   4.923  0.2119  0.0758  0.0221
 7568W        W22699   2.193  17.237   3.953 -0.0238 -0.2186  0.3385
 7569W        W22700  11.992  11.514  13.074  0.0155  0.0723 -0.1913
 7570W        W22701  15.315  13.072  14.661 -0.1181  0.1184 -0.1103
 7571W        W22702   8.596  13.122   3.758  0.2180  0.1328  0.3677
 7572W        W22703   8.489  15.361  14.121  0.0335  0.0403 -0.0134
 7573W        W22704   5.198  10.484  14.282 -0.0547 -0.0223  0.3741
 7574W        W22705  14.825  16.952  13.061  0.2494  0.0423  0.1113
 7575W        W22706   2.461   6.620   2.715  0.1011 -0.1834  0.3085
 7576W        W22707  15.486   5.938   0.776  0.0896 -0.1136  0.2471
 7577W        W22708   0.824   2.943   3.605 -0.5090 -0.0367 -0.1766
 7578W        W22709   1.547   8.734  11.143 -0.1381 -0.1702  0.1289
 7579W        W22710  16.502  10.067   5.170  0.1354 -0.2891  0.3472
 7580W        W22711  16.246  17.353   3.381 -0.0487 -0.3341 -0.0879
 7581W        W22712   1.731   3.378   2.655 -0.2319 -0.0745 -0.1906
 7582W        W22713  10.461  13.979   0.302  0.0447 -0.2133  0.0815
 7583W        W22714   3.942  17.480  11.340  0.0470  0.2482 -0.0455
 7584W        W22715   2.439   4.958  14.239 -0.2156 -0.2235 -0.0456
 7585W        W22716  10.202  17.271  12.953 -0.0724  0.0968  0.1013
 7586W        W22717  16.771   4.580  12.302  0.0038  0.2608 -0.0615
 7587W        W22718   3.004  11.053   1.098 -0.0231 -0.2188 -0.3096
 7588W        W22719  13.768   1.701  13.398 -0.0607 -0.1120  0.4055
 7589W        W22720  13.976   3.790   4.175  0.0984  0.1072 -0.1178
 7590W        W22721  13.171  13.766  11.423  0.1388 -0.0262  0.1042
 7591W        W22722   3.967   9.155  13.083  0.3512  0.0078  0.1404
 7592W        W22723  12.927   6.777   3.233 -0.1608 -0.0084  0.2971
 7593W        W22724  12.457  17.319   5.246 -0.2650 -0.0557 -0.3266
 7594W        W22725   8.614   5.604  12.101  0.3112  0.2094 -0.0029
 7595W        W22726  12.181  11.499   3.235  0.0504  0.1772  0.3154
 7596W        W22727   4.824  13.300  11.433 -0.0206 -0.0979  0.0677
 7597W        W22728   5.441  17.833  14.729  0.1497 -0.1994 -0.0210
 7598W        W22729   7.696  10.647  13.042 -0.2102  0.4220  0.1764
 7599W        W22730  10.634   1.585  12.766  0.3253 -0.0835  0.4776
 7600W        W22731   5.220  10.661  11.492 -0.1384 -0.0917 -0.2156
 7601W        W22732  15.314   6.761   3.489 -0.3267 -0.0173  0.0374
 7602W        W22733  11.117  15.881  15.583  0.0497  0.3895  0.0164
 7603W        W22734   8.674  14.021   0.087 -0.1751 -0.0831  0.0323
 7604W        W22735   1.895   3.241  12.999  0.5544 -0.1281  0.1009
 7605W        W22736   2.109   4.363   4.071  0.0196 -0.0936  0.0540
 7606W        W22737   3.115  15.187  13.363  0.0728  0.1979  0.2185
 7607W        W22738   2.610   7.246   4.782 -0.1199  0.1847 -0.1769
 7608W        W22739  14.413  12.872   3.503 -0.1439  0.3653 -0.3349
 7609W        W22740   5.394   9.075   3.687  0.0274  0.0477  0.1058
 7610W        W22741  16.911  14.509  14.042  0.3849  0.3738 -0.0259
 7611W        W22742  10.110  18.270  14.328 -0.0487 -0.2248  0.0538
 7612W        W22743   9.743   0.699  15.409 -0.1435  0.0159  0.1638
 7613W        W22744  17.612   6.968  12.985  0.0116  0.0460 -0.0746
 7614W        W22745   2.668   9.953   4.290  0.1459  0.4815  0.2465
 7615W        W22746  11.752   6.610   2.504  0.0964 -0.1932 -0.4886
 7616W        W22747  12.891  10.655   2.186  0.2170  0.0694  0.3233
 7617W        W22748  16.472   2.034   4.144 -0.2709  0.0825  0.0283
 7618W        W22749   9.929   6.287   0.004 -0.0049 -0.1316  0.0832
 7619W        W22750   6.988   3.298  11.753 -0.0224  0.0615  0.1189
 7620W        W22751   0.968   9.291   1.983  0.1389 -0.0396  0.0531
 7621W        W22752   7.610  13.144  14.596 -0.1624 -0.0963  0.1136
 7622W        W22753   5.141  13.356   4.559 -0.1506  0.2432 -0.2139
 7623W        W22754  16.186  15.342   4.458  0.2656 -0.0784  0.5201
 7624W        W22755  11.466  11.441  14.563 -0.2238  0.1922 -0.1781
 7625W        W22756   1.293   1.695  12.217 -0.1524 -0.0871  0.1136
 7626W        W22757   5.425  13.001   1.015 -0.0739 -0.2140 -0.1168
 7627W        W22758  11.229   4.784   3.443 -0.0352  0.2501 -0.0331
 7628W        W22759  13.714  10.654   2.778 -0.2581  0.3152 -0.1006
 7629W        W22760   6.658  13.645   3.737 -0.0171  0.2014 -0.2159
 7630W        W22761   4.068   2.907   0.981 -0.1386  0.0937 -0.1199
 7631W        W22762  15.632   2.517   4.398 -0.1320 -0.3198 -0.2391
 7632W        W22763   4.803  14.894   2.630 -0.0216  0.1353  0.0122
 7633W        W22764   5.586   2.126   3.359 -0.2159 -0.1974 -0.2605
 7634W        W22765   9.686   5.859  15.892 -0.3012 -0.2284  0.0141
 7635W        W22766   7.654  17.303   4.967  0.0988 -0.0636 -0.0097
 7636W        W22767  14.610  11.564   3.810  0.1392 -0.0713  0.1699
 7637W        W22768  18.274   9.053   0.443  0.0584  0.0124 -0.2000
 7638W        W22769   6.861   2.937   4.173  0.0248  0.1131 -0.2593
 7639W        W22770   9.347   2.618   1.195  0.1132 -0.0786 -0.2147
 7640W        W22771  14.197   4.326  13.852 -0.3174  0.2081  0.4031
 7641W        W22772   9.134   8.877   9.912 -0.0721  0.1623 -0.0095
 7642W        W22773   0.681  15.433   3.371 -0.1019  0.0597  0.0661
 7643W        W22774   4.466   1.617   2.659 -0.0069  0.0830  0.2060
 7644W        W22775  12.180   6.639   2.195  0.1416 -0.0517  0.0790
 7645W        W22776  11.532   7.022   6.032  0.2295  0.1422  0.0024
 7646W        W22777  16.612   0.445  12.431  0.4985  0.3168 -0.0279
 7647W        W22778   6.948  16.357  14.970  0.1173 -0.2271  0.0517
 7648W        W22779   2.272   1.763   4.262  0.1265  0.1719  0.1251
 7649W        W22780   5.884   8.734   0.297 -0.1771  0.1015 -0.2578
 7650W        W22781   7.925  16.197  11.301 -0.1180 -0.1062  0.2921
 7651W        W22782   2.859   1.379   5.328  0.5046 -0.3086 -0.1863
 7652W        W22783   3.500   6.623   3.597 -0.0824  0.0797  0.1854
 7653W        W22784  13.005  12.286  12.376  0.0669 -0.2447 -0.3756
 7654W        W22785  18.297  13.509   2.962  0.0598  0.0021  0.0944
 7655W        W22786   6.369   6.500   3.161 -0.2245  0.0022 -0.1708
 7656W        W22787   4.419   1.313  15.422  0.0318 -0.1743 -0.0905
 7657W        W22788  13.159  11.681   1.141 -0.1603  0.2488  0.0317
 7658W        W22789  11.201   3.928  10.762 -0.1257 -0.0064 -0.0448
 7659W        W22790   7.638  15.672  11.344 -0.2360  0.1921  0.0618
 7660W        W22791  10.376   0.902  13.344 -0.2062 -0.2294 -0.1249
 7661W        W22792   3.966   1.795   2.713 -0.0345  0.2673  0.4018
 7662W        W22793   2.691   6.403  14.390 -0.2349 -0.3013 -0.2111
 7663W        W22794  13.820  12.471   3.003 -0.0916 -0.3752  0.1662
 7664W        W22795   7.079   2.655  15.135  0.0957  0.0062 -0.2991
 7665W        W22796  14.441   7.343   3.175 -0.0185 -0.4300  0.2458
 7666W        W22797  13.053  12.853   5.221  0.0783  0.1137  0.1225
 7667W        W22798   5.491  10.276  15.605  0.2989  0.2051  0.3960
 7668W        W22799   1.629   9.125  15.190  0.0952  0.5607  0.0238
 7669W        W22800   4.687  15.962   0.859  0.1029  0.3407  0.1364
 7670W        W22801  14.674  16.289  10.925 -0.2209 -0.1190  0.0366
 7671W        W22802  16.055   5.528  11.026  0.0064 -0.1372 -0.0229
 7672W        W22803  15.976  16.608  14.846  0.3667  0.0811  0.0726
 7673W        W22804  16.481  11.981  14.764  0.0742 -0.1650  0.2046
 7674W        W22805   2.895   4.564   5.085 -0.1318 -0.1040  0.0473
 7675W        W22806   1.736  18.015  14.370 -0.0613  0.3153 -0.1794
 7676W        W22807  15.687  14.830   0.115 -0.0209  0.0351 -0.1747
 7677W        W22808  14.622   0.139  15.529 -0.0560  0.3938  0.0097
 7678W        W22809  17.072  14.813   3.175 -0.0082  0.0419  0.1696
 7679W        W22810   9.822  17.311   1.124  0.0463  0.1265  0.1160
 7680W        W22811  11.697  10.907   3.562 -0.2178 -0.0693  0.1586
 7681W        W22812   8.518   8.333  12.051  0.2261  0.1462  0.0478
 7682W        W22813   1.864   1.356   5.308 -0.0288 -0.2996  0.0992
 7683W        W22814  14.037   8.307  12.273  0.0170 -0.0711  0.2706
 7684W        W22815   4.800  18.260   0.512  0.5195  0.2386  0.0547
 7685W        W22816   7.534  18.274   3.804  0.0730 -0.2255  0.0900
 7686W        W22817   7.555   5.255  10.756  0.0204 -0.0774 -0.3438
 7687W        W22818   6.535  17.859  12.829  0.1026  0.1239 -0.0641
 7688W        W22819   6.831   7.596  12.997  0.2082 -0.4177  0.1608
 7689W        W22820  16.495   2.561  14.737 -0.1066  0.0065  0.2489
 7690W        W22821   3.721  12.934  12.570 -0.1080 -0.2696 -0.0183
 7691W        W22822   4.490  13.045  14.001  0.0148 -0.2621  0.1245
 7692W        W22823  10.866   5.711  15.201  0.3171 -0.0917 -0.0368
 7693W        W22824   6.158  18.070   3.421 -0.0560  0.0943  0.1941
 7694W        W22825   7.597   4.597   5.133  0.1773  0.1224 -0.3133
 7695W        W22826  13.230   1.705  13.822  0.1799  0.3489  0.1146
 7696W        W22827   6.582  16.511   0.914  0.0821 -0.1446 -0.2133
 7697W        W22828  11.096  14.603  14.869  0.1355  0.0879  0.2316
 7698W        W22829  12.829   9.489  13.648  0.0852  0.3461  0.0252
 7699W        W22830   4.575   3.222   6.357 -0.1593 -0.2528  0.1406
 7700W        W22831   8.016  16.810  11.670  0.1730 -0.0247  0.0920
 7701W        W22832  13.857   6.560   1.081  0.3332 -0.0266  0.2337
 7702W        W22833  14.736   0.811   4.636 -0.1849  0.2132 -0.2723
 7703W        W22834  18.188   2.466  15.599 -0.0775  0.2232 -0.3374
 7704W        W22835   7.083   5.951   2.994  0.2625 -0.1244 -0.1080
 7705W        W22836   2.293   9.862   0.644 -0.0186  0.1560 -0.0281
 7706W        W22837   7.470   9.639  15.380 -0.0974 -0.2888 -0.1774
 7707W        W22838  11.746  16.222  14.366  0.0398 -0.1225  0.1889
 7708W        W22839  11.183   0.245   3.019 -0.1153 -0.1160 -0.0379
 7709W        W22840  11.897   7.662  15.420 -0.0646  0.0135 -0.0388
 7710W        W22841  17.979   7.996   1.665 -0.0777  0.0688  0.0108
 7711W        W22842   8.787   2.664  13.909 -0.2028 -0.0302  0.4485
 7712W        W22843  14.173  15.659   5.735 -0.0814  0.1950  0.0257
 7713W        W22844   8.051  12.521  12.911 -0.1282  0.1835  0.0579
 7714W        W22845   9.014   5.143   1.960 -0.4927 -0.0876  0.1417
 7715W        W22846  13.104   8.734   4.377  0.1303  0.1260 -0.0512
 7716W        W22847   0.427  11.362  15.261  0.1935 -0.2455  0.4275
 7717W        W22848   2.738  18.009   0.079 -0.1764 -0.1462 -0.1360
 7718W        W22849  14.694  15.031   2.566 -0.3274  0.2163 -0.2854
 7719W        W22850  14.075  10.646   2.050 -0.1705  0.2865 -0.0910
 7720W        W22851   3.787   3.816  14.534 -0.1998 -0.0768  0.1855
 7721W        W22852   9.218  14.528   0.898 -0.0238 -0.0117 -0.1483
 7722W        W22853  14.960  17.541   0.925  0.2855 -0.1502 -0.1339
 7723W        W22854  11.861  15.589   2.503  0.1704  0.0893 -0.0153
 7724W        W22855   9.982  16.213  13.867  0.1335 -0.1064 -0.0631
 7725W        W22856   5.101  17.480   1.903 -0.1069 -0.3596 -0.1337
 7726W        W22857  12.801   0.852  12.195 -0.0326  0.1406  0.0872
 7727W        W22858  10.832   0.717   4.760 -0.0281  0.0163 -0.0543
 7728W        W22859   1.216   2.123   0.551  0.2344  0.1899  0.0139
 7729W        W22860  12.514  17.571  12.378 -0.1563  0.0567  0.1163
 7730W        W22861   7.710   9.959  11.314  0.0230 -0.1514 -0.1256
 7731W        W22862  15.539  12.894   3.883  0.3162  0.0199 -0.0704
 7732W        W22863   0.984   2.209   3.993 -0.1915  0.1169  0.1754
 7733W        W22864   1.320  16.372   0.076  0.4644  0.2604  0.0842
 7734W        W22865   7.536  11.743   2.285 -0.3874 -0.1440 -0.4358
 7735W        W22866   8.362   9.873   2.099 -0.1064 -0.3034  0.1924
 7736W        W22867   5.357   5.176   3.442  0.1156 -0.3568  0.0945
 7737W        W22868   0.345   8.492   1.467 -0.0808 -0.4115  0.0738
 7738W        W22869  15.868   7.718  13.325  0.2447 -0.2500 -0.0181
 7739W        W22870  14.212   4.327   3.025 -0.1327  0.1804  0.0543
 7740W        W22871  11.024   8.323   9.915  0.3110 -0.4639 -0.1938
 7741W        W22872   2.140  10.093  12.366 -0.0441 -0.2038  0.0481
 7742W        W22873  15.862  12.929   2.995 -0.0695 -0.1391  0.1463
 7743W        W22874   2.812  17.771   3.473 -0.2300 -0.1660 -0.0740
 7744W        W22875   8.176   4.426  15.364  0.1408  0.2198  0.2107
 7745W        W22876  16.888  10.808   2.783  0.0504  0.0861  0.0936
 7746W        W22877   4.474   2.744   1.912 -0.2645  0.1932  0.0114
 7747W        W22878  15.794   6.789  11.496  0.5279  0.3282 -0.1079
 7748W        W22879  10.281  15.442   1.198 -0.0297 -0.0638  0.1712
 7749W        W22880   7.706  15.747   2.298  0.1356  0.2853 -0.0473
 7750W        W22881  15.433  10.350   0.123  0.0582  0.0341 -0.5136
 7751W        W22882   0.472  13.202   5.599  0.0286 -0.2584  0.3037
 7752W        W22883   4.438  14.849   0.317  0.0718  0.1041 -0.0551
 7753W        W22884   5.931  11.901   0.632  0.1789  0.1091 -0.0634
 7754W        W22885   1.530   1.376   2.913  0.1940 -0.1496  0.1369
 7755W        W22886  15.584   6.349  13.775 -0.0031  0.0910 -0.0693
 7756W        W22887   3.538  11.223   3.853  0.0840 -0.0742 -0.2203
 7757W        W22888  12.728   7.944  14.293 -0.1271 -0.0121  0.0809
 7758W        W22889   7.543   0.756  14.361 -0.3354 -0.3364 -0.1377
 7759W        W22890  10.836   6.184   2.232 -0.0633 -0.0823  0.0415
 7760W        W22891   6.056  14.132   1.317 -0.2113 -0.0455  0.3340
 7761W        W22892  17.789  16.586   4.194  0.0833 -0.0084 -0.0438
 7762W        W22893   6.942   8.404   2.515 -0.0375 -0.1171 -0.2442
 7763W        W22894   0.483   7.496  11.959  0.2879 -0.0260  0.1517
 7764W        W22895   1.422  11.931   3.133 -0.0055 -0.0813  0.0874
 7765W        W22896  14.204  17.063  11.059  0.0286  0.2997  0.3718
 7766W        W22897   9.447  13.760  12.918 -0.1088 -0.0194  0.0485
 7767W        W22898   0.978  12.176   9.984 -0.3874  0.1521 -0.1711
 7768W        W22899   6.758  18.211  10.802  0.0932  0.1036 -0.0794
 7769W        W22900   0.978  10.953  13.425 -0.2262  0.0246  0.2277
 7770W        W22901   4.850  17.134  12.425  0.0540  0.4631 -0.0273
 7771W        W22902   2.726  11.538   2.326 -0.2073 -0.1006 -0.2336
 7772W        W22903   7.785   1.141  13.180 -0.1711  0.1865 -0.2466
 7773W        W22904  16.748  11.909   4.267 -0.1627  0.4345  0.2699
 7774W        W22905   9.990   1.528  14.334 -0.0029 -0.1611  0.2703
 7775W        W22906   6.483  18.085   4.941  0.1539 -0.0439  0.0863
 7776W        W22907  16.034  10.293  12.675  0.0146  0.0121 -0.5277
 7777W        W22908   8.953  16.827   3.216 -0.0885  0.0786  0.1669
 7778W        W22909  10.378   4.665  12.728  0.1406  0.0676 -0.0954
 7779W        W22910   3.139   8.325  13.729 -0.1377  0.0471  0.3514
 7780W        W22911   8.697   7.830   3.670 -0.1168 -0.2056  0.1179
 7781W        W22912  17.898   5.773  11.470  0.1439  0.2610 -0.1512
 7782W        W22913   9.607   1.763   3.621  0.2462 -0.0837  0.0975
 7783W        W22914   3.910   4.808  13.870  0.0263 -0.1057  0.1201
 7784W        W22915  14.669  16.803   3.751 -0.1431 -0.1860  0.0832
 7785W        W22916   7.340   0.127   5.421 -0.0243 -0.0143  0.1997
 7786W        W22917  16.530   0.674   1.624  0.2741  0.1479 -0.0101
 7787W        W22918   2.453   3.178  14.271 -0.1542 -0.2277  0.2098
 7788W        W22919   6.879   9.213  10.595 -0.0352  0.2844  0.0662
 7789W        W22920   3.366   1.304   3.990 -0.2226  0.0611 -0.0501
 7790W        W22921  16.622  16.920   2.505 -0.0812 -0.0316 -0.0823
 7791W        W22922  10.102  12.536  15.070 -0.1504  0.3066  0.0643
 7792W        W22923   1.850   3.154  13.484 -0.3207  0.4318 -0.1426
 7793W        W22924  12.400  17.998   2.996 -0.0610  0.0033  0.4300
 7794W        W22925  13.382   8.417   2.140 -0.1789 -0.0397 -0.1119
 7795W        W22926   3.429   1.545   1.625  0.0223 -0.2961  0.0074
 7796W        W22927   1.798  12.735  15.578  0.0181 -0.0286 -0.1223
 7797W        W22928  15.291   4.404  12.169 -0.1409 -0.1055  0.0448
 7798W        W22929   3.649  12.726  14.604  0.2540  0.0691  0.0692
 7799W        W22930  16.237  12.928   2.486 -0.1499 -0.2636  0.1490
 7800W        W22931  17.349  17.474   1.019 -0.1700  0.0254  0.1323
 7801W        W22932   8.410   7.343   4.386 -0.1594  0.2642 -0.0395
 7802W        W22933  17.613   4.834   4.423  0.4162  0.1612  0.2786
 7803W        W22934  12.293   4.485   5.862 -0.1398 -0.0793  0.1740
 7804W        W22935   8.879  16.602   4.260 -0.1904  0.1498  0.3431
 7805W        W22936  10.038   7.835   5.532  0.0440 -0.3094 -0.3517
 7806W        W22937  16.952   6.712   4.789  0.4246 -0.4616 -0.0053
 7807W        W22938  10.800  18.004  15.525 -0.1076 -0.0093  0.4777
 7808W        W22939  12.918  10.422   4.832 -0.0305 -0.1219 -0.0878
 7809W        W22940   6.420   6.295   0.962 -0.1281 -0.1505  0.2889
 7810W        W22941   9.332  10.275  11.582  0.1091 -0.1257 -0.1549
 7811W        W22942   9.136   8.465   2.340  0.0748 -0.0822 -0.2421
 7812W        W22943  14.212   5.488  12.357 -0.4461  0.1293  0.0435
 7813W        W22944   1.476  16.465   3.150 -0.2090  0.3074 -0.3446
 7814W        W22945   2.874   3.599   4.807  0.2230 -0.0570  0.2528
 7815W        W22946  10.366  16.660  15.877  0.3323  0.0766  0.0442
 7816W        W22947   0.405  10.945  11.584  0.6116 -0.2819 -0.1625
 7817W        W22948  13.238   3.557   4.840  0.0816 -0.0941  0.0156
 7818W        W22949  15.104   2.050   2.673  0.0864 -0.1729 -0.0755
 7819W        W22950  10.003   0.623   3.141  0.0351  0.1205  0.5067
 7820W        W22951   9.973   3.053  11.519 -0.0788  0.0677  0.0733
 7821W        W22952  15.383   1.319  16.071  0.1910  0.0366  0.1237
 7822W        W22953   5.054  12.366   5.328 -0.3353 -0.0879 -0.2121
 7823W        W22954  12.753   4.815   5.293  0.1145  0.2090  0.2729
 7824W        W22955  15.043  14.796  11.811  0.0567  0.1462  0.2600
 7825W        W22956   4.160   9.336  15.346 -0.1431  0.1293 -0.1389
 7826W        W22957  11.665  12.593   1.582  0.0422  0.0471 -0.2017
 7827W        W22958   0.194   8.001  15.812  0.3252 -0.4432  0.1046
 7828W        W22959   3.670   1.131   2.361 -0.0432 -0.1999  0.1771
 7829W        W22960  17.486   1.190   1.024  0.3035  0.3523 -0.1749
 7830W        W22961  16.502   5.441  15.303 -0.4981  0.2719 -0.1926
 7831W        W22962   4.917  15.073   1.679 -0.2616  0.0787  0.4254
 7832W        W22963  17.142  16.501  15.752 -0.1616  0.0010 -0.1478
 7833W        W22964   0.366   6.645   1.809 -0.0823  0.2846 -0.1666
 7834W        W22965  16.599   2.226   1.943  0.2351 -0.3768 -0.1999
 7835W        W22966   7.733   6.909   1.930  0.1248  0.1885 -0.2322
 7836W        W22967   8.589  12.104   4.248  0.3622 -0.0032 -0.2900
 7837W        W22968   9.056   0.811   0.153 -0.1063 -0.0420 -0.0442
 7838W        W22969   2.587   7.384  12.588 -0.1155 -0.2536  0.0686
 7839W        W22970  10.893  16.022   1.737 -0.1184  0.0531 -0.1578
 7840W        W22971  16.402   5.351   2.598  0.1027  0.0889  0.2169
 7841W        W22972  12.613  13.308  12.360  0.0434 -0.1677 -0.1043
 7842W        W22973  11.930  15.615  14.988  0.2843  0.0189  0.3687
 7843W        W22974  10.063  10.699  14.752  0.1499  0.3664  0.2180
 7844W        W22975  16.542   9.195  11.938  0.3736  0.1544 -0.3705
 7845W        W22976  14.465   9.545  14.381  0.1472 -0.3465  0.2183
 7846W        W22977   2.520  13.464  13.334  0.0537 -0.2462 -0.1276
 7847W        W22978   0.469  16.496   5.034  0.2250 -0.1180  0.2589
 7848W        W22979   0.943   8.807   5.124 -0.0143 -0.0708  0.1595
 7849W        W22980  17.817  17.398  10.555  0.3183  0.1753 -0.4497
 7850W        W22981  10.104   7.391  11.158  0.1541  0.0991 -0.1317
 7851W        W22982  18.266   4.929  15.690 -0.0363 -0.0386  0.0489
 7852W        W22983   0.047   8.519   4.556 -0.3138  0.1790  0.3475
 7853W        W22984   7.572   0.060   1.603 -0.1585  0.0741 -0.3547
 7854W        W22985   0.633  11.692  13.983  0.0163 -0.0669  0.1621
 7855W        W22986  15.203   1.802  15.946 -0.1218 -0.2688 -0.2113
 7856W        W22987  15.541  18.210  15.928 -0.2250 -0.1399 -0.0062
 7857W        W22988  11.359  12.402   1.198 -0.1905 -0.0689 -0.1445
 7858W        W22989  13.721   7.108   0.776 -0.2466 -0.1916 -0.1850
 7859W        W22990   4.838   2.440   1.700  0.2106 -0.2367 -0.3623
 7860W        W22991  16.408   4.774  11.451  0.0593  0.1145  0.0348
 7861W        W22992   8.534  17.106  14.911  0.2809 -0.4192  0.0753
 7862W        W22993  16.872  16.092   1.007  0.0401  0.1830  0.0011
 7863W        W22994  13.010  16.943  11.127 -0.1124  0.0231 -0.1628
 7864W        W22995   3.576   0.513  11.744 -0.0682 -0.4514 -0.0887
 7865W        W22996   5.488  14.511   2.468  0.0164 -0.0559 -0.2561
 7866W        W22997  12.383   0.107   2.640 -0.2176  0.3598  0.0936
 7867W        W22998   8.151  11.287   1.717 -0.2983  0.1441 -0.3303
 7868W        W22999  12.582   5.953   1.457  0.2262  0.1913  0.1811
 7869W        W23000   0.739   9.786   2.780 -0.1461  0.1077  0.1127
 7870W        W23001   4.195   7.714  13.043  0.0121  0.0532  0.1858
 7871W        W23002   1.277  18.139  15.487  0.1900  0.1633 -0.0908
 7872W        W23003  11.038   5.314   3.597 -0.2908 -0.0072  0.0768
 7873W        W23004   0.757   1.554   2.150  0.1719 -0.2553 -0.3359
 7874W        W23005  16.654   2.945   4.895 -0.0271  0.1461 -0.0935
 7875W        W23006  13.260   9.972  13.025 -0.1465 -0.1695  0.1759
 7876W        W23007   2.488  11.790   3.153  0.0890  0.0558  0.0348
 7877W        W23008   7.018  16.585  13.633  0.2716 -0.0365 -0.0703
 7878W        W23009  14.054  15.227  10.957  0.0614  0.0857  0.0704
 7879W        W23010  14.259   2.601   4.851 -0.0316  0.1434 -0.1197
 7880W        W23011   1.752   4.873   3.496  0.0702  0.2079  0.2383
 7881W        W23012  16.352   3.032  14.883  0.0525  0.2014  0.3118
 7882W        W23013  10.942   7.401   0.095 -0.1628 -0.1781 -0.4762
 7883W        W23014  14.916   5.727   2.377 -0.1434 -0.2063  0.1222
 7884W        W23015  17.297   2.212   3.350 -0.0399 -0.3110 -0.0998
 7885W        W23016   0.260  13.706  10.863  0.1521 -0.5898 -0.1409
 7886W        W23017   9.358   6.809   1.922 -0.0129 -0.1920  0.2634
 7887W        W23018   8.180   5.799  15.327 -0.0276  0.2208  0.0893
 7888W        W23019  14.754   6.585   1.213 -0.1418  0.0696  0.0124
 7889W        W23020   1.040   1.291  13.656  0.0117 -0.1311 -0.0827
 7890W        W23021   2.942   3.304  15.618  0.1726  0.0092 -0.4042
 7891W        W23022   6.013   9.234  14.269  0.0839  0.1602  0.0862
 7892W        W23023   0.440   0.449  10.333 -0.0410 -0.1401 -0.0361
 7893W        W23024   3.755  10.104  11.788  0.0467  0.0856 -0.0042
 7894W        W23025   8.157  14.187   0.527 -0.0508 -0.0858  0.0429
 7895W        W23026   1.890  14.764   4.520 -0.1581 -0.0013  0.1009
 7896W        W23027   1.649   8.208   4.547 -0.4398  0.2106 -0.0361
 7897W        W23028  14.734  12.059   0.884  0.3247  0.1526  0.2287
 7898W        W23029   4.322  18.083   4.845 -0.2134  0.0925  0.4679
 7899W        W23030  10.698   4.209   3.114 -0.4075  0.0240  0.2699
 7900W        W23031   1.954  18.224   3.752 -0.1478 -0.1862  0.3029
 7901W        W23032  17.418  13.401   1.107  0.2301  0.0544 -0.1928
 7902W        W23033  11.814   6.859  15.873 -0.0363 -0.0825 -0.2508
 7903W        W23034   3.290   2.990  12.880  0.2774 -0.0765 -0.0093
 7904W        W23035   4.989  14.545  12.310  0.0521  0.1235 -0.0043
 7905W        W23036  12.996  16.768   2.054 -0.0314 -0.1867  0.0077
 7906W        W23037  10.911   8.685  15.437 -0.1334  0.1594  0.0705
 7907W        W23038   4.822   1.829  13.403 -0.0427 -0.1185  0.1942
 7908W        W23039   7.392   5.912   1.789  0.5061 -0.0147 -0.0457
 7909W        W23040   0.813   1.745  14.921 -0.0904  0.1559 -0.2689
 7910W        W23041  10.147  12.132  10.029  0.1257 -0.0168  0.0531
 7911W        W23042   1.213  14.370  15.198 -0.3255 -0.0539  0.0530
 7912W        W23043   4.963  14.437  11.608 -0.2447  0.1499  0.0548
 7913W        W23044  13.718  11.561  14.697  0.1795  0.3386 -0.3901
 7914W        W23045  18.233   9.505   5.938  0.0113  0.1606 -0.0699
 7915W        W23046   4.630   7.293   4.600 -0.2940  0.0245  0.1275
 7916W        W23047   7.781  11.733   5.970  0.0493 -0.0415  0.1255
 7917W        W23048  17.394   0.628  11.483  0.0844  0.1037 -0.3234
 7918W        W23049  12.754  14.703   3.241  0.4269  0.1012  0.0178
 7919W        W23050  15.954  16.960   5.352 -0.0931  0.0759  0.2321
 7920W        W23051  11.780   2.202   1.705  0.0898  0.3336  0.2854
 7921W        W23052  13.213   2.013   4.426  0.0464  0.1425  0.2665
 7922W        W23053   4.755   0.181  14.317 -0.1642 -0.1373 -0.0176
 7923W        W23054  12.286  16.086   9.952  0.0657  0.1185  0.1482
 7924W        W23055   1.963  16.095  10.046 -0.2568  0.2365 -0.0959
 7925W        W23056  18.107  16.116  15.040 -0.1672 -0.0254  0.0938
 7926W        W23057   4.123   6.163  15.262  0.0708 -0.1135 -0.1110
 7927W        W23058   0.114  11.691  12.708 -0.1057  0.0180  0.2243
 7928W        W23059   3.428  11.822   5.647  0.1710  0.1222 -0.0815
 7929W        W23060  13.544   6.123  14.635  0.0877  0.1612 -0.3318
 7930W        W23061   6.090   2.444  15.496  0.0166 -0.0594 -0.0829
 7931W        W23062   1.971  13.478  15.831  0.1004  0.0048  0.2557
 7932W        W23063  13.245   4.196   4.675  0.1241  0.2131  0.0674
 7933W        W23064   3.288  13.116  11.341 -0.0407 -0.0605 -0.0917
 7934W        W23065  17.686   2.881  12.575 -0.2003  0.2543 -0.0915
 7935W        W23066   2.507   5.745   4.504 -0.0644 -0.3009 -0.2214
 7936W        W23067   6.145   9.049  15.014  0.0188  0.1653  0.0159
 7937W        W23068   1.950  12.403   3.173  0.4054 -0.1557 -0.1944
 7938W        W23069   4.064   2.210  15.733 -0.2313  0.1770 -0.1752
 7939W        W23070   6.696   2.013   4.081 -0.0772 -0.1897  0.4440
 7940W        W23071   2.921   4.126   0.646 -0.1625 -0.0593 -0.1906
 7941W        W23072   6.229   8.720   1.206  0.1157  0.0417  0.1060
 7942W        W23073   6.159  14.166   3.072 -0.0282  0.3162 -0.0786
 7943W        W23074  15.934  16.962   4.806 -0.0002  0.1743  0.0362
 7944W        W23075  16.132   9.838   2.303 -0.2724 -0.3590 -0.1054
 7945W        W23076   3.980  10.959   2.998 -0.1145 -0.1334  0.0274
 7946W        W23077  12.525  14.176   0.681 -0.2579  0.0829 -0.1470
 7947W        W23078  17.380   8.942  11.024 -0.4068 -0.1997 -0.1846
 7948W        W23079  16.327   4.452  14.850  0.0512  0.2002 -0.0694
 7949W        W23080  11.949   6.958  14.765  0.1037  0.2299  0.0816
 7950W        W23081   2.094  16.951   1.760  0.0042 -0.2526 -0.1276
 7951W        W23082  11.480  15.220   3.707  0.1842 -0.2001 -0.0878
 7952W        W23083   7.531   2.034   1.129  0.1067  0.1213 -0.0241
 7953W        W23084  12.934  11.319   0.292  0.0328 -0.1123 -0.1157
 7954W        W23085  12.366   1.302  16.064  0.1040 -0.2459 -0.4090
 7955W        W23086  16.622   3.457   1.403  0.0934  0.1006 -0.1869
 7956W        W23087   9.398  10.150   3.453 -0.0357 -0.0763  0.3444
 7957W        W23088   7.409   7.294   0.857 -0.0217  0.3249 -0.2044
 7958W        W23089  13.480   3.359   1.694 -0.0093 -0.2843 -0.1129
 7959W        W23090   8.610  15.904  15.390 -0.0969  0.2302 -0.2073
 7960W        W23091   4.057  17.725  10.671  0.1319 -0.0966  0.3656
 7961W        W23092  15.783   5.642  12.384 -0.0300 -0.2095  0.1820
 7962W        W23093   9.720   4.498   1.206 -0.0018  0.2939 -0.0536
 7963W        W23094  16.863   2.316   0.795 -0.1222 -0.2587  0.2454
 7964W        W23095   0.831  13.993   2.652  0.0135 -0.0395  0.2154
 7965W        W23096  12.277   6.780  11.885 -0.1405 -0.0310  0.0580
 7966W        W23097   5.595   9.477  10.749  0.0108  0.1194 -0.1783
 7967W        W23098   4.609  16.954  13.405 -0.0527 -0.1418  0.1090
 7968W        W23099   6.861  10.297   1.661 -0.2390 -0.2799  0.0169
 7969W        W23100   8.067   4.653  10.538 -0.0529  0.1186  0.0724
 7970W        W23101  12.147   7.749   0.561 -0.0209  0.0638 -0.2186
 7971W        W23102  13.425  12.219  11.607 -0.0673 -0.0715  0.3463
 7972W        W23103   3.232  17.355  13.557 -0.1167 -0.1742 -0.0812
 7973W        W23104  15.705   2.996  12.937 -0.0170 -0.3579 -0.0349
 7974W        W23105   9.478  14.549  15.184  0.0276 -0.1413 -0.1342
 7975W        W23106   7.615   6.338   1.877 -0.2128 -0.1730  0.0610
 7976W        W23107   2.839   4.637  15.364 -0.2384  0.0479  0.0136
 7977W        W23108   3.057   4.045  14.147 -0.1798  0.1250 -0.1034
 7978W        W23109   8.516   6.796   1.669  0.1026  0.0297 -0.1712
 7979W        W23110   0.758   0.402   3.850  0.0269  0.2393 -0.2768
 7980W        W23111  14.327   1.104   4.547  0.0368  0.0689  0.0315
 7981W        W23112   9.100   7.365   1.177  0.0313  0.0273  0.1660
 7982W        W23113  13.900   1.906   0.626  0.1902 -0.1120  0.0591
 7983W        W23114   9.243  13.054  13.843  0.2889  0.0368  0.1871
 7984W        W23115   9.684   9.212   4.245 -0.2109  0.1872 -0.2905
 7985W        W23116   3.890   3.976  13.609  0.0425 -0.1052 -0.0239
 7986W        W23117   5.071  13.863   2.537  0.3212 -0.2343 -0.4297
 7987W        W23118   2.947  11.706   1.908  0.1316 -0.0314 -0.0951
 7988W        W23119  12.934   2.626  12.830  0.1176 -0.0134  0.3585
 7989W        W23120  17.153   9.762  10.674 -0.0426 -0.0341 -0.0282
 7990W        W23121   3.941  16.852  10.639 -0.3667 -0.0522 -0.2401
 7991W        W23122   9.005   6.189   0.526 -0.2613  0.2353  0.1751
 7992W        W23123  10.731   8.256  15.181  0.2256 -0.1163 -0.1486
 7993W        W23124  15.385  10.952   3.437 -0.1728  0.3150 -0.0625
 7994W        W23125  15.997   2.036  13.135  0.3666 -0.4340  0.0149
 7995W        W23126  12.411  15.975   0.784 -0.3664  0.0252  0.0693
 7996W        W23127  16.844  17.435   2.302 -0.2457  0.0198 -0.0035
 7997W        W23128  12.498  12.521  10.072  0.2354  0.1327 -0.0274
 7998W        W23129   5.237  13.623  11.314  0.1594 -0.1776  0.2336
 7999W        W23130  14.991   3.744   2.233 -0.1351 -0.1651  0.0646
 8000W        W23131   7.018  11.424   0.923 -0.2988  0.1959  0.2815
 8001W        W23132  13.641   5.436   2.370  0.2316 -0.3857 -0.2760
 8002W        W23133   5.688   0.339   4.934  0.0897 -0.0552 -0.2009
 8003W        W23134  17.157   6.413  12.026  0.0563  0.0314 -0.2233
 8004W        W23135   8.081   0.826   2.086 -0.1197  0.1335 -0.0479
 8005W        W23136   1.568   3.638  15.390 -0.4106  0.2371  0.1704
 8006W        W23137  12.228   3.450   2.891  0.1439  0.2169 -0.4259
 8007W        W23138  17.553   9.479  12.838  0.2823 -0.0861  0.2754
 8008W        W23139   2.944  15.473   0.229  0.1074 -0.0537  0.1905
 8009W        W23140   5.592   6.258   4.797  0.0557 -0.0927  0.3635
 8010W        W23141  12.462   9.896   2.419 -0.0698  0.2087  0.0572
 8011W        W23142   2.539   4.202   3.800  0.1837  0.1620  0.0830
 8012W        W23143  14.536  13.927  13.712 -0.1573  0.3475  0.1401
 8013W        W23144  16.123   5.377   0.407 -0.0685 -0.0190  0.0673
 8014W        W23145  15.877   2.229   2.006  0.1540  0.0008 -0.0284
 8015W        W23146  12.792   4.158   4.854 -0.1547  0.0192  0.0757
 8016W        W23147  14.785  11.375  13.617 -0.0640  0.2083  0.1757
 8017W        W23148   9.534   4.247  10.170  0.2851  0.1394 -0.0081
 8018W        W23149   4.473   3.994  13.697  0.1868 -0.0900 -0.0028
 8019W        W23150  14.801   2.369   2.273 -0.1920 -0.0609  0.3030
 8020W        W23151  16.641  16.733   1.508  0.0555  0.1491  0.3140
 8021W        W23152  17.335   0.471   4.471  0.1827  0.2240 -0.3132
 8022W        W23153   1.739   7.332   1.430 -0.0444  0.1075  0.0180
 8023W        W23154   9.939  14.320   4.633 -0.0497 -0.1430  0.1745
 8024W        W23155   2.598  12.077  13.260  0.2242 -0.0382  0.0278
 8025W        W23156  15.396   8.524  12.308  0.3339  0.2589 -0.0439
 8026W        W23157   3.951   8.112  12.184 -0.2311 -0.2804 -0.1058
 8027W        W23158   1.186   0.556  16.083 -0.0111 -0.0410  0.0887
 8028W        W23159   3.384   3.903   2.117 -0.1565  0.1675 -0.1675
 8029W        W23160   3.004   2.519   0.198 -0.1639 -0.2150  0.0743
 8030W        W23161  14.379  17.245  12.987  0.0668  0.3284  0.0781
 8031W        W23162  15.938   8.440   4.219 -0.0116 -0.0646  0.1148
 8032W        W23163  17.544  14.378   4.536  0.2117  0.0929  0.1124
 8033W        W23164   3.938  13.051   5.462  0.0220  0.1500  0.2271
 8034W        W23165   7.361   0.644   0.055 -0.0315  0.0131  0.0696
 8035W        W23166  15.182  11.965   0.536  0.0351 -0.1663 -0.0722
 8036W        W23167  16.511  17.460  12.820  0.0108  0.0714  0.1814
 8037W        W23168   5.802  16.586  14.005 -0.1403  0.2625 -0.1176
 8038W        W23169  11.824  10.023   2.965  0.1116 -0.2178 -0.3389
 8039W        W23170   6.740   7.665  15.694 -0.0147 -0.1350  0.3547
 8040W        W23171  10.838  10.187   0.505 -0.3579 -0.3188  0.0151
 8041W        W23172   8.544   7.126  10.902 -0.0480  0.2360  0.1749
 8042W        W23173   5.287  14.608   5.038  0.0337 -0.1072  0.1325
 8043W        W23174   3.262   5.237  12.225  0.0069  0.0159 -0.0732
 8044W        W23175  16.346   8.103   5.047 -0.0482  0.0631  0.1909
 8045W        W23176   3.973  16.395  10.933  0.1109 -0.2810 -0.0853
 8046W        W23177   4.495   0.585  14.412 -0.0555  0.0696  0.0627
 8047W        W23178   6.084  13.427   1.633  0.1680 -0.2454 -0.0498
 8048W        W23179  11.997   3.662  13.717 -0.0649 -0.0691  0.2829
 8049W        W23180   9.522  14.225   3.957 -0.0433  0.1069  0.1528
 8050W        W23181   1.962   2.257   4.144  0.0974  0.0579  0.2612
 8051W        W23182   4.634   2.431   2.916  0.0825 -0.0073 -0.1204
 8052W        W23183   6.799   6.158  15.483  0.0461 -0.0781 -0.2969
 8053W        W23184  11.446  16.511  13.030  0.1674  0.0929  0.0845
 8054W        W23185   8.887  15.085   0.572  0.1181  0.2183  0.1880
 8055W        W23186  10.770  11.356   1.604  0.1478 -0.2665  0.3965
 8056W        W23187  15.875  16.082  11.120 -0.2881  0.0510 -0.1046
 8057W        W23188   8.577  10.860  13.484 -0.2963  0.2644 -0.0645
 8058W        W23189  11.762   4.715   3.182  0.2083  0.0157 -0.0457
 8059W        W23190   2.843  17.206   4.587  0.0843 -0.1354  0.2587
 8060W        W23191  11.931  11.434  13.561 -0.0194 -0.1473 -0.0762
 8061W        W23192   9.789  13.932   2.986  0.0059 -0.0047 -0.1047
 8062W        W23193   6.538  16.710  15.030 -0.2761  0.0292  0.2183
 8063W        W23194  14.059   3.620  13.752  0.0953 -0.0762 -0.1852
 8064W        W23195  15.613  15.285  13.653  0.1220  0.1497  0.1815
 8065W        W23196   1.781   7.369  12.029 -0.0657 -0.2146  0.2077
 8066W        W23197  13.754   7.092  11.322  0.3084 -0.0376 -0.0949
 8067W        W23198  11.532  10.055  11.140  0.0581  0.3069 -0.1816
 8068W        W23199   2.001   9.709   5.750  0.0196 -0.0440  0.1244
 8069W        W23200   0.250   9.944   4.280 -0.3176 -0.3337 -0.1227
 8070W        W23201   6.900   2.559  11.103  0.1316 -0.3429  0.1207
 8071W        W23202  16.077  18.019  12.258 -0.3060 -0.0568 -0.1445
 8072W        W23203  13.341   1.432  13.298  0.0132  0.1519 -0.1523
 8073W        W23204   0.749  17.382   4.482  0.1206 -0.0127  0.1316
 8074W        W23205   0.974   4.356   5.206 -0.0044  0.1901  0.0718
 8075W        W23206   1.269  15.926   0.484  0.0353  0.2317 -0.0123
 8076W        W23207  15.647   7.903  14.683 -0.1616 -0.0083  0.0799
 8077W        W23208  15.779   1.794  11.336 -0.0444  0.0615  0.1920
 8078W        W23209  11.886  14.775   4.368  0.0487  0.0949 -0.1441
 8079W        W23210   1.380   2.448   1.399 -0.0014 -0.0515 -0.1192
 8080W        W23211  10.178  13.379  12.775 -0.1981  0.0921 -0.0600
 8081W        W23212   4.092   8.311  15.926 -0.1281  0.3577  0.1793
 8082W        W23213   2.766   6.869  15.208  0.0226  0.0631 -0.1273
 8083W        W23214   2.989   2.422  13.434 -0.0100 -0.0872 -0.1218
 8084W        W23215   4.333  15.136  15.543 -0.1223  0.0417 -0.0029
 8085W        W23216  16.890   0.998   5.285 -0.1631  0.0571 -0.0797
 8086W        W23217  13.533   9.049   9.846 -0.0045 -0.2244 -0.1381
 8087W        W23218  11.696  17.786  11.132  0.0373  0.0546 -0.3474
 8088W        W23219  13.585  12.131   2.086 -0.0978  0.0715  0.5971
 8089W        W23220   7.008  12.052  14.446  0.2132  0.1483 -0.4205
 8090W        W23221   5.503  16.887  11.897 -0.1191 -0.0429 -0.0291
 8091W        W23222   5.180   8.779   1.248 -0.3613  0.2786 -0.1003
 8092W        W23223   5.044  15.914   1.597 -0.0091  0.0857  0.3206
 8093W        W23224   3.299  17.975   2.795  0.1791 -0.0533  0.4425
 8094W        W23225  17.684   5.290  14.711 -0.2053 -0.4164 -0.0105
 8095W        W23226   0.522   3.544   1.374  0.0832  0.2584 -0.0193
 8096W        W23227   0.613  18.152   4.840 -0.0023  0.1725  0.1292
 8097W        W23228  18.020   3.821  13.567  0.0646  0.0680 -0.0497
 8098W        W23229   1.347   4.675  11.648  0.0328  0.2307  0.0859
 8099W        W23230   5.352   1.185  14.572  0.1209  0.2531  0.3201
 8100W        W23231   1.262   6.142   3.223  0.0140  0.0242 -0.1908
 8101W        W23232   0.999   1.746   1.687  0.0604  0.1489 -0.2364
 8102W        W23233   2.201   6.769  13.318 -0.0977 -0.1239 -0.0852
 8103W        W23234   3.955   8.531   0.253 -0.1232  0.2196 -0.3615
 8104W        W23235   4.526  11.723  13.506  0.1247  0.1056 -0.1313
 8105W        W23236   2.460  12.762  12.474 -0.0556  0.1190 -0.3964
 8106W        W23237   3.629  15.118  14.043 -0.0083 -0.0108 -0.1954
 8107W        W23238  18.139  17.771  12.004  0.1707 -0.0747  0.0771
 8108W        W23239  16.927   2.146   4.459 -0.1562  0.1203  0.1033
 8109W        W23240   4.833   2.450   0.580 -0.0465 -0.0623  0.0029
 8110W        W23241  10.102   6.506  13.528 -0.0199  0.0321 -0.0558
 8111W        W23242   5.165  10.811  14.639  0.0165 -0.0973 -0.1457
 8112W        W23243   0.799   8.177   2.783  0.1922  0.1606  0.2231
 8113W        W23244   5.223   1.347  11.989 -0.1242 -0.5433  0.0370
 8114W        W23245  16.547   7.543   2.676  0.1020 -0.1124  0.0470
 8115W        W23246   2.040  15.676   4.775 -0.0635 -0.1615  0.1748
 8116W        W23247  14.619   7.771  14.390 -0.0642  0.2368 -0.3384
 8117W        W23248   2.951  11.139  11.311  0.3241 -0.3908  0.0624
 8118W        W23249  12.887  13.130  14.974 -0.0356  0.0809 -0.2099
 8119W        W23250  10.706   2.713   1.395  0.1362 -0.3153 -0.0393
 8120W        W23251   4.705  15.587  14.819 -0.0734 -0.2979  0.2150
 8121W        W23252   5.561  17.379  15.273 -0.1427 -0.0128 -0.0967
 8122W        W23253  10.759   7.714  14.146 -0.0113 -0.1985 -0.0439
 8123W        W23254  12.363  14.574   4.553  0.0644 -0.0841  0.3280
 8124W        W23255  13.383  18.156  13.381  0.0167 -0.1317  0.2871
 8125W        W23256  16.792  10.969  12.454  0.0039 -0.1493 -0.0966
 8126W        W23257   7.688   7.839   3.659  0.1087 -0.1246  0.0059
 8127W        W23258  10.862   3.204  15.762  0.4444  0.0357 -0.1372
 8128W        W23259  14.330  13.990  12.228  0.0062 -0.0801 -0.0284
 8129W        W23260  13.338   5.064   3.028 -0.1241  0.5388  0.1037
 8130W        W23261  11.308   6.529   2.684  0.1638 -0.1176 -0.2445
 8131W        W23262  15.997   6.494  12.969  0.0069  0.0972 -0.0685
 8132W        W23263   1.162  11.596   2.803  0.0046 -0.0339 -0.2242
 8133W        W23264  18.186   3.959   4.503 -0.0571  0.0998 -0.1568
 8134W        W23265   5.727   6.207   3.596  0.0262  0.0633 -0.0285
 8135W        W23266  16.508  17.553   1.384  0.0570 -0.0695  0.1139
 8136W        W23267   5.960  17.253   4.804  0.0442 -0.2357  0.1072
 8137W        W23268  15.099   1.801   2.137  0.1318  0.1560 -0.0191
 8138W        W23269  10.590   7.732  13.381 -0.0615 -0.1987  0.0865
 8139W        W23270  15.905   4.367  14.520 -0.2319 -0.1008 -0.1808
 8140W        W23271   3.473   8.111  15.133 -0.0474  0.2141 -0.1378
 8141W        W23272  16.820   3.042   3.440  0.1116  0.0711  0.3218
 8142W        W23273  16.961   8.658   2.151 -0.0754 -0.0014  0.1608
 8143W        W23274   0.240   5.952   2.974  0.0922 -0.0022 -0.2129
 8144W        W23275   2.837   3.819  13.213 -0.2025  0.1187  0.0068
 8145W        W23276  10.862   3.406   0.445 -0.2691  0.1967 -0.5681
 8146W        W23277  15.784  15.341   0.105 -0.3097  0.1226 -0.0480
 8147W        W23278   3.785  18.080   1.780  0.1682  0.1787  0.1126
 8148W        W23279   4.081  16.600   1.795  0.1317  0.1450 -0.1518
 8149W        W23280   6.614   2.929   5.441  0.1760 -0.0069  0.1066
 8150W        W23281   4.094   0.406  11.894  0.0216  0.3342 -0.0246
 8151W        W23282  15.291   2.888   0.741 -0.1184  0.0172 -0.4246
 8152W        W23283   8.640  13.129   0.045 -0.0192 -0.0043  0.1217
 8153W        W23284   8.961  16.807   1.200  0.2552  0.1296 -0.3742
 8154W        W23285   1.799   0.305  11.830  0.1447 -0.1329 -0.2921
 8155W        W23286   9.432   6.146   1.259  0.1473  0.0302 -0.0932
 8156W        W23287  16.618  12.275  10.688  0.1834 -0.0560  0.1223
 8157W        W23288  15.899  10.324   2.377  0.1444  0.0407 -0.0154
 8158W        W23289   8.981  14.159   1.268 -0.0555  0.1007 -0.3626
 8159W        W23290  11.686   2.422   2.219  0.0822  0.1723  0.0853
 8160W        W23291   0.182  12.906  13.136  0.1041  0.0852 -0.2502
 8161W        W23292   7.061   5.228   0.514 -0.1971  0.0020  0.2556
 8162W        W23293  18.222  16.699  12.335  0.2542 -0.3778  0.2399
 8163W        W23294   6.627   8.701   4.616  0.1802  0.0791 -0.0180
 8164W        W23295  13.078   7.136   1.372  0.2629  0.3790 -0.0649
 8165W        W23296   0.230  12.176   0.377  0.2630 -0.2560 -0.1265
 8166W        W23297   6.823   5.403  14.041  0.2663 -0.1075 -0.0157
 8167W        W23298  15.821   9.838   0.739 -0.0904  0.1268 -0.1708
 8168W        W23299  12.798  16.346   4.471 -0.0683 -0.1185  0.2227
 8169W        W23300  16.021   2.469  11.729 -0.0120  0.0205  0.1083
 8170W        W23301  13.757  15.606  13.906  0.1444 -0.0341 -0.0577
 8171W        W23302   4.443  10.357   2.754 -0.0280 -0.3770 -0.3393
 8172W        W23303  13.756  10.495  13.828  0.3565  0.1042 -0.2100
 8173W        W23304   5.498  11.494   3.711 -0.0875  0.1201 -0.3404
 8174W        W23305   6.632  16.804  11.180  0.1467  0.2744 -0.3045
 8175W        W23306   7.976  16.412   1.125  0.0552  0.1498  0.2453
 8176W        W23307   5.825   2.515  13.255  0.1095  0.2051  0.1062
 8177W        W23308   5.328   1.293   4.100  0.1685 -0.1145  0.0161
 8178W        W23309  15.470   7.748   5.384 -0.1993 -0.0189  0.1062
 8179W        W23310  13.987   1.594  11.299  0.3464  0.0578 -0.0750
 8180W        W23311   3.954  12.984  14.133 -0.1316 -0.1056  0.0570
 8181W        W23312  13.751   0.468  12.744 -0.0956  0.0412 -0.1040
 8182W        W23313   8.214  16.799   3.918 -0.0040  0.1147  0.0434
 8183W        W23314   9.001   3.915   5.073 -0.1525 -0.0036  0.0173
 8184W        W23315  12.749   0.751  14.294  0.0549 -0.1742 -0.2525
 8185W        W23316   6.525  16.856   2.403  0.1932 -0.2683 -0.0443
 8186W        W23317   4.740   2.017   5.071  0.1369  0.2476  0.2882
 8187W        W23318   1.293  12.567  14.945  0.2355  0.1375 -0.3979
 8188W        W23319  17.063  10.025  15.388 -0.0006  0.1977  0.1560
 8189W        W23320  14.303   9.345  13.254 -0.1716 -0.0170  0.2134
 8190W        W23321  13.895   0.201   3.241 -0.3009  0.1577  0.0495
 8191W        W23322  11.554  17.802  13.546  0.0285  0.1531  0.1250
 8192W        W23323   4.139  13.136   0.659  0.0049  0.4765 -0.3942
 8193W        W23324  10.851   1.740  13.243  0.1620 -0.0025  0.3370
 8194W        W23325   1.131   5.816   1.009 -0.0177 -0.2068  0.1256
 8195W        W23326   8.280   6.441  12.149 -0.0503 -0.2436  0.1596
 8196W        W23327   4.547  15.332   2.864  0.0190  0.2539  0.0685
 8197W        W23328  17.063   5.252  15.383  0.1158  0.0283 -0.1286
 8198W        W23329  10.686   2.972   0.178 -0.0900  0.1974 -0.3543
 8199W        W23330  12.492   8.517   3.751  0.2750 -0.0212 -0.0900
 8200W        W23331  14.987   7.161   3.923  0.2238  0.0744 -0.0179
 8201W        W23332  14.274  17.460   2.107  0.4203 -0.0801  0.0920
 8202W        W23333  10.034  15.863  13.038  0.0436 -0.3061 -0.2708
 8203W        W23334   2.138   6.458   4.255 -0.2706  0.0241  0.1931
 8204W        W23335   5.900   8.638   4.490 -0.0425  0.0739  0.0496
 8205W        W23336  14.908   3.552  15.129  0.0450  0.0149 -0.0088
 8206W        W23337   5.410  16.480   0.511 -0.0000  0.2551 -0.2150
 8207W        W23338   7.257   7.877  14.208  0.1737 -0.1933 -0.0608
 8208W        W23339  11.662   2.654  12.131 -0.0253 -0.0294 -0.2413
 8209W        W23340  17.462  16.379   3.848 -0.1064  0.1477 -0.1955
 8210W        W23341  11.504  18.231   2.321  0.0592 -0.2305  0.1208
 8211W        W23342   4.123   9.520  12.715 -0.0322 -0.2538  0.0602
 8212W        W23343  13.224  10.212   0.238  0.0610  0.0713  0.1621
 8213W        W23344  13.741  12.718  12.306 -0.1851  0.2276 -0.1663
 8214W        W23345   0.674  10.049  14.988  0.2280 -0.1447  0.0628
 8215W        W23346   5.771  18.050   2.297  0.0556 -0.0672 -0.2234
 8216W        W23347   4.853  12.026  13.791 -0.1022 -0.0430 -0.0930
 8217W        W23348  18.120  17.020  12.795  0.1457  0.0062  0.1388
 8218W        W23349  13.992   8.596  14.043  0.1769 -0.0753 -0.1602
 8219W        W23350  17.014   4.880   0.165  0.0376  0.3129  0.2761
 8220W        W23351   0.319  16.471   3.235 -0.1582  0.0726 -0.2370
 8221W        W23352  17.469  13.905  11.294 -0.0554  0.0059  0.1181
 8222W        W23353   6.747   0.172   3.788 -0.1383 -0.0031 -0.0409
 8223W        W23354  10.264   7.834   3.134 -0.0729 -0.0692  0.3921
 8224W        W23355   8.820   5.638  10.997  0.2528 -0.0691  0.3391
 8225W        W23356  17.379  10.149   5.159 -0.1170 -0.1071 -0.1277
 8226W        W23357  16.786   8.118   3.022 -0.1122 -0.0390 -0.3975
 8227W        W23358   8.804  15.338   4.538  0.0801  0.0739  0.1855
 8228W        W23359   3.579   1.989   4.436 -0.2054 -0.0206 -0.2137
 8229W        W23360   0.453  15.942  12.112 -0.1974 -0.0483  0.0043
 8230W        W23361  10.945   1.389   1.287  0.1782  0.0700  0.0340
 8231W        W23362   2.031   9.552   1.903  0.1674 -0.1066 -0.1732
 8232W        W23363   8.792   4.701  11.622  0.0599 -0.1471  0.0485
 8233W        W23364   9.793   4.978   5.095 -0.2402 -0.1296 -0.1064
 8234W        W23365  16.266   1.957  11.435 -0.0390  0.1135  0.2854
 8235W        W23366   2.736  15.502  13.631  0.1869  0.2404  0.2198
 8236W        W23367  12.729  10.518  11.970 -0.0808 -0.1218 -0.0775
 8237W        W23368  16.779  15.773  13.478  0.0727 -0.1280  0.0746
 8238W        W23369  14.620  16.953   4.909  0.0553 -0.2569  0.0936
 8239W        W23370  16.825   3.671  10.218 -0.0113  0.2322 -0.2181
 8240W        W23371  15.045   8.904   4.496 -0.0290 -0.0271  0.2720
 8241W        W23372  15.098  17.671   5.569 -0.0216  0.0520  0.0072
 8242W        W23373   8.159   4.818   3.871  0.1576  0.4119 -0.1568
 8243W        W23374   8.085   2.308   4.074 -0.2490  0.0190  0.0612
 8244W        W23375   4.879  10.741   0.017  0.0382 -0.2089  0.0321
 8245W        W23376  10.407   1.184   2.028  0.0838  0.0339 -0.2300
 8246W        W23377  16.395  14.562   1.316 -0.2183 -0.1641 -0.2822
 8247W        W23378  10.229  16.647   4.255 -0.2907  0.0142 -0.2161
 8248W        W23379  13.775  11.771  12.358  0.2142  0.0622  0.0256
 8249W        W23380  14.075  18.156   4.873 -0.0410  0.0696 -0.1820
 8250W        W23381  12.226   7.118  14.361  0.1671 -0.0803 -0.1935
 8251W        W23382   6.376  17.719  14.799 -0.2608  0.0438  0.0893
 8252W        W23383   2.578   7.195   3.776 -0.0262  0.0051  0.0858
 8253W        W23384  14.344   2.314   3.902 -0.1142  0.2799  0.0422
 8254W        W23385   4.128   6.937  13.520  0.0863 -0.0379  0.2689
 8255W        W23386  11.832   9.088  12.533 -0.1268 -0.1931  0.2121
 8256W        W23387  18.113  12.255   0.123 -0.2494  0.1609  0.0514
 8257W        W23388   0.812   2.815   5.989  0.0546  0.2435  0.0915
 8258W        W23389   9.664  13.340  13.905 -0.2075  0.3557 -0.0889
 8259W        W23390   0.844   0.284   5.176 -0.1659 -0.1740  0.1737
 8260W        W23391  12.606  12.125   2.339  0.0036  0.1531 -0.0337
 8261W        W23392  13.687   1.987   0.118  0.2456 -0.1756  0.0418
 8262W        W23393   9.103   1.676   3.505  0.3154  0.4851  0.1868
 8263W        W23394  13.807   8.253   3.932 -0.2290 -0.1508 -0.0622
 8264W        W23395  12.153   2.952   5.096  0.0739 -0.1111  0.1904
 8265W        W23396  14.365   0.608  10.731  0.2137 -0.0205 -0.0017
 8266W        W23397   9.645  10.356  14.708  0.0485 -0.0430  0.0313
 8267W        W23398   1.943  15.732  13.490 -0.2436  0.2966 -0.1029
 8268W        W23399   0.398  17.561   4.154 -0.1135  0.2564 -0.2099
 8269W        W23400   3.563  12.668   5.550 -0.1990  0.2459 -0.0452
 8270W        W23401  15.137   9.661   2.077 -0.1516  0.0314 -0.2197
 8271W        W23402   4.509   9.418  14.954  0.1306  0.2707  0.1091
 8272W        W23403  16.692  11.607   1.699  0.2929  0.3064  0.0611
 8273W        W23404   3.308   5.363   4.554 -0.0002  0.1439 -0.2426
 8274W        W23405   8.015   6.324   3.659  0.0784  0.1991 -0.1278
 8275W        W23406  12.050   2.578  15.504  0.2518 -0.0612 -0.1073
 8276W        W23407  15.479  17.776   0.137  0.0917  0.3211  0.0739
 8277W        W23408   9.862  16.433   9.968  0.0150  0.1145  0.1424
 8278W        W23409   6.558  17.645   1.729 -0.2419 -0.0186 -0.1752
 8279W        W23410   3.192   2.257   2.663  0.0241  0.1762 -0.0839
 8280W        W23411   6.141  13.348  12.223 -0.3195 -0.0612  0.1751
 8281W        W23412  13.578  12.450  14.343  0.1337 -0.0419  0.0068
 8282W        W23413  13.243  18.243   1.643 -0.1400  0.0014 -0.1252
 8283W        W23414   6.578   6.953  16.074  0.1204 -0.2135  0.2205
 8284W        W23415  13.652  17.545  15.735 -0.1359  0.2066 -0.0067
 8285W        W23416  15.879  10.286  13.202  0.0876  0.1626  0.1038
 8286W        W23417  12.500  13.475  10.822 -0.2735 -0.0671 -0.1664
 8287W        W23418   0.160   1.632  15.371 -0.3571 -0.2679  0.1501
 8288W        W23419  12.555   2.984   2.114 -0.2786  0.3021  0.1175
 8289W        W23420   1.378  10.867  11.898 -0.0831  0.2839  0.1975
 8290W        W23421  15.316  11.901   2.027 -0.0120  0.3666 -0.0280
 8291W        W23422  17.489  18.026   1.162  0.0406  0.0330  0.1265
 8292W        W23423   7.053   9.963   3.115  0.0590  0.1773 -0.2991
 8293W        W23424  14.653   2.375  12.422  0.0910 -0.1677  0.0656
 8294W        W23425  16.853   6.281  12.648 -0.0181  0.2249 -0.0554
 8295W        W23426  11.171  15.712   0.347  0.0144  0.1751  0.0930
 8296W        W23427  16.931  10.514  11.810  0.1354  0.0498 -0.3904
 8297W        W23428   3.604   4.244   2.882 -0.0365  0.2607 -0.1836
 8298W        W23429   6.963   7.238   3.268  0.1718 -0.0062 -0.1445
 8299W        W23430  12.745   1.100   4.814  0.3721  0.1679  0.1859
 8300W        W23431  17.097   1.988  15.063  0.0994 -0.1519 -0.1341
 8301W        W23432   8.638  18.084  13.908  0.1339 -0.2057  0.2224
 8302W        W23433   2.357  13.638  12.208 -0.1995 -0.0062 -0.2708
 8303W        W23434  11.478   0.385  12.357 -0.1721 -0.4216  0.1431
 8304W        W23435  11.138  17.801   4.717  0.0939  0.0828  0.0805
 8305W        W23436   2.294   9.663  13.775 -0.3122 -0.1577  0.0042
 8306W        W23437  10.285  11.805  14.131  0.2483 -0.0748  0.0554
 8307W        W23438  16.193  11.201   2.176 -0.0569 -0.0032  0.0289
 8308W        W23439   7.634  13.972  16.007 -0.1598 -0.0995 -0.2065
 8309W        W23440   4.005   6.780  12.726  0.2467 -0.1539 -0.0206
 8310W        W23441   7.532  16.678   0.941  0.0372  0.2173  0.2586
 8311W        W23442   5.275   8.035   0.291  0.3084 -0.2793  0.0295
 8312W        W23443   2.507   9.561  15.666  0.2703 -0.1923  0.0494
 8313W        W23444   8.747   8.399   2.075 -0.0060  0.2030 -0.2106
 8314W        W23445   7.661  11.590  12.422 -0.0958 -0.0435 -0.1697
 8315W        W23446  13.130   4.738  13.667 -0.1451 -0.1675 -0.3309
 8316W        W23447   0.416  11.803  11.112 -0.1017  0.0064 -0.1998
 8317W        W23448   4.980   2.644  15.291  0.2523 -0.2031 -0.1742
 8318W        W23449  16.778   1.116   2.351  0.0491  0.0283  0.1729
 8319W        W23450   2.285  17.177   4.794  0.0091 -0.1716  0.0346
 8320W        W23451   8.961   5.875   5.446  0.2488  0.2786  0.0306
 8321W        W23452  16.229   2.084   1.642  0.2155  0.1378  0.1236
 8322W        W23453   2.491  13.394  15.918 -0.0136  0.0855 -0.0141
 8323W        W23454   9.295   3.560   4.769 -0.3205 -0.0581  0.4512
 8324W        W23455  13.375   8.149  16.060  0.0105  0.3325 -0.4046
 8325W        W23456   2.039   8.672  11.259 -0.0294  0.3577  0.1101
 8326W        W23457   2.556   4.855  13.736  0.0513  0.0298 -0.0557
 8327W        W23458   3.308  16.813  15.089 -0.0645 -0.2305 -0.0362
 8328W        W23459   6.324  14.639   2.963  0.0756 -0.0363  0.3830
 8329W        W23460   4.208   8.182  12.615 -0.3029 -0.0184  0.0283
 8330W        W23461  15.844  15.318   1.768 -0.0034 -0.0874 -0.0335
 8331W        W23462   2.422   9.727   5.408  0.0560 -0.0349 -0.3219
 8332W        W23463   2.638  11.392   0.704  0.0645  0.2344 -0.2291
 8333W        W23464   6.303   0.455   2.309 -0.2368  0.3717 -0.1307
 8334W        W23465  17.584   9.690  15.351  0.0488 -0.0025 -0.1196
 8335W        W23466   2.410  16.376  12.191  0.0608  0.4573  0.2838
 8336W        W23467   2.405  10.047  15.858 -0.0774 -0.1945  0.1194
 8337W        W23468  12.574   1.745  11.026  0.1772 -0.0897 -0.0010
 8338W        W23469  14.341   8.090   5.763 -0.0428 -0.1821 -0.2256
 8339W        W23470   4.099   6.417   4.994 -0.3407  0.2665  0.1018
 8340W        W23471  11.865   2.202   3.024 -0.3721 -0.1090 -0.0844
 8341W        W23472  17.879   2.820  13.135  0.0364  0.1668  0.1243
 8342W        W23473   9.254   7.669  14.164  0.0138 -0.3837 -0.0246
 8343W        W23474  10.618   6.808  13.663 -0.1920  0.0652 -0.2719
 8344W        W23475  10.605   9.335  13.941 -0.1868  0.0317 -0.0740
 8345W        W23476   4.830   6.133  13.171  0.2328 -0.1688 -0.2069
 8346W        W23477  12.102   6.653   5.645 -0.1646 -0.1926  0.1055
 8347W        W23478   8.631  14.833  12.960 -0.1264  0.2151 -0.2147
 8348W        W23479  17.499   7.444  11.299 -0.0231 -0.3155  0.1489
 8349W        W23480   3.240   9.785   2.125  0.0937 -0.0431  0.2470
 8350W        W23481  11.936  12.618   3.416  0.0331  0.2171  0.1122
 8351W        W23482   8.786  16.604  13.900  0.4745  0.0116  0.1229
 8352W        W23483   7.899   3.981   5.728 -0.1019  0.0505  0.0013
 8353W        W23484   9.216  15.662  14.509 -0.1747  0.0718 -0.1732
 8354W        W23485  16.075   9.009  11.972 -0.1582  0.1000  0.4384
 8355W        W23486   7.972  17.135   3.606 -0.0190  0.0566  0.1448
 8356W        W23487  16.919  11.668   2.639  0.1140  0.2217 -0.1772
 8357W        W23488   9.699   7.750  11.421  0.0335  0.1776 -0.0825
 8358W        W23489  15.116   9.779  12.838 -0.1389  0.1302 -0.0778
 8359W        W23490   6.621  12.714   2.066  0.2086 -0.1062  0.2052
 8360W        W23491   3.614  16.639  12.261  0.2166  0.0474 -0.0344
 8361W        W23492  15.966   4.385  12.475  0.2923  0.3127 -0.1646
 8362W        W23493   5.383   2.241  11.327  0.0552  0.0685  0.0383
 8363W        W23494   2.851  14.545   2.869 -0.0140 -0.3608  0.2762
 8364W        W23495   6.365   1.917   0.443  0.0351  0.1104 -0.3603
 8365W        W23496   0.747  15.355   2.216 -0.4589 -0.0846 -0.0509
 8366W        W23497  13.707   7.784   1.370  0.0295  0.0867  0.1248
 8367W        W23498  17.623   1.022  14.048  0.0468 -0.1124 -0.0726
 8368W        W23499   3.461   2.910  15.106  0.0486 -0.0034  0.1400
 8369W        W23500   4.096  16.723   0.377 -0.2250  0.0387  0.0489
 8370W        W23501  11.176   6.734  10.514  0.0742  0.0826 -0.0028
 8371W        W23502  11.332   4.306   4.963  0.1128 -0.2085 -0.1398
 8372W        W23503   9.485   9.469  13.604  0.2552  0.1883 -0.1087
 8373W        W23504   6.914   6.378  12.520  0.0866 -0.0954 -0.1275
 8374W        W23505   7.784  13.376  12.843 -0.2802 -0.1011 -0.1197
 8375W        W23506   9.509   0.588  11.754  0.1450 -0.0977 -0.2468
 8376W        W23507  16.401  10.657   2.948  0.0125  0.1640 -0.2464
 8377W        W23508  16.312   6.765  14.351 -0.4213  0.4674 -0.2580
 8378W        W23509  17.300   8.723   3.374 -0.0496  0.0560 -0.3449
 8379W        W23510   1.259  15.623  11.644  0.1363  0.0414 -0.0870
 8380W        W23511   4.739  17.519  14.566 -0.4018  0.0718  0.0904
 8381W        W23512   8.335   6.220   2.576 -0.3025  0.3631  0.0315
 8382W        W23513   3.964   9.044   5.778 -0.0354 -0.0703 -0.1783
 8383W        W23514   8.610  16.340  13.169  0.4179  0.1586  0.0530
 8384W        W23515  15.694   6.702   3.864 -0.4679 -0.2325  0.0563
 8385W        W23516   4.817   6.870  14.204 -0.1622 -0.2742  0.2606
 8386W        W23517  15.319  17.411  12.646 -0.3413 -0.0101  0.0051
 8387W        W23518   0.315  17.968   2.687 -0.1945 -0.2322 -0.0723
 8388W        W23519   9.457   8.900  11.679 -0.0891  0.0994 -0.2107
 8389W        W23520   0.860  13.033   2.950  0.1688  0.2351 -0.2348
 8390W        W23521   2.004  15.072   3.637 -0.0254 -0.2395 -0.4802
 8391W        W23522  12.919   3.878   4.237 -0.1705  0.1203 -0.1298
 8392W        W23523   6.142  15.493  12.494 -0.0311  0.1447 -0.2760
 8393W        W23524   0.245  10.830   3.965 -0.0056  0.0718 -0.3182
 8394W        W23525  17.708   1.165  15.415 -0.0375 -0.0615 -0.1544
 8395W        W23526   5.303  15.126   5.657 -0.0873  0.0894  0.1623
 8396W        W23527   4.461  12.189  15.427  0.0439  0.1767 -0.0755
 8397W        W23528   3.890   5.878   1.863 -0.1175  0.4834  0.3477
 8398W        W23529   1.008  14.695  13.766 -0.0247  0.0850 -0.4590
 8399W        W23530   5.431   9.610   3.674  0.3259 -0.0181  0.0812
 8400W        W23531   1.960  13.364   5.275  0.2107 -0.0318 -0.4271
 8401W        W23532   2.493   1.207   2.744  0.0100  0.0008 -0.0602
 8402W        W23533   7.571   8.206   3.242 -0.0378  0.4638  0.1841
 8403W        W23534  10.472  10.905  10.848 -0.0454  0.0443  0.1109
 8404W        W23535   6.515   5.050   4.058  0.3451 -0.2190  0.0368
 8405W        W23536   9.958   1.610  12.799  0.2208 -0.0522 -0.0982
 8406W        W23537  16.608   4.592   2.775  0.2713  0.1184 -0.2176
 8407W        W23538   9.705   7.965  14.685 -0.3614 -0.0079  0.0485
 8408W        W23539   8.927  12.993   1.470 -0.0717 -0.0697  0.0657
 8409W        W23540  10.378  15.840  14.858 -0.0301  0.3027  0.1354
 8410W        W23541   4.466   4.739   3.602 -0.1983 -0.0418 -0.5481
 8411W        W23542   1.492   4.827   4.907 -0.0879  0.1874 -0.0382
 8412W        W23543  17.436  12.139   4.781  0.2322 -0.1694 -0.1548
 8413W        W23544   3.783  14.115  13.877  0.4017  0.1829  0.2719
 8414W        W23545   8.118   4.341  15.830 -0.0799 -0.0854 -0.0183
 8415W        W23546  14.095  14.041  14.203 -0.0546 -0.1175  0.0092
 8416W        W23547  14.035  13.346  11.782  0.3279  0.0426 -0.1476
 8417W        W23548   0.995  12.528  11.043 -0.1232 -0.1099 -0.0116
 8418W        W23549  11.708   3.402   2.854 -0.0814  0.1780 -0.0236
 8419W        W23550  14.224  16.121   1.420 -0.0906 -0.3066 -0.2112
 8420W        W23551   5.181  11.761   4.613 -0.1837 -0.1014  0.2004
 8421W        W23552   4.431   5.347   2.771 -0.3254 -0.0709  0.0154
 8422W        W23553  10.946   6.975   4.096  0.0707  0.1607  0.0970
 8423W        W23554   3.168   4.258  15.435 -0.2922  0.0407 -0.0337
 8424W        W23555   0.628  16.697   2.756 -0.1857 -0.0528 -0.1965
 8425W        W23556   7.097  11.756  13.254 -0.1117 -0.0568 -0.1886
 8426W        W23557  15.996  13.504  14.866 -0.1497 -0.3044 -0.3316
 8427W        W23558  15.064   2.688  14.854 -0.0112  0.1008  0.3162
 8428W        W23559  10.166   4.870   1.575 -0.0338 -0.1280  0.2430
 8429W        W23560   8.789   0.989  15.313  0.1477 -0.1735  0.1365
 8430W        W23561  16.402   7.610   0.411  0.0084 -0.0604 -0.0229
 8431W        W23562   8.247  10.653  11.450 -0.0563 -0.1973  0.2526
 8432W        W23563  13.912  10.161  13.425 -0.0289 -0.3708 -0.2073
 8433W        W23564  17.301   6.950   3.561 -0.0769 -0.5663 -0.1457
 8434W        W23565  15.820  14.574   4.639 -0.2497  0.2719 -0.0316
 8435W        W23566  12.977   8.132   2.161  0.1029  0.2648  0.1038
 8436W        W23567   6.175   7.804   4.639  0.0668  0.1782  0.0712
 8437W        W23568   3.402  13.728  12.987  0.1532 -0.0294 -0.1019
 8438W        W23569   3.680   1.701   6.320 -0.0460  0.0203 -0.0307
 8439W        W23570  14.590   0.568  15.703 -0.1992 -0.1223  0.1590
 8440W        W23571   0.965  16.006  13.651  0.5561  0.1196 -0.0631
 8441W        W23572  12.017  17.539  13.685  0.3613 -0.0728  0.0065
 8442W        W23573   5.309   5.068  14.895 -0.2132  0.0286 -0.0025
 8443W        W23574  12.017  15.290   2.111  0.0620  0.2280 -0.2018
 8444W        W23575   9.136   2.246   1.864 -0.3854  0.0142  0.1333
 8445W        W23576   9.341   0.211  13.492  0.3660 -0.1698  0.0050
 8446W        W23577  17.775   5.591  10.956 -0.4248  0.0208 -0.0025
 8447W        W23578   2.932  12.129  14.297 -0.4923 -0.0003 -0.0584
 8448W        W23579  16.644   8.196   2.040  0.1858  0.0610 -0.0176
 8449W        W23580   2.477  16.821   3.232 -0.1090  0.2680 -0.2515
 8450W        W23581  12.669   8.504  12.721 -0.1457 -0.2340  0.1594
 8451W        W23582   9.849   6.756  14.818  0.1583 -0.0032  0.0775
 8452W        W23583  16.679   3.875   1.659  0.0830 -0.1994  0.0223
 8453W        W23584   5.725  16.590   4.218 -0.2493  0.2209 -0.1384
 8454W        W23585  16.684   3.645  10.863  0.1688  0.0965 -0.0743
 8455W        W23586   2.924   8.288   4.529  0.3518  0.4809 -0.2256
 8456W        W23587   2.456   9.171  14.580 -0.2236  0.1087  0.2467
 8457W        W23588  10.815  18.098   1.114 -0.2933 -0.1557  0.0576
 8458W        W23589  17.017  12.045   1.098  0.0129 -0.4760 -0.0482
 8459W        W23590   9.439   4.186  15.241 -0.3288 -0.0265  0.0688
 8460W        W23591   9.951  10.594   3.207 -0.0801  0.1678 -0.1554
 8461W        W23592   4.384  15.949   6.326 -0.1027  0.1856  0.1483
 8462W        W23593  11.428  12.087  15.743  0.1978 -0.4644 -0.1456
 8463W        W23594   3.329  12.932   5.189  0.0804 -0.0286  0.1340
 8464W        W23595  15.201  12.518   3.928 -0.2093  0.0116  0.1427
 8465W        W23596  11.676  11.293   0.348 -0.2086 -0.0299 -0.2778
 8466W        W23597  13.859   2.354   5.842  0.1649  0.0957 -0.1342
 8467W        W23598   2.375   9.119  11.255  0.0086  0.0553  0.1436
 8468W        W23599   9.011  15.436  12.070  0.0585 -0.0419  0.0185
 8469W        W23600  17.562  10.766   2.960 -0.1548  0.0221  0.1188
 8470W        W23601   7.735   0.084   5.802  0.0474  0.0850 -0.0817
 8471W        W23602   2.629  14.384  14.959  0.0709  0.1605  0.3340
 8472W        W23603  16.695  15.964   3.398 -0.4138  0.0069  0.1337
 8473W        W23604  12.160  16.318   0.413  0.2466  0.0568  0.0069
 8474W        W23605   5.564   5.898   1.407  0.2591 -0.0242  0.2837
 8475W        W23606  11.015   2.789  15.486 -0.3336  0.1273  0.0431
 8476W        W23607   2.115   0.480  16.018  0.2733 -0.2225  0.1544
 8477W        W23608  17.574  11.275   3.193 -0.3453  0.0389  0.1513
 8478W        W23609  13.134  12.797  15.295 -0.0501  0.0909 -0.3214
 8479W        W23610  16.239   0.635  12.000  0.1981 -0.0691 -0.0176
 8480W        W23611  17.018   9.285  11.206  0.0888 -0.1142  0.3304
 8481W        W23612  15.437   5.629   3.270  0.0179 -0.0256 -0.1129
 8482W        W23613  10.500   7.590   5.526  0.0538 -0.3138  0.1111
 8483W        W23614   5.536   6.928  13.434  0.0501 -0.0082 -0.0941
 8484W        W23615  17.330   2.478   1.704  0.2088 -0.2127 -0.1874
 8485W        W23616  13.263  17.558  14.201  0.0813  0.2467  0.0157
 8486W        W23617  15.502   8.502   2.809  0.0399  0.2551  0.0521
 8487W        W23618   8.715  11.121  11.436 -0.1722 -0.0737  0.4287
 8488W        W23619  10.652   7.786  14.993 -0.0300  0.1755 -0.0185
 8489W        W23620   0.204  13.520  15.333 -0.2043 -0.0788  0.0012
 8490W        W23621  17.909   1.921   5.874  0.1858  0.0445 -0.1245
 8491W        W23622   4.900  15.080   2.162 -0.1133 -0.2391  0.0355
 8492W        W23623   0.875   3.829   2.036  0.0481  0.1208 -0.0809
 8493W        W23624   4.648  14.781   3.487 -0.0229  0.0304  0.1899
 8494W        W23625   3.939   4.891   3.449  0.1071  0.2908 -0.1788
 8495W        W23626   1.825  13.275   1.662  0.0407  0.0058 -0.1405
 8496W        W23627  15.734  17.944  15.172 -0.3130  0.0504  0.0482
 8497W        W23628  18.092  17.138  15.978  0.2235  0.2494 -0.0582
 8498W        W23629  10.865  10.771  15.198 -0.1386  0.3268 -0.1616
 8499W        W23630   5.173  10.043   1.348  0.0129 -0.1037 -0.0478
 8500W        W23631  12.264   4.547   0.047 -0.1921  0.1045 -0.0276
 8501W        W23632  13.771  10.966  14.586 -0.1345  0.1518  0.1969
 8502W        W23633   0.212  14.546  15.466  0.0398 -0.2141 -0.0061
 8503W        W23634  15.109   5.698   0.974 -0.2104  0.2410 -0.1332
 8504W        W23635   2.265  13.431  11.089  0.1244 -0.2445 -0.2805
 8505W        W23636   6.003  17.892   1.754 -0.3083 -0.0379 -0.0919
 8506W        W23637   7.521  10.009   2.364  0.0833 -0.0979 -0.1447
 8507W        W23638  11.937  14.015   3.963  0.0774  0.2500 -0.0677
 8508W        W23639   6.474  14.443  15.637 -0.1458  0.1251 -0.0076
 8509W        W23640  17.281   9.464  11.871 -0.0771 -0.4059  0.1290
 8510W        W23641  18.181  16.320  11.704 -0.2945  0.0372 -0.0955
 8511W        W23642   0.290   4.258  15.568  0.3554  0.0050  0.2547
 8512W        W23643   6.283  14.845   2.024 -0.2032  0.0571  0.1190
 8513W        W23644   1.790  11.519  12.042  0.1484  0.0533  0.1484
 8514W        W23645   7.283   4.227  11.576  0.1018  0.0342  0.0935
 8515W        W23646  15.864  17.352   1.344  0.2711  0.1583  0.3710
 8516W        W23647   2.935   5.958  15.777 -0.1807 -0.0070  0.0631
 8517W        W23648   0.134   7.399  15.877 -0.2942 -0.2333  0.3166
 8518W        W23649  16.447   9.060   1.492  0.0808 -0.1728 -0.2596
 8519W        W23650   0.417   2.995  12.554  0.0114  0.1230 -0.1657
 8520W        W23651   1.551  15.989   2.521 -0.4521 -0.2715 -0.0219
 8521W        W23652   4.564   0.627   5.197  0.1521  0.0154 -0.0555
 8522W        W23653   2.779  14.608   4.788  0.0354  0.0954 -0.3312
 8523W        W23654   5.584   8.603  11.288  0.1051  0.0641  0.0215
 8524W        W23655   2.056  15.217  15.919 -0.1034 -0.3228 -0.0196
 8525W        W23656  15.152   1.236   2.996  0.0095 -0.3458 -0.1392
 8526W        W23657   5.631  16.550  15.361 -0.2911  0.0385  0.1017
 8527W        W23658   4.876   0.897  13.077  0.0651 -0.0567 -0.0435
 8528W        W23659   8.847  14.355   0.442 -0.4536 -0.2392  0.2119
 8529W        W23660  14.520   9.114   2.317 -0.1641 -0.0302  0.1248
 8530W        W23661  10.308   0.372   2.786 -0.0305 -0.0739  0.1246
 8531W        W23662   9.334   6.911  14.721  0.5819 -0.0785 -0.1299
 8532W        W23663   2.345  10.804   1.167  0.0262 -0.0921 -0.0660
 8533W        W23664  18.034  17.341   3.531  0.0158  0.0660 -0.0313
 8534W        W23665  17.754  18.253  10.299  0.3321  0.3620 -0.3032
 8535W        W23666  10.956   0.883   3.677 -0.0194 -0.2073  0.0819
 8536W        W23667  13.164   5.603   0.305 -0.0615  0.0092 -0.2180
 8537W        W23668  11.062  14.355  12.645 -0.0369 -0.0204 -0.0144
 8538W        W23669  12.199  14.233   1.991 -0.1380 -0.1388  0.2382
 8539W        W23670  17.331   4.624   3.465 -0.1877 -0.1264 -0.0507
 8540W        W23671  12.251   5.223   1.760  0.1168 -0.0877  0.1239
 8541W        W23672  16.684  14.304   4.775 -0.0105 -0.3757 -0.2980
 8542W        W23673  14.624   1.110   2.044 -0.0301 -0.3058 -0.2296
 8543W        W23674   3.205  14.793   0.500 -0.1161 -0.2499  0.0410
 8544W        W23675  13.336   1.449  11.281  0.0822 -0.3802 -0.1010
 8545W        W23676   4.196   9.995  14.142  0.3380 -0.3535  0.1897
 8546W        W23677  15.314   5.254   4.165 -0.1158  0.1810  0.2686
 8547W        W23678   9.127   4.777   3.948 -0.2156  0.2844 -0.0909
 8548W        W23679  13.756  17.138  15.996 -0.1230 -0.0008 -0.0174
 8549W        W23680   9.023   8.328  11.285 -0.3229 -0.3866  0.1954
 8550W        W23681   9.309   5.674  10.777 -0.3178  0.1829  0.0147
 8551W        W23682  13.314   4.790   0.218  0.0310 -0.3212  0.1580
 8552W        W23683  17.153  11.676  12.931 -0.0241 -0.1919  0.2931
 8553W        W23684  16.967  15.839   0.159  0.4040 -0.0907  0.1724
 8554W        W23685   7.587  10.239  13.842  0.0979 -0.2164  0.0707
 8555W        W23686   3.744   8.576  13.286 -0.1376 -0.0886 -0.0058
 8556W        W23687   4.723  16.324  11.740  0.0723 -0.6570 -0.1375
 8557W        W23688   8.709  10.888  12.564  0.1394 -0.1328 -0.2788
 8558W        W23689  13.350  11.168  14.825 -0.0800  0.1315 -0.1606
 8559W        W23690   7.419  18.048   1.263  0.1026  0.0371 -0.3413
 8560W        W23691   1.672  15.361   0.135  0.0141  0.1663  0.0232
 8561W        W23692  14.695   6.964   0.279  0.0506  0.0853  0.2250
 8562W        W23693   4.549   5.329   1.453  0.1116  0.0385  0.0814
 8563W        W23694   0.531   3.481  11.115 -0.0504  0.1793 -0.1205
 8564W        W23695   2.860   9.995  16.064 -0.0362  0.1054 -0.0878
 8565W        W23696  17.128   7.646  13.395  0.0600  0.1127 -0.0112
 8566W        W23697   3.882  13.233  11.328 -0.0157 -0.1720 -0.0076
 8567W        W23698  16.902  11.324  16.040 -0.1331  0.1431  0.2090
 8568W        W23699  10.223  17.394   0.283  0.0565 -0.0480 -0.0731
 8569W        W23700   8.697  14.624  15.877  0.0913  0.1454 -0.2135
 8570W        W23701  15.091   4.010   0.872 -0.4462  0.2332 -0.0566
 8571W        W23702  11.295   5.728  11.009 -0.0341 -0.2518  0.2945
 8572W        W23703   2.489   1.839  14.129  0.1648  0.0220 -0.0406
 8573W        W23704   0.394   8.669   3.899  0.2692 -0.1614  0.1056
 8574W        W23705  17.291   4.325   2.967 -0.1213  0.0308 -0.0622
 8575W        W23706   8.589  17.489   3.876 -0.1737 -0.0186  0.0688
 8576W        W23707  11.149   5.896  12.963  0.1095 -0.0445 -0.1532
 8577W        W23708   1.870   6.594   3.834  0.0060 -0.0192  0.2478
 8578W        W23709   4.426  12.095  10.880 -0.0886 -0.1058  0.2520
 8579W        W23710   1.840  10.951   3.337 -0.1057 -0.0157  0.1453
 8580W        W23711   3.276  13.189   0.378 -0.0460  0.2652  0.2616
 8581W        W23712   6.094   3.087  11.890  0.2891 -0.0128  0.3113
 8582W        W23713   8.812   8.711   3.526 -0.0456 -0.0197 -0.0602
 8583W        W23714   0.574   1.969   5.815 -0.1251 -0.4096  0.0355
 8584W        W23715   3.094  17.043  12.229  0.2483  0.1880  0.0491
 8585W        W23716   6.566   3.099  11.768  0.0158 -0.4121 -0.1192
 8586W        W23717  10.496  13.629   3.117 -0.1915 -0.3499  0.1510
 8587W        W23718   3.033  15.264  12.798 -0.0868  0.1744  0.0387
 8588W        W23719  11.562  17.797   1.446 -0.1037 -0.0166  0.0036
 8589W        W23720   1.998  11.829   3.320  0.2000  0.1668  0.0546
 8590W        W23721   2.589  11.331   5.441 -0.0638 -0.4458  0.1681
 8591W        W23722  18.247  14.722  13.224 -0.1017 -0.1726  0.1816
 8592W        W23723  17.790  10.017   4.871  0.2581 -0.1063  0.0044
 8593W        W23724  12.381  14.165   9.584  0.0788 -0.0287  0.0610
 8594W        W23725  15.092   4.947  14.444  0.0561  0.0661 -0.0614
 8595W        W23726  18.119   9.353   1.703 -0.1533  0.0231  0.0609
 8596W        W23727  17.371  13.616   0.622  0.0974  0.1729  0.4094
 8597W        W23728  15.945   4.751  14.868  0.0506  0.0581  0.0990
 8598W        W23729   0.950   0.502   1.286  0.1288 -0.0092  0.3889
 8599W        W23730   1.025   7.248  15.030 -0.0679 -0.2380 -0.0875
 8600W        W23731   0.921   0.124  13.929  0.1179 -0.1935 -0.2988
 8601W        W23732   8.395   4.238   3.128 -0.0494 -0.2951 -0.0828
 8602W        W23733   5.639  16.020   4.915  0.2709 -0.2095 -0.1756
 8603W        W23734  13.516  15.459  10.812 -0.0163 -0.0925 -0.1242
 8604W        W23735  15.348   6.254   3.266 -0.0392  0.1925  0.1072
 8605W        W23736   0.119  15.615  13.750 -0.1313  0.2166 -0.0517
 8606W        W23737  13.305   2.215  12.640 -0.2708  0.2868 -0.1273
 8607W        W23738  11.466  15.793   5.268  0.1500 -0.0024  0.2137
 8608W        W23739   6.607  12.932  13.276  0.0685  0.3279 -0.1492
 8609W        W23740  17.776  12.600   0.924 -0.5975 -0.0194  0.1180
 8610W        W23741  16.934  15.311  13.745  0.2157 -0.1962  0.1030
 8611W        W23742   2.937  13.499   5.561  0.2756  0.0875  0.0427
 8612W        W23743  18.076  14.653   3.226  0.0490  0.3015 -0.0713
 8613W        W23744   9.637  12.965   5.018  0.0073  0.3925  0.1315
 8614W        W23745   5.395   3.650   2.011  0.1810  0.0675 -0.0459
 8615W        W23746   5.472  15.333  14.833  0.1286  0.2748 -0.2035
 8616W        W23747  11.285   7.370   4.111  0.0258 -0.0326  0.0011
 8617W        W23748   2.612  15.590  12.626  0.1223  0.2471 -0.0170
 8618W        W23749   1.961   7.977  11.818 -0.1439  0.1092 -0.0031
 8619W        W23750   7.501  15.900  13.540 -0.1473  0.1490  0.1410
 8620W        W23751   2.810  11.608  13.638 -0.1498  0.1197 -0.0880
 8621W        W23752  10.050  10.988  11.922  0.0072 -0.2407 -0.0614
 8622W        W23753   1.906  10.265   1.459 -0.3058 -0.4202 -0.3597
 8623W        W23754  15.619   6.145  14.826  0.3452  0.1693  0.0948
 8624W        W23755  14.876   7.887   0.220 -0.0009  0.3743 -0.1668
 8625W        W23756  10.959   0.293  10.527  0.1046  0.2285 -0.1064
 8626W        W23757   2.008   7.887   2.235 -0.0535 -0.2093 -0.2800
 8627W        W23758   4.066   3.790  12.301 -0.0631 -0.2640  0.2302
 8628W        W23759  12.338   1.588  12.089 -0.1752 -0.0100 -0.0131
 8629W        W23760   5.790   8.924   3.391  0.3004  0.3470  0.0421
 8630W        W23761  15.317  11.194   4.392 -0.1155  0.0929  0.0622
 8631W        W23762   6.880  16.428   1.810  0.3186  0.0528 -0.0057
 8632W        W23763  15.437   0.357  13.235  0.0112 -0.0219 -0.1619
 8633W        W23764   5.913   9.401   1.437  0.1824 -0.0415  0.1701
 8634W        W23765  10.515   3.152   4.411  0.2756  0.0809  0.1513
 8635W        W23766   9.876   0.849  13.042  0.1372 -0.0923  0.1087
 8636W        W23767  10.693   3.910   4.181  0.0304 -0.1114 -0.1035
 8637W        W23768   9.104  13.296  12.778 -0.0885 -0.0101 -0.3837
 8638W        W23769  12.786  10.883  15.530  0.1145  0.0503  0.0303
 8639W        W23770   2.333   6.823   5.468 -0.0133 -0.2785  0.0269
 8640W        W23771   0.781  13.208  13.300  0.2199 -0.1650  0.0863
 8641W        W23772   4.819  13.055   4.809 -0.1347 -0.3346 -0.3227
 8642W        W23773   5.450  15.150   3.022  0.0220  0.2800 -0.1176
 8643W        W23774   2.251   4.826   4.908  0.1087  0.1098  0.0200
 8644W        W23775   5.590  11.539   1.145 -0.2825  0.3553 -0.2994
 8645W        W23776  18.016   5.468   1.809  0.1025  0.0453  0.0845
 8646W        W23777  16.166  18.289   3.229 -0.2251  0.0276  0.0560
 8647W        W23778   4.973   0.838   6.126 -0.1196  0.0514 -0.0664
 8648W        W23779  11.361   8.225  11.517 -0.3447 -0.2858 -0.0095
 8649W        W23780   3.498   3.244  14.121 -0.1688 -0.1395 -0.2272
 8650W        W23781   5.589  15.086   0.486 -0.0461  0.0069  0.1085
 8651W        W23782  16.089  12.869   4.424  0.2581 -0.1135  0.0605
 8652W        W23783  15.230   4.880  12.100  0.2339 -0.3330  0.0450
 8653W        W23784  15.694   0.004   0.295  0.1833  0.0938  0.2672
 8654W        W23785   5.638  12.898   3.711  0.1238 -0.1362 -0.2038
 8655W        W23786   4.381  10.495   4.918 -0.2459 -0.3528  0.1662
 8656W        W23787  10.423   5.085  10.816  0.2098 -0.0409  0.2294
 8657W        W23788  17.048  13.353   3.682  0.4751  0.1260  0.1800
 8658W        W23789  17.487   4.369  13.348  0.0752  0.0430 -0.0079
 8659W        W23790  15.836   9.014   1.742  0.0304  0.2386  0.1842
 8660W        W23791   1.960   6.791   0.328  0.2644  0.3285 -0.2664
 8661W        W23792   5.565  12.381   3.761 -0.0953  0.1396 -0.0256
 8662W        W23793  18.104  14.626   3.813 -0.0622 -0.1380  0.3903
 8663W        W23794   3.078  13.576  11.532 -0.1100 -0.1627 -0.2539
 8664W        W23795  13.034  10.005  13.472  0.0150  0.1073  0.1894
 8665W        W23796   5.810   9.855  12.495  0.2092  0.0912 -0.1211
 8666W        W23797   9.474  14.883  14.804 -0.2496 -0.0817 -0.0361
 8667W        W23798  16.735  15.660  14.205  0.0488  0.0631  0.1446
 8668W        W23799   1.702  12.211   1.607  0.1109 -0.4246 -0.0679
 8669W        W23800   6.552   2.618  15.289 -0.0497 -0.0772  0.2524
 8670W        W23801   0.112   4.196  14.984 -0.1269  0.0074  0.1007
 8671W        W23802  11.366   0.424  11.338 -0.2345 -0.0079 -0.2240
 8672W        W23803   3.483   5.794  11.852 -0.1460  0.2888  0.2204
 8673W        W23804  12.677  14.333  12.478  0.0211 -0.1218  0.2439
 8674W        W23805  12.809   1.991   2.895  0.0754  0.0147 -0.0366
 8675W        W23806  10.388  17.402   3.023  0.1167 -0.0356 -0.1472
 8676W        W23807   3.629   2.916   1.276 -0.1815  0.0019  0.0085
 8677W        W23808   7.571  13.776  13.024  0.0594 -0.1362  0.2623
 8678W        W23809  10.205  14.516  12.890  0.0003  0.0024 -0.1235
 8679W        W23810   9.260   7.550  11.120  0.0988  0.1140 -0.2532
 8680W        W23811   1.647   7.348  12.584  0.2123 -0.0826 -0.1874
 8681W        W23812  17.876  12.190  11.882  0.1390 -0.2289 -0.1047
 8682W        W23813  11.433  12.909   0.535 -0.1792 -0.2859 -0.0100
 8683W        W23814   5.582  15.592   3.918  0.0147 -0.1417 -0.0838
 8684W        W23815   1.962  16.225  12.426  0.1126 -0.0122 -0.0430
 8685W        W23816   4.501  16.331   1.726  0.0151 -0.1430  0.1022
 8686W        W23817  18.310   7.912   5.201 -0.2300  0.5220  0.0041
 8687W        W23818  15.084  15.802  14.203  0.1635 -0.0700 -0.1990
 8688W        W23819  16.535   2.261   3.053  0.2170  0.2257  0.0008
 8689W        W23820   4.707   2.104   3.343 -0.3277  0.3627  0.0238
 8690W        W23821   6.943  18.141   5.064  0.0423 -0.1040 -0.3186
 8691W        W23822   1.727   8.221   5.491 -0.2014  0.1226 -0.0651
 8692W        W23823  16.476   5.125  12.665  0.2861 -0.3237  0.1045
 8693W        W23824   9.811   0.374   1.799  0.3205  0.1297 -0.1130
 8694W        W23825  15.266  18.246  13.626 -0.0620  0.0458  0.2233
 8695W        W23826   7.669   0.332  14.672  0.0945 -0.2823 -0.1753
 8696W        W23827   9.876   4.946   0.781  0.1149  0.0424  0.0213
 8697W        W23828  14.600   9.807   1.125  0.0552 -0.0848  0.1006
 8698W        W23829  11.279  14.667  11.322 -0.1718 -0.2233  0.2927
 8699W        W23830   1.932  13.080  11.206  0.1187 -0.3446  0.0507
 8700W        W23831   0.268   1.385   5.524 -0.2225 -0.1656 -0.0576
 8701W        W23832   8.032   1.203  10.990  0.1354  0.0707 -0.0119
 8702W        W23833   9.005   0.571  11.743 -0.2400  0.3010  0.1646
 8703W        W23834   3.003   4.810  13.576 -0.0741  0.0224 -0.2023
 8704W        W23835   1.548   1.780  13.688 -0.0398 -0.3344  0.0292
 8705W        W23836  12.635   8.555   4.264  0.3007  0.0791 -0.2985
 8706W        W23837   6.692   9.369  12.540  0.1539  0.1418  0.0777
 8707W        W23838  15.396   0.195   5.003 -0.0836  0.0935  0.2620
 8708W        W23839  10.664  16.207   0.068  0.2028  0.1341  0.0848
 8709W        W23840   3.148  10.855   5.843  0.1536 -0.1047 -0.1987
 8710W        W23841   6.721  15.795  11.914  0.0611  0.0424  0.1887
 8711W        W23842   7.968   7.870  10.996 -0.1040 -0.1627 -0.2169
 8712W        W23843  14.925  15.130   1.837  0.1143  0.1037 -0.1923
 8713W        W23844   5.565   9.184  15.761 -0.0167  0.1935 -0.1208
 8714W        W23845   9.390   9.728   2.222 -0.3364  0.2501 -0.0942
 8715W        W23846  12.123  10.782   4.301  0.0170 -0.0412  0.1513
 8716W        W23847   1.572   4.177  15.268  0.0449  0.4019  0.0959
 8717W        W23848  16.049   2.547   2.916  0.0015 -0.0131  0.1371
 8718W        W23849  16.692   3.841   4.860 -0.2337 -0.2155 -0.1712
 8719W        W23850  15.906   0.147   1.969  0.0004  0.1222  0.0043
 8720W        W23851  16.256  17.064  12.638  0.3417 -0.0962 -0.2208
 8721W        W23852   2.483   3.037  13.756 -0.1323 -0.1026  0.0223
 8722W        W23853  13.908   4.472   3.530 -0.0695 -0.1392 -0.5432
 8723W        W23854   1.838  16.916   2.498  0.1912 -0.2609 -0.0535
 8724W        W23855  13.837   7.248  11.820  0.0418  0.1962 -0.0772
 8725W        W23856   5.371  10.471  12.778 -0.1066 -0.3049 -0.0077
 8726W        W23857   8.448  15.247  12.044  0.0764 -0.0839  0.0137
 8727W        W23858   0.336  11.740   3.439  0.0832  0.1015  0.1288
 8728W        W23859  18.270   0.204  10.859 -0.2388 -0.2468  0.0503
 8729W        W23860  15.627   2.614   0.443  0.0844 -0.0956 -0.2701
 8730W        W23861   2.335  17.749  11.430 -0.1113  0.0246 -0.0112
 8731W        W23862  12.564   8.801   3.019  0.1845 -0.0825 -0.1167
 8732W        W23863   6.663   3.843   2.774  0.1302 -0.0285  0.2141
 8733W        W23864   7.709  13.314   4.385  0.0806 -0.2434 -0.0671
 8734W        W23865  14.807  12.056  12.037 -0.2827 -0.0799 -0.1663
 8735W        W23866   1.231   6.411   0.954 -0.1412 -0.0298  0.1606
 8736W        W23867   7.087   9.855  15.752  0.0040 -0.1656 -0.0123
 8737W        W23868   2.912   3.652  11.279 -0.0440  0.0863  0.0074
 8738W        W23869  12.944  15.244   1.233 -0.2817  0.0024 -0.3108
 8739W        W23870   9.039   1.396  10.272 -0.1237  0.1424  0.0518
 8740W        W23871   8.612   9.867   1.023 -0.1432  0.0985  0.1173
 8741W        W23872  10.352   9.424  11.562 -0.1218  0.2489 -0.0673
 8742W        W23873  12.674   0.816  15.419 -0.1263  0.0316  0.1979
 8743W        W23874  10.628   1.373  13.615  0.2773 -0.1205 -0.1776
 8744W        W23875  15.202   5.808   3.810 -0.0278 -0.1462  0.0046
 8745W        W23876  17.261  16.663  13.623 -0.1465  0.1653  0.1254
 8746W        W23877  11.483   7.006  13.962  0.4782 -0.0561  0.1978
 8747W        W23878   1.007   6.925   2.098  0.2147 -0.1867  0.0816
 8748W        W23879  14.093   6.410   3.205 -0.1324 -0.2634  0.1045
 8749W        W23880  10.898   3.463  11.404  0.4354 -0.1279 -0.2008
 8750W        W23881   0.439   8.157  11.399 -0.1538 -0.1344 -0.3924
 8751W        W23882   0.066   3.365  14.458  0.1432 -0.1203 -0.2806
 8752W        W23883   4.549  15.070   4.786  0.1218 -0.2728  0.1029
 8753W        W23884   5.639  12.609  14.748  0.1884  0.1395 -0.0135
 8754W        W23885  17.135  13.645   2.870  0.3266  0.2235  0.2495
 8755W        W23886   1.357  13.694  11.328  0.4648 -0.0297 -0.1325
 8756W        W23887  15.770   1.072  14.289  0.0978 -0.4245 -0.0838
 8757W        W23888  11.437   2.261   4.035 -0.2979 -0.1008 -0.0049
 8758W        W23889   4.308   6.852   1.010 -0.0024 -0.2801  0.2459
 8759W        W23890  16.648  18.051   5.268 -0.0541  0.2109 -0.0416
 8760W        W23891   1.732   5.854  11.720  0.3011 -0.2401 -0.1289
 8761W        W23892   8.269   1.179   2.463 -0.1335 -0.0439 -0.1015
 8762W        W23893  17.120   1.492  14.088 -0.1465 -0.0985 -0.4930
 8763W        W23894  17.693   0.749  14.784 -0.1090  0.0343 -0.0858
 8764W        W23895   5.687   0.991   4.282  0.3737 -0.1279  0.4755
 8765W        W23896  11.711  10.351  14.205 -0.1144  0.1844 -0.0658
 8766W        W23897   4.655   5.769  13.495 -0.0424 -0.3882  0.1170
 8767W        W23898  12.914  15.357   9.265 -0.0088  0.0604  0.1814
 8768W        W23899  17.317   0.000   4.668 -0.0277 -0.0637  0.0417
 8769W        W23900   0.539   7.271  10.835 -0.0966  0.1028 -0.1467
 8770W        W23901  15.113  13.081  11.220 -0.0027 -0.2354  0.1141
 8771W        W23902  13.112   8.592  16.062 -0.0430 -0.0482 -0.2071
 8772W        W23903  10.202   0.854  13.826 -0.0157  0.0351  0.0631
 8773W        W23904   6.997   9.960   0.665 -0.0648 -0.0261  0.1425
 8774W        W23905   8.872   2.528  15.610  0.1046  0.2023 -0.0393
 8775W        W23906  11.216   8.530   5.960  0.1520  0.1293  0.0178
 8776W        W23907   0.271   3.861  11.266  0.0513 -0.0443 -0.4044
 8777W        W23908   2.933  10.996  13.757 -0.1903 -0.0433  0.2209
 8778W        W23909  16.772   4.806  15.275 -0.1597  0.0083 -0.0755
 8779W        W23910  12.190  18.019  12.810 -0.1392  0.0128  0.2424
 8780W        W23911   4.298   8.298   2.900  0.2141  0.0498 -0.2936
 8781W        W23912  11.207   6.966   1.281 -0.0996 -0.1775  0.1039
 8782W        W23913  13.512   4.082  15.523 -0.1967  0.0205  0.1103
 8783W        W23914   1.099  12.748  11.515 -0.0693 -0.1499 -0.0239
 8784W        W23915   5.335   9.449   0.601  0.2154  0.5912 -0.0337
 8785W        W23916  16.998  14.197  10.561  0.0110  0.1434 -0.0080
 8786W        W23917   7.405  11.978  10.735  0.3356  0.0377  0.2287
 8787W        W23918   6.426   1.159  15.379  0.0472  0.1155 -0.0893
 8788W        W23919  16.296  14.754  13.423  0.2949  0.1502 -0.3527
 8789W        W23920   8.869   2.144   3.437  0.1656 -0.0582 -0.0066
 8790W        W23921  10.315  12.362  15.495  0.0285  0.1371  0.1241
 8791W        W23922  11.567  10.546   0.949 -0.0771  0.0618  0.1064
 8792W        W23923   7.235   8.098   3.859  0.1128 -0.0748 -0.2501
 8793W        W23924   4.161  15.701   4.323 -0.2026  0.1345 -0.0454
 8794W        W23925  13.090  14.948  11.702 -0.1210  0.1071  0.5390
 8795W        W23926   6.605  13.216  11.499  0.0982 -0.1660 -0.4068
 8796W        W23927   0.272   2.614   4.235  0.0372 -0.1641 -0.0938
 8797W        W23928   2.027   9.349  15.460  0.0060  0.1355 -0.0155
 8798W        W23929   1.348   0.275  12.103  0.1204  0.5122  0.1465
 8799W        W23930   4.120   1.274  13.020  0.1155 -0.3902  0.0335
 8800W        W23931   4.112  12.933  14.616 -0.0255 -0.2453 -0.1897
 8801W        W23932  17.253   4.807   4.084  0.1152  0.0136  0.2047
 8802W        W23933   5.320   6.782  15.279  0.0194  0.1773 -0.0554
 8803W        W23934  18.304  18.023   3.133 -0.1306 -0.0215  0.2007
 8804W        W23935   8.865  11.401  10.536  0.2598  0.4026  0.1555
 8805W        W23936   0.711  15.573  12.298 -0.0975 -0.0059 -0.1627
 8806W        W23937  16.248   8.133   4.481 -0.0854 -0.0051  0.0503
 8807W        W23938  10.384  17.515   3.814 -0.0777  0.1705 -0.1010
 8808W        W23939   3.873   4.730   0.973 -0.0338 -0.1492  0.1293
 8809W        W23940  11.880  14.558  13.628 -0.0402 -0.1337 -0.0834
 8810W        W23941   3.074  14.530  15.145  0.0620 -0.0124  0.1289
 8811W        W23942  15.191  16.940   4.230  0.0398  0.3340 -0.0048
 8812W        W23943   7.937   8.187   0.037 -0.0405 -0.1405 -0.1390
 8813W        W23944  16.751   7.522  12.733 -0.1682  0.0689 -0.1318
 8814W        W23945   2.071   5.058  13.850  0.2379 -0.1306  0.0312
 8815W        W23946   0.137  14.335  13.808 -0.0473  0.0677 -0.0957
 8816W        W23947  12.005   8.310  12.170 -0.0532  0.0090  0.0846
 8817W        W23948  13.117  10.520  11.630  0.1659  0.1515 -0.0800
 8818W        W23949  10.239  14.987  12.643  0.0155  0.2250  0.0437
 8819W        W23950   2.654  17.231  12.034 -0.0965 -0.0337 -0.1468
 8820W        W23951   8.847   6.919  14.991 -0.1674  0.0047 -0.2263
 8821W        W23952  16.465   7.394  14.529  0.3291  0.2236  0.0902
 8822W        W23953  13.592  13.566  11.903 -0.1735 -0.2887 -0.1578
 8823W        W23954  13.691  11.872   4.928  0.3230  0.1259  0.1372
 8824W        W23955   2.671   7.069  13.662  0.0991 -0.0262  0.0484
 8825W        W23956   7.558   5.460  16.007 -0.1246 -0.2413  0.0713
 8826W        W23957   9.386   6.516  15.055  0.2061 -0.0379  0.0039
 8827W        W23958   9.648  17.529   0.681 -0.0608 -0.0133 -0.1059
 8828W        W23959   5.477   7.096   5.115  0.0460  0.3151 -0.1122
 8829W        W23960   7.070  13.296   3.686 -0.2015 -0.1410 -0.2342
 8830W        W23961  12.125  14.068  14.952  0.1009  0.1838  0.2425
 8831W        W23962  16.857  18.064  13.982 -0.3114  0.1977 -0.2456
 8832W        W23963   5.497  16.787   1.336 -0.1876  0.2012  0.0946
 8833W        W23964  12.854   0.599   2.166 -0.0392  0.0728  0.0238
 8834W        W23965   4.529   2.208   1.399  0.2355 -0.0569 -0.2999
 8835W        W23966   8.536   4.979  14.155 -0.0888  0.0371  0.3783
 8836W        W23967  14.546  10.322   3.041  0.0511 -0.1760  0.2232
 8837W        W23968  12.768  13.418  11.458 -0.1345  0.0372 -0.2361
 8838W        W23969  15.600  13.003  13.780 -0.1242 -0.0726 -0.0939
 8839W        W23970  18.050   5.786   0.545 -0.0229  0.0237 -0.0802
 8840W        W23971   4.041  14.965   5.061 -0.0703  0.1504 -0.1565
 8841W        W23972  13.575  17.320  11.757 -0.3395  0.1299  0.3832
 8842W        W23973   8.573  12.343  12.221  0.4525  0.0233  0.2401
 8843W        W23974   3.393  16.557   1.335  0.1249  0.0966 -0.0454
 8844W        W23975   2.125   2.541  12.445  0.1458  0.2003  0.0138
 8845W        W23976  17.945   4.095   0.466  0.1614  0.2272 -0.2354
 8846W        W23977   0.366  10.632  10.693 -0.0326 -0.0768  0.0060
 8847W        W23978  11.328   6.856   4.480  0.2024 -0.0694  0.0065
 8848W        W23979   7.023   6.420   5.458 -0.1244 -0.0693  0.1532
 8849W        W23980  15.464   3.493  14.983 -0.1939 -0.0294 -0.0286
 8850W        W23981   6.052   4.563   4.484 -0.3223  0.0311  0.0705
 8851W        W23982   9.570   6.632  14.283  0.1369  0.0516 -0.1136
 8852W        W23983  14.714   8.121   3.754  0.0807  0.1019 -0.0520
 8853W        W23984   5.197   8.075  13.757 -0.0853  0.1789 -0.2500
 8854W        W23985  17.920   1.107   3.445 -0.0224 -0.2019  0.0969
 8855W        W23986  15.562   1.692   0.310 -0.2304  0.1292  0.3426
 8856W        W23987   5.837  13.373  11.861 -0.2970 -0.2229  0.1288
 8857W        W23988  14.998  13.898   6.080  0.0225  0.1704 -0.3677
 8858W        W23989   9.315  12.065   3.408 -0.0150 -0.2490  0.4022
 8859W        W23990   0.254  16.428   2.592  0.1986  0.0384 -0.1034
 8860W        W23991  17.294  16.499   2.063  0.1032 -0.0589  0.3401
 8861W        W23992   4.184   3.507   3.878 -0.1067  0.1265 -0.3652
 8862W        W23993   5.549   3.386  13.974  0.4238  0.0108  0.0254
 8863W        W23994  14.359  13.782   3.859 -0.2319 -0.1426  0.0260
 8864W        W23995   7.205  12.834   2.786 -0.2680 -0.0043  0.2327
 8865W        W23996   1.990  10.554   1.846 -0.1603 -0.2373  0.1419
 8866W        W23997   6.797  13.807   0.242  0.0151 -0.2744  0.0455
 8867W        W23998  16.635  16.425  11.436 -0.0036 -0.0186  0.2471
 8868W        W23999   4.669   0.696   2.416  0.1757  0.1492 -0.0065
 8869W        W24000   1.940  16.640   4.502  0.3759 -0.1043 -0.0596
 8870W        W24001   9.000  15.762   1.768  0.0166  0.1108  0.1122
 8871W        W24002  15.955  12.985   0.113 -0.1913 -0.1526 -0.0314
 8872W        W24003   4.718   0.521   3.242  0.0701  0.0054 -0.1149
 8873W        W24004   1.235   6.998  14.233 -0.0732  0.1734  0.2332
 8874W        W24005  11.511  14.280  12.839 -0.0776  0.0040 -0.1830
 8875W        W24006   1.114   0.369   3.228  0.1692  0.3401  0.1778
 8876W        W24007  18.267  16.326   5.144  0.1832  0.3955 -0.1591
 8877W        W24008  12.909   4.302   0.641 -0.0720  0.1071  0.2899
 8878W        W24009   0.940   5.291   5.622 -0.1076 -0.0491  0.0352
 8879W        W24010   7.803  15.496  13.839  0.2199  0.0087 -0.0968
 8880W        W24011   5.864  18.002  11.359  0.2253 -0.1934 -0.2926
 8881W        W24012   7.556  16.099  10.088 -0.3461  0.0699  0.0256
 8882W        W24013   4.871   4.675   3.387  0.0878  0.2591 -0.2263
 8883W        W24014  17.341   6.521   0.762  0.0867  0.0297 -0.1679
 8884W        W24015  15.226  18.163   3.798 -0.0325 -0.0662  0.1642
 8885W        W24016   3.514  13.178  14.369  0.0675  0.1765  0.1518
 8886W        W24017   8.943  14.515  12.515  0.1216 -0.0590  0.1117
 8887W        W24018   3.574   1.083  11.544 -0.0516  0.2244  0.0507
 8888W        W24019   9.392  11.660  13.987  0.0370  0.2156  0.1223
 8889W        W24020  12.114  18.157   0.222 -0.1029  0.1022 -0.0779
 8890W        W24021   2.066   8.854   0.504  0.2216  0.2283  0.0773
 8891W        W24022  16.908  15.892   1.499 -0.0256 -0.2905  0.1710
 8892W        W24023   9.825  16.203  15.990 -0.4037 -0.1453  0.0698
 8893W        W24024  17.369  16.064  16.091  0.0585 -0.2182 -0.0733
 8894W        W24025   9.269  12.630  14.659  0.2287 -0.1860 -0.0318
 8895W        W24026  12.749  12.205   4.069  0.0802 -0.1576 -0.1240
 8896W        W24027  16.676   1.854  14.809 -0.2543  0.2629  0.1739
 8897W        W24028  15.781  10.934  11.676 -0.0686  0.0876  0.3712
 8898W        W24029  11.819   9.139   3.547  0.0592 -0.0597 -0.1926
 8899W        W24030   5.176  11.534  15.987 -0.2302 -0.0023 -0.1237
 8900W        W24031  12.127   5.905   3.369  0.2039 -0.2325 -0.1417
 8901W        W24032   0.513   5.203   3.330 -0.1179 -0.5303  0.2931
 8902W        W24033  13.661   4.435  12.016 -0.1193 -0.2243  0.0326
 8903W        W24034   4.921   8.330  10.774 -0.0666 -0.2383 -0.2554
 8904W        W24035   2.982   5.140   0.670 -0.1777  0.1422 -0.2399
 8905W        W24036   5.360  16.466  16.103 -0.0414 -0.0068 -0.2148
 8906W        W24037  14.070  14.752  13.901 -0.3228  0.3736  0.5342
 8907W        W24038   2.904   4.775   1.103 -0.5883 -0.4939 -0.1499
 8908W        W24039   4.536  14.528  12.558  0.0871 -0.2023  0.1337
 8909W        W24040   9.214   2.202  12.194 -0.2601  0.2582  0.1384
 8910W        W24041   7.550   3.854  11.309  0.1217  0.1022 -0.1858
 8911W        W24042  17.770  14.515   1.071  0.0290 -0.2435 -0.0801
 8912W        W24043   9.403   1.041  11.646 -0.1969  0.0131 -0.0697
 8913W        W24044  15.852  12.948   3.489  0.1026  0.3362  0.0359
 8914W        W24045  12.866   4.647   4.821 -0.0572  0.1884  0.0815
 8915W        W24046  11.570   0.839   2.366 -0.0444  0.1432 -0.0017
 8916W        W24047   6.292   2.784   6.145 -0.2412  0.1796  0.0592
 8917W        W24048   2.477   6.759   0.301 -0.1030 -0.0899  0.0565
 8918W        W24049   0.993  11.282  15.294  0.0069  0.0961 -0.0965
 8919W        W24050  11.316  14.166  10.855  0.2011  0.0990 -0.1225
 8920W        W24051   2.178  10.772  12.761  0.0296  0.1666  0.0965
 8921W        W24052   6.510   7.382  12.628 -0.2157  0.0079  0.0874
 8922W        W24053   6.181   4.042   1.502  0.0173  0.0326  0.0333
 8923W        W24054   4.399  16.406   0.062  0.1591 -0.0883 -0.2525
 8924W        W24055   4.481  12.810   4.562 -0.3332  0.0496 -0.0804
 8925W        W24056  17.909   8.262  14.758  0.0439  0.2903  0.0919
 8926W        W24057  12.224   3.347  11.679  0.2705 -0.0520 -0.0993
 8927W        W24058   5.423   0.260   1.938  0.0779 -0.2080  0.1302
 8928W        W24059   6.233  18.083  12.443  0.0548  0.1725 -0.3227
 8929W        W24060  16.522   5.570   0.206 -0.2228  0.0440  0.0019
 8930W        W24061  17.027  18.086   3.863  0.2175  0.2377  0.0843
 8931W        W24062   9.640  12.347   1.283  0.1623  0.0150  0.3387
 8932W        W24063   6.780   7.376   0.193 -0.0707  0.3559 -0.2619
 8933W        W24064   4.649   9.453   2.599 -0.2143 -0.1718 -0.1223
 8934W        W24065  11.751  15.237   4.488 -0.2098  0.1644  0.0379
 8935W        W24066   6.051   5.166   4.272  0.0128 -0.1002 -0.2156
 8936W        W24067  11.433  16.892  12.671  0.0838  0.1571  0.2319
 8937W        W24068   3.804  14.572   4.670 -0.0690 -0.0735 -0.3596
 8938W        W24069  13.550   3.541  10.387 -0.1309 -0.1868  0.1451
 8939W        W24070  11.156   1.655  12.561  0.1251 -0.3858  0.3898
 8940W        W24071  16.688   6.359   2.253  0.0395 -0.1855 -0.2274
 8941W        W24072  17.690  14.004   0.458 -0.0058  0.2003  0.1209
 8942W        W24073   0.930  11.572   1.795 -0.0935  0.3017 -0.3864
 8943W        W24074   3.014   2.224  14.897  0.1031  0.0169  0.2221
 8944W        W24075   0.160   9.866   2.495 -0.1789 -0.0403 -0.0197
 8945W        W24076   5.736  15.089  11.396 -0.0677 -0.3430  0.1329
 8946W        W24077  10.922   2.347   3.896  0.0913  0.0040  0.2573
 8947W        W24078  12.707   6.845  14.348  0.0142  0.1338 -0.1636
 8948W        W24079   4.775   1.900  11.384  0.2664  0.1024  0.0811
 8949W        W24080   8.617   4.573  14.472  0.2397  0.0700  0.2880
 8950W        W24081   6.555  10.339   4.686  0.1665 -0.0698 -0.2877
 8951W        W24082  16.934  17.676   3.482 -0.1773 -0.2256  0.0942
 8952W        W24083   8.518   3.317   2.621  0.1928  0.1446  0.0671
 8953W        W24084   0.460  15.372  12.691 -0.2386  0.0818  0.0217
 8954W        W24085  17.067   4.133   1.881  0.0656 -0.0548 -0.0588
 8955W        W24086  11.765   7.297   0.039 -0.3160 -0.3444 -0.0381
 8956W        W24087   9.651   9.513  15.483  0.2345 -0.2709 -0.0605
 8957W        W24088   6.498  15.439   3.800  0.1668  0.1144  0.0341
 8958W        W24089  13.915   2.402   3.623  0.0735  0.0106  0.2636
 8959W        W24090   6.991   3.713   2.130  0.1264 -0.1101 -0.0593
 8960W        W24091   4.403  17.658  13.115 -0.1988  0.0849 -0.0615
 8961W        W24092  17.776  12.840   1.651  0.0648  0.1610 -0.3154
 8962W        W24093   0.033  15.695   0.484  0.0786  0.0134 -0.1506
 8963W        W24094  15.821  11.921   5.312 -0.0446 -0.1584 -0.0302
 8964W        W24095  11.990   3.958   0.872 -0.2169  0.0090  0.1379
 8965W        W24096   5.921  11.521   4.782 -0.5104  0.2454  0.3145
 8966W        W24097   8.733  13.550  12.446 -0.1837  0.0263 -0.4012
 8967W        W24098  17.384  18.023  14.012  0.0936  0.1092 -0.1879
 8968W        W24099  11.154  14.648  15.384  0.1325  0.5410  0.3293
 8969W        W24100   1.269  17.113  15.624 -0.2694 -0.1865  0.0377
 8970W        W24101  11.889   3.057   2.545 -0.1112  0.1241 -0.3051
 8971W        W24102   5.985   8.483  13.611 -0.0296  0.2857 -0.0773
 8972W        W24103   3.940   3.425  14.097  0.0151 -0.0961 -0.1026
 8973W        W24104   0.286   3.785  14.626  0.5227 -0.0031  0.0156
 8974W        W24105  17.484   7.956   1.828 -0.2708 -0.0233 -0.1935
 8975W        W24106   7.063  13.192   0.030  0.0836  0.1473 -0.0921
 8976W        W24107   9.715  16.995  12.151 -0.0705  0.4290 -0.0793
 8977W        W24108  17.794  14.045  14.983  0.0620 -0.0901  0.1797
 8978W        W24109  13.126   4.007  12.560 -0.1238  0.1269 -0.0984
 8979W        W24110   8.443  14.526  12.302 -0.2195  0.0554 -0.0249
 8980W        W24111   5.391   1.870   5.516  0.1619 -0.2491 -0.1516
 8981W        W24112   8.053  10.925   3.409  0.0991 -0.2045 -0.0105
 8982W        W24113   0.764   5.547  14.779 -0.2601  0.0265  0.0568
 8983W        W24114  14.472   0.111   1.205 -0.0628  0.0123  0.2112
 8984W        W24115   7.713   8.855  14.884  0.0705  0.2131 -0.4383
 8985W        W24116  17.663  12.956   2.722 -0.1241 -0.1422 -0.1918
 8986W        W24117  17.838   1.918   4.459 -0.0157 -0.2554 -0.2011
 8987W        W24118  12.843   6.003   1.875  0.1737 -0.1079  0.0671
 8988W        W24119   6.650   9.583  15.824  0.2355 -0.0162  0.2776
 8989W        W24120  15.086   2.508  12.780 -0.4552 -0.0383  0.1018
 8990W        W24121  11.528   7.400   1.485 -0.0194  0.1149 -0.1197
 8991W        W24122  17.399  15.178  13.015 -0.1358 -0.0174  0.5627
 8992W        W24123   9.853  17.357   2.358  0.2474 -0.1352  0.0722
 8993W        W24124   8.999   8.811  15.997  0.0460  0.1248  0.1588
 8994W        W24125  16.464  10.354  11.752 -0.0238  0.1535 -0.0097
 8995W        W24126   1.576  12.068  13.194  0.0371 -0.1401  0.0731
 8996W        W24127  17.937  16.517  12.714 -0.0888  0.2765  0.3627
 8997W        W24128   5.051   1.207   4.789  0.0068  0.0441  0.2109
 8998W        W24129   7.727  18.131   2.076 -0.0747  0.1801  0.0712
 8999W        W24130  14.398  10.272   4.963 -0.0032 -0.2654  0.1737
 9000W        W24131   2.535  12.771   3.383  0.3691 -0.1308  0.1596
 9001W        W24132  11.539  10.573  14.763  0.1025  0.0601 -0.1549
 9002W        W24133   4.423  13.323   1.578  0.2531  0.0420  0.2150
 9003W        W24134  14.466  17.650   0.704 -0.0513 -0.0522 -0.0141
 9004W        W24135   8.260  16.310  10.061  0.1659  0.0159 -0.1906
 9005W        W24136  15.743   4.710  12.125 -0.1547  0.2085  0.0421
 9006W        W24137  10.790   5.861   0.302  0.2665 -0.0785  0.0735
 9007W        W24138   8.231  12.091  14.633  0.0659 -0.2219 -0.2797
 9008W        W24139  17.537  16.116  13.828  0.1185 -0.0229  0.0146
 9009W        W24140   1.242   0.246  15.661 -0.1783 -0.0329  0.0173
 9010W        W24141   0.073  15.959  16.060  0.1263 -0.1544  0.1390
 9011W        W24142   6.524  18.052  13.274 -0.0278  0.0563  0.0930
 9012W        W24143  10.276   8.905  13.830 -0.0313 -0.1505 -0.0440
 9013W        W24144   0.576   0.372   2.067 -0.1312  0.0901  0.3583
 9014W        W24145   0.623   1.910  12.307 -0.2748  0.1305 -0.2320
 9015W        W24146   6.598   0.965  12.662 -0.0121 -0.0912 -0.1124
 9016W        W24147  14.089   6.186   3.696  0.1390  0.2866  0.0631
 9017W        W24148  16.872   2.384   6.102  0.0028 -0.0189 -0.3177
 9018W        W24149  12.535  11.667   0.046 -0.0007 -0.0619 -0.2211
 9019W        W24150  16.297   9.129   9.768  0.2798  0.0476  0.3216
 9020W        W24151  16.694  11.043   4.280 -0.0930 -0.0516  0.1140
 9021W        W24152  16.092   0.864   5.580 -0.1403  0.0583  0.1374
 9022W        W24153   2.118   3.318   0.471 -0.2414  0.2386  0.3148
 9023W        W24154  14.827   3.610  15.663  0.2060 -0.0454  0.0837
 9024W        W24155   4.201  17.457   4.073  0.0945 -0.3061 -0.1817
 9025W        W24156  15.219   5.636  12.270 -0.2301  0.0260  0.3864
 9026W        W24157   3.409   4.266   0.434  0.0773  0.2604 -0.0684
 9027W        W24158   7.452   8.145  10.235 -0.0143  0.1493 -0.1613
 9028W        W24159  12.976  17.286   0.573  0.0487 -0.1690  0.5231
 9029W        W24160   0.769  17.638   0.134  0.0279  0.3499 -0.4165
 9030W        W24161  12.355   2.311   0.649  0.3801  0.0469  0.1113
 9031W        W24162  14.807   8.847  12.555  0.1968 -0.0323 -0.0307
 9032W        W24163   0.533   4.199  12.926 -0.1489 -0.3826  0.3190
 9033W        W24164   7.474   6.303  13.752  0.0445 -0.1492  0.1243
 9034W        W24165   8.981   6.093   3.189 -0.0875 -0.0154  0.0679
 9035W        W24166  16.201  15.577   5.959  0.1686 -0.0620 -0.1384
 9036W        W24167  17.928  14.961   2.167 -0.2876 -0.3363  0.0886
 9037W        W24168   4.907   6.864   4.713 -0.2708  0.0612 -0.0525
 9038W        W24169   4.102   0.255   1.848  0.2011 -0.1279 -0.0667
 9039W        W24170   1.634  11.023   1.730 -0.2019 -0.3007  0.0030
 9040W        W24171   1.367   2.284   3.192  0.0870 -0.2913  0.0877
 9041W        W24172  14.354   8.738  12.372 -0.1680  0.1662  0.2163
 9042W        W24173  16.239  18.233   2.291 -0.0414 -0.1882  0.0379
 9043W        W24174   6.054   9.755   0.259  0.1055 -0.0887  0.1273
 9044W        W24175  12.318   1.187  14.690 -0.2695 -0.1700  0.0869
 9045W        W24176   6.444   1.028  13.807 -0.0592  0.0555 -0.1374
 9046W        W24177   3.536   1.833  12.354  0.3186 -0.1251  0.0553
 9047W        W24178   9.520   2.430   4.619 -0.0614 -0.1720 -0.0213
 9048W        W24179   8.009   4.047   3.489  0.3413  0.0707  0.5606
 9049W        W24180  17.383   7.190   4.322 -0.2622  0.1072 -0.2228
 9050W        W24181   7.050   3.489  11.266  0.0727 -0.2773  0.1699
 9051W        W24182   8.778  10.625  11.519  0.1271  0.1858 -0.3011
 9052W        W24183  15.343   1.366  14.596  0.1946  0.1430 -0.0523
 9053W        W24184  15.954  16.333   3.734  0.0013  0.3380  0.1251
 9054W        W24185  10.769  15.114  14.785  0.2416  0.1353 -0.0233
 9055W        W24186  12.155  11.343   1.150 -0.1136  0.0360  0.5636
 9056W        W24187  12.349   8.405  14.926  0.0666 -0.1719 -0.0348
 9057W        W24188  15.768   1.893   1.570  0.1852  0.0151  0.4715
 9058W        W24189  10.787  15.399  11.088  0.1093 -0.0553 -0.1044
 9059W        W24190   6.025  16.933  12.597  0.3218 -0.0001  0.1438
 9060W        W24191  10.145  12.530  13.254  0.0373 -0.0569  0.4407
 9061W        W24192  11.652  11.514  11.079 -0.2307 -0.2868  0.2493
 9062W        W24193  12.622   0.617   5.290 -0.0385  0.2770 -0.0164
 9063W        W24194  10.085   7.234  12.168  0.0537  0.2686 -0.4037
 9064W        W24195   0.190   0.790  13.087 -0.0332  0.0683  0.2758
 9065W        W24196   3.921  10.486   3.168 -0.0604  0.0805 -0.1649
 9066W        W24197  16.383   9.616  15.893  0.0496  0.1839 -0.0701
 9067W        W24198   0.233  13.235   0.215  0.2222 -0.1316  0.3418
 9068W        W24199  15.459  13.013   0.334  0.2043 -0.1382 -0.0977
 9069W        W24200   3.938  13.697  11.580  0.1151  0.1722 -0.3420
 9070W        W24201  17.653   2.010   2.775  0.0116 -0.0624  0.2971
 9071W        W24202   3.104   0.451   3.391  0.0761  0.1704 -0.1100
 9072W        W24203  14.599  15.505   2.585 -0.0831  0.0825  0.2811
 9073W        W24204   7.769  14.067   2.604 -0.1391  0.0162 -0.1540
 9074W        W24205   2.461   7.298   1.011 -0.1588  0.0982 -0.2485
 9075W        W24206   4.527  12.078   2.354 -0.1785 -0.3218 -0.2565
 9076W        W24207  13.754  14.724  13.106  0.0765 -0.0696  0.3268
 9077W        W24208  11.894  14.802   3.324  0.0485 -0.0598 -0.1391
 9078W        W24209  13.257   1.872  15.166 -0.3167 -0.0091 -0.1272
 9079W        W24210  16.866   8.187  14.896 -0.1527 -0.2007  0.1377
 9080W        W24211   6.947   8.520  11.410 -0.2712 -0.0678  0.0879
 9081W        W24212  15.583  16.114   1.449  0.2356  0.2449  0.3231
 9082W        W24213  14.797  13.906   4.595  0.2317  0.0432 -0.0596
 9083W        W24214   6.359  12.823   6.250  0.2790 -0.0563 -0.0656
 9084W        W24215   0.478   7.192   4.263  0.1178 -0.1410  0.0920
 9085W        W24216  15.723  14.750   0.652  0.0713 -0.0435  0.0011
 9086W        W24217   6.692  11.143   1.875  0.0268 -0.0904  0.1426
 9087W        W24218   5.048  16.538  15.399 -0.2470 -0.2306  0.0641
 9088W        W24219   0.469   4.940  12.393  0.0610 -0.0066  0.1016
 9089W        W24220  14.620  13.081   2.506 -0.1422 -0.1085  0.0055
 9090W        W24221   1.050  12.349   0.442 -0.1649 -0.0567 -0.1336
 9091W        W24222  18.314  18.155   2.402 -0.1989  0.1752  0.2418
 9092W        W24223   3.239   6.325  15.491 -0.1113  0.1365  0.0653
 9093W        W24224  16.374   5.024  15.552  0.2161 -0.0432  0.0102
 9094W        W24225  15.760  14.027   4.589  0.1662 -0.1751  0.2376
 9095W        W24226   0.070  11.612  10.019  0.2029  0.1210  0.2073
 9096W        W24227   4.711   2.214  15.489  0.2179 -0.2345  0.1015
 9097W        W24228   8.405  12.522   5.605  0.2638  0.0337 -0.0056
 9098W        W24229   7.903  16.836   0.571  0.3137 -0.3007 -0.3225
 9099W        W24230   0.918  17.074   2.378  0.2428 -0.3586 -0.0713
 9100W        W24231  10.523   9.408  12.563  0.3090 -0.1209 -0.0896
 9101W        W24232  15.208  14.092  14.040  0.0663  0.0092 -0.1343
 9102W        W24233   4.779  17.942   2.294  0.1030  0.2473 -0.3220
 9103W        W24234   7.043   0.424  14.135 -0.4071  0.0873 -0.3714
 9104W        W24235  10.318  11.310   0.318  0.1398  0.1313  0.2580
 9105W        W24236  14.161  11.720  13.014  0.1458  0.0632  0.3357
 9106W        W24237   9.982   3.477  13.469 -0.1821  0.0872  0.0350
 9107W        W24238   8.742   3.502  14.276 -0.2133 -0.2284  0.2512
 9108W        W24239  16.494   4.868   1.343 -0.1414  0.1688 -0.3042
 9109W        W24240  13.260   3.959  13.122  0.1011 -0.1209 -0.1079
 9110W        W24241  14.210   2.174   1.122 -0.0706 -0.1942 -0.1706
 9111W        W24242  15.158   7.156  11.394  0.0188 -0.1778  0.2308
 9112W        W24243  14.353   2.450  15.101 -0.0968  0.3116 -0.0788
 9113W        W24244  17.053  16.118  10.868  0.0620  0.1618 -0.0759
 9114W        W24245  14.636   4.796  14.709 -0.0458 -0.3261 -0.2648
 9115W        W24246   5.440  18.276  15.524  0.1319  0.1398  0.1469
 9116W        W24247   4.621   9.584  11.897  0.4778 -0.0714  0.0463
 9117W        W24248   5.832  15.748  13.455  0.2050 -0.2686  0.1480
 9118W        W24249  16.038   2.939  15.321  0.1472 -0.0083  0.1609
 9119W        W24250   6.639   2.576  12.408  0.0284 -0.1352  0.2184
 9120W        W24251  17.090  15.304   2.462 -0.2070  0.1062  0.0334
 9121W        W24252  11.692   6.563   3.003  0.3084  0.1037  0.2836
 9122W        W24253  14.545  18.104   2.912 -0.0274 -0.1058  0.2459
 9123W        W24254   2.415   5.520  11.934  0.0870 -0.1148 -0.3106
 9124W        W24255   5.443   9.512   0.074 -0.0465  0.0895  0.1324
 9125W        W24256   0.998  14.821  15.178 -0.0104  0.3287  0.0417
 9126W        W24257  10.029   8.380   1.827  0.0712 -0.1439  0.0994
 9127W        W24258  11.896   7.613  12.719  0.0252 -0.0447  0.1909
 9128W        W24259   5.352  16.139   1.256  0.1403 -0.0553 -0.1318
 9129W        W24260   7.483   3.017  13.484  0.0948 -0.0691  0.0148
 9130W        W24261   0.447   5.527   2.906 -0.1029 -0.3497  0.0717
 9131W        W24262  16.921  10.715  12.903  0.2995  0.0308  0.0960
 9132W        W24263  11.189  10.673  12.180  0.0868  0.0133 -0.1395
 9133W        W24264   5.780   3.908   4.315  0.2619 -0.1758 -0.2404
 9134W        W24265   8.882  12.245   3.169  0.2287 -0.2270  0.2032
 9135W        W24266  12.961  15.118   2.368  0.1946  0.1190  0.0885
 9136W        W24267   7.116   3.194  10.825  0.0866  0.1115 -0.0431
 9137W        W24268  15.880   9.166  12.465 -0.0069 -0.0494  0.1701
 9138W        W24269   7.777  11.457   1.431 -0.0432  0.0487 -0.0466
 9139W        W24270  17.808  15.582   4.255 -0.1117 -0.2273  0.4917
 9140W        W24271   6.389   7.215  13.953 -0.0130 -0.4995  0.0427
 9141W        W24272  11.746  12.298   2.006 -0.0166 -0.2667 -0.0894
 9142W        W24273   9.560  15.998   0.553 -0.4607 -0.1981 -0.0764
 9143W        W24274   6.784   5.667  15.583  0.3844 -0.1238 -0.0634
 9144W        W24275  12.014   6.044  12.653  0.1503  0.0026  0.0620
 9145W        W24276   8.100   9.141  14.647  0.4359  0.0710  0.2986
 9146W        W24277   5.617   8.686  12.253  0.1058  0.0666 -0.0432
 9147W        W24278   2.811  15.038   2.786  0.1166  0.2192 -0.0410
 9148W        W24279   7.881  17.713  11.959  0.0777  0.0762  0.2608
 9149W        W24280  12.255  12.625   4.836 -0.0348 -0.0992  0.1214
 9150W        W24281   4.010  16.955  12.184 -0.2941  0.0302 -0.1373
 9151W        W24282   6.710   5.280   1.324 -0.1582  0.2608 -0.0249
 9152W        W24283  12.618   0.124   0.008 -0.0387  0.3107 -0.0383
 9153W        W24284  11.077   8.536   4.874  0.2920 -0.0085  0.0213
 9154W        W24285   8.757   0.409   0.034  0.3153  0.1153  0.2094
 9155W        W24286   7.234  10.062  13.442 -0.1160  0.2067  0.0917
 9156W        W24287  14.249  10.625  13.729  0.1343 -0.0922  0.1048
 9157W        W24288   2.587  18.151  15.759 -0.0310 -0.0058 -0.0380
 9158W        W24289  17.777  15.405  16.001  0.1289  0.0318  0.1636
 9159W        W24290   5.240  15.422  12.743  0.0111 -0.1453 -0.1996
 9160W        W24291  12.471   3.731  13.920  0.0050 -0.1742  0.0107
 9161W        W24292   7.174  11.657   4.456 -0.2931 -0.3062 -0.3308
 9162W        W24293   7.085   3.683  12.963 -0.0712 -0.2342  0.0417
 9163W        W24294  10.098   2.213   4.471  0.1852  0.0965  0.1013
 9164W        W24295   6.663  16.588   3.553  0.3918  0.1074 -0.0151
 9165W        W24296   2.463  14.505   5.467 -0.3275 -0.0325 -0.1242
 9166W        W24297   7.244  11.421   2.763  0.2294  0.1523 -0.1973
 9167W        W24298   9.828   7.459   4.406  0.0082 -0.0717 -0.1062
 9168W        W24299  14.522   4.959   3.355  0.3001 -0.0746  0.1212
 9169W        W24300   2.478   8.862   5.612 -0.0230 -0.1395  0.0863
 9170W        W24301   2.045   2.219   5.433 -0.0061  0.1237 -0.1375
 9171W        W24302   2.526  14.939   3.378 -0.0789  0.3140  0.0569
 9172W        W24303   7.300  15.904  13.075 -0.1931 -0.0921  0.1716
 9173W        W24304   9.452   5.415   1.938 -0.0254  0.1779 -0.1442
 9174W        W24305   3.701  16.261  13.888 -0.4783 -0.2723  0.1378
 9175W        W24306   0.251   9.981  10.428 -0.1397  0.2248  0.1056
 9176W        W24307   5.794   1.221  14.961  0.3489  0.0084  0.1682
 9177W        W24308   4.295   6.086   5.781 -0.0175 -0.1587  0.2275
 9178W        W24309  15.584   6.941  13.859  0.0947  0.1731 -0.2285
 9179W        W24310   9.665   1.917   1.863  0.2126 -0.0475 -0.0619
 9180W        W24311   9.559   4.588   5.269 -0.1974 -0.1542  0.1029
 9181W        W24312   9.085   5.920  12.819  0.1148 -0.1170 -0.1185
 9182W        W24313  10.812  14.576  11.440 -0.0540 -0.0340  0.1472
 9183W        W24314  14.632  10.354   0.950 -0.2930  0.1590 -0.1023
 9184W        W24315   4.581   2.030  15.996  0.2255  0.0488 -0.1804
 9185W        W24316  14.323  13.511  13.513 -0.1765 -0.0936  0.1827
 9186W        W24317   6.477   7.063   0.482 -0.0364  0.2576 -0.0046
 9187W        W24318   8.448  15.422  14.600 -0.1197  0.1157 -0.2675
 9188W        W24319   9.198   9.227   1.069  0.3507 -0.0217  0.1431
 9189W        W24320  11.723  17.617  15.039 -0.0032  0.1021 -0.0899
 9190W        W24321  10.567  10.368   1.884  0.2941  0.0928 -0.3517
 9191W        W24322   3.845   9.580   2.916 -0.0823 -0.2109  0.1137
 9192W        W24323  12.178  10.184  14.344  0.0397  0.0802 -0.1789
 9193W        W24324  17.645   8.257   5.423 -0.0067  0.0587 -0.0823
 9194W        W24325   9.069  17.874  15.053  0.0051 -0.3124  0.0409
 9195W        W24326   6.749   7.984  15.320  0.0003  0.0439  0.3630
 9196W        W24327  17.314  15.828   1.102  0.0718  0.2211 -0.0921
 9197W        W24328  17.132  11.009  10.915 -0.0079 -0.1306  0.2610
 9198W        W24329   2.359   6.412   1.137  0.0239  0.0646 -0.0124
 9199W        W24330  10.128   5.026   4.113 -0.0342 -0.1943 -0.1791
 9200W        W24331  13.931   9.575  15.648 -0.1282 -0.1319  0.1147
 9201W        W24332  13.245   4.647  14.751  0.1080  0.1134  0.2053
 9202W        W24333  11.085   3.936   5.372 -0.0172 -0.0894 -0.0526
 9203W        W24334   7.063  13.029  13.422 -0.0976  0.1151 -0.2721
 9204W        W24335  15.709  10.998   2.197  0.0058 -0.0159 -0.0214
 9205W        W24336  15.857   8.670  12.381 -0.2295 -0.0704 -0.1478
 9206W        W24337  15.483  16.430  14.770  0.1276  0.1031 -0.0978
 9207W        W24338   4.166   0.111  14.846 -0.1494 -0.0942 -0.1809
 9208W        W24339  15.658  10.213   3.259 -0.0845 -0.0736  0.1223
 9209W        W24340   2.248  13.800  13.061 -0.0607  0.2000 -0.1439
 9210W        W24341   5.104   2.752   0.228 -0.1634  0.1952  0.2278
 9211W        W24342   4.883  10.563   2.696  0.0832  0.0213 -0.2111
 9212W        W24343  17.828   7.502  14.097  0.1586  0.2189 -0.3875
 9213W        W24344  14.085  14.535  13.431 -0.2092  0.1405  0.0431
 9214W        W24345   4.494  17.194   5.014  0.2336  0.1554  0.1651
 9215W        W24346  15.476  12.993  13.257 -0.1303 -0.2249 -0.0541
 9216W        W24347   6.897  13.029  13.989 -0.0529 -0.2905  0.3019
 9217W        W24348   5.402   8.523   2.139  0.1202 -0.1816 -0.0154
 9218W        W24349  18.264  17.612   2.610  0.1975 -0.1470 -0.0900
 9219W        W24350   7.903   2.994  13.931  0.3628 -0.0187 -0.0265
 9220W        W24351  15.435   4.999  11.251 -0.1117  0.0816 -0.2159
 9221W        W24352  11.481  13.396   0.633  0.0360  0.0461  0.0097
 9222W        W24353  17.719  16.545  11.515 -0.0465 -0.1683  0.1006
 9223W        W24354  12.142   6.247   9.978 -0.3514 -0.1039 -0.1333
 9224W        W24355  11.436  15.056  13.135 -0.0615 -0.1662  0.0416
 9225W        W24356   3.643  17.614   2.960 -0.0330 -0.0919  0.3624
 9226W        W24357   1.283   7.034  15.477  0.2095  0.1841 -0.0902
 9227W        W24358   4.347  17.238  12.577 -0.0549  0.0866 -0.0392
 9228W        W24359  14.962   8.813  13.837  0.0700  0.3137 -0.1405
 9229W        W24360   6.251   0.977   0.564  0.0668  0.0815  0.1889
 9230W        W24361  11.006  12.545  11.755 -0.0101  0.1800 -0.0202
 9231W        W24362   4.614  14.319  12.096 -0.0386 -0.3446 -0.1286
 9232W        W24363  12.944   2.623   1.091  0.2035 -0.2321 -0.2263
 9233W        W24364  17.892  14.192   4.826 -0.0614  0.3320  0.1240
 9234W        W24365   0.586   2.832  16.093 -0.0315  0.0203 -0.1761
 9235W        W24366   7.194  10.218  12.973 -0.1625  0.3593 -0.1019
 9236W        W24367  14.435  10.816   4.551  0.1120  0.1118  0.2290
 9237W        W24368  14.474  11.846   5.606  0.1321  0.0944  0.1402
 9238W        W24369   7.965  16.967  12.759  0.0973 -0.3921  0.0512
 9239W        W24370  14.334  12.478   5.051 -0.1365  0.0723  0.1057
 9240W        W24371   9.388   2.619   2.632  0.2267  0.1781 -0.1786
 9241W        W24372   4.851  17.322   4.647 -0.2747  0.0149 -0.0498
 9242W        W24373  17.728   6.413  13.361  0.0393  0.2215 -0.1400
 9243W        W24374  17.519  15.503   3.438  0.2150  0.1011  0.2194
 9244W        W24375   9.840  17.383   4.762  0.1484 -0.1301  0.1519
 9245W        W24376   6.335   3.900  15.522 -0.1623 -0.1046  0.2300
 9246W        W24377  15.798   7.582  10.195  0.1230 -0.2507 -0.0312
 9247W        W24378  14.099  11.461   3.645  0.1619 -0.0554  0.0309
 9248W        W24379   2.150  12.063   2.389 -0.2422  0.0419 -0.1217
 9249W        W24380  10.036  12.018   1.344 -0.1624  0.1139 -0.1128
 9250W        W24381   4.625  10.729  14.761 -0.0670 -0.0150 -0.2064
 9251W        W24382   7.600  15.968   2.734  0.0783  0.2406 -0.0324
 9252W        W24383  10.049  11.303  14.534  0.2788  0.0087 -0.2185
 9253W        W24384   4.628   5.449   5.397  0.1553 -0.1190 -0.0373
 9254W        W24385   2.350  14.899  12.143 -0.2042  0.2019 -0.1489
 9255W        W24386  17.139  18.240   5.143 -0.0462  0.1098  0.2580
 9256W        W24387  15.724  16.756  12.850 -0.0329  0.0084 -0.0644
 9257W        W24388   5.782  12.535   4.981  0.3166 -0.2907  0.0597
 9258W        W24389   4.673   0.039   4.062  0.0923 -0.0971 -0.2284
 9259W        W24390   8.716   1.690   0.589  0.1636  0.0609  0.1433
 9260W        W24391  11.669   0.782  15.126 -0.2533  0.1554  0.0920
 9261W        W24392   3.127  12.898   5.695  0.2115  0.0087  0.2109
 9262W        W24393  15.628   0.169   4.147 -0.0793 -0.1350  0.1528
 9263W        W24394  16.216   4.654  12.850 -0.3615  0.3085 -0.4325
 9264W        W24395   6.661  17.031   0.794 -0.0089 -0.0905 -0.1255
 9265W        W24396  13.873  10.003   3.806 -0.1853 -0.0444 -0.2903
 9266W        W24397   2.283  11.273   3.971  0.0934  0.0262 -0.1898
 9267W        W24398   4.130   3.231   0.480 -0.1047  0.1105 -0.1547
 9268W        W24399   3.152   8.790   0.106  0.4645 -0.0164 -0.2997
 9269W        W24400  17.717   0.012  14.257 -0.0164 -0.2080  0.1047
 9270W        W24401   3.815   1.573   0.263  0.1286  0.0248  0.0192
 9271W        W24402   1.671  13.615  15.495 -0.2326 -0.1293  0.1726
 9272W        W24403  18.194  15.071  16.049  0.1071 -0.1945 -0.0578
 9273W        W24404  14.866   3.290  14.534 -0.2483 -0.3024  0.2603
 9274W        W24405  11.530  10.353   1.978 -0.0950  0.1228 -0.0420
 9275W        W24406  12.085   4.224  10.923  0.1585  0.1111  0.2419
 9276W        W24407  15.623   1.118   1.120  0.0798  0.1404 -0.1225
 9277W        W24408   2.792  18.156   4.893  0.1874 -0.3277  0.0993
 9278W        W24409  12.287   6.583  14.273 -0.2613  0.0845 -0.1598
 9279W        W24410   2.062   8.647   5.506 -0.0186 -0.3404 -0.3402
 9280W        W24411  12.078  17.512  15.728 -0.1754 -0.0648 -0.1226
 9281W        W24412  10.080   0.893   4.246 -0.1677 -0.2363 -0.1343
 9282W        W24413   0.971   3.527  13.421 -0.1316  0.2330  0.2268
 9283W        W24414   3.302   9.266   2.236  0.0409  0.0132 -0.0185
 9284W        W24415  16.414  12.543  11.192  0.1106  0.0606 -0.0075
 9285W        W24416   1.800   0.885  15.918 -0.2076  0.1626 -0.3457
 9286W        W24417  17.608  14.471  12.770 -0.1068 -0.0137  0.0670
 9287W        W24418  14.039  15.061  13.331  0.1834 -0.1074  0.2163
 9288W        W24419  15.715  12.933  12.405 -0.1585  0.2172 -0.1043
 9289W        W24420   6.667   9.165   4.458 -0.3670  0.2232 -0.0346
 9290W        W24421   5.123  16.960   1.673 -0.3073  0.0312 -0.0450
 9291W        W24422   7.877  16.147  11.853 -0.0175  0.0244 -0.1541
 9292W        W24423   6.130   3.453   5.984  0.2070  0.1769 -0.4971
 9293W        W24424  13.445   9.957   1.968 -0.0129 -0.2637 -0.1002
 9294W        W24425  11.449   1.255  12.453  0.2790  0.1419 -0.1095
 9295W        W24426  11.193   1.424  13.516 -0.1391  0.1085  0.0932
 9296W        W24427   4.186  14.585  12.060 -0.3164  0.0902  0.1775
 9297W        W24428   9.820  15.374   4.982  0.2068  0.1003 -0.0060
 9298W        W24429   9.980   7.244   0.044  0.3921  0.0074  0.0695
 9299W        W24430   2.320   8.026   6.094 -0.0470  0.1958 -0.2661
 9300W        W24431   9.635   0.834   3.404 -0.0767  0.1108 -0.2552
 9301W        W24432   6.762   9.854   9.752 -0.1950  0.0149 -0.2548
 9302W        W24433  11.569  15.910  14.672 -0.1457  0.0651  0.1819
 9303W        W24434  14.019  11.968  14.763  0.1580  0.1143  0.0832
 9304W        W24435   8.058   3.351   3.539 -0.1951  0.2404  0.1483
 9305W        W24436  11.824   5.208  14.136 -0.0313 -0.3435  0.0176
 9306W        W24437  13.754   2.546  12.137 -0.1044 -0.2007  0.1815
 9307W        W24438   6.395  10.488   1.560  0.1710 -0.1015  0.4168
 9308W        W24439   5.193   6.954   1.991 -0.3464  0.3529  0.1554
 9309W        W24440  14.135  17.752   0.036 -0.2245 -0.1832 -0.4891
 9310W        W24441   8.862   8.002   2.399  0.2172  0.0787 -0.2855
 9311W        W24442  11.641  18.079   3.261 -0.0620 -0.0556  0.0565
 9312W        W24443   5.413   0.377  11.900  0.0843 -0.0034  0.2686
 9313W        W24444  13.812   0.048  12.387  0.0356  0.2167  0.2092
 9314W        W24445  14.144  17.388  15.724  0.3699  0.1789 -0.0186
 9315W        W24446   3.035  15.561  11.845  0.0878  0.1971 -0.0489
 9316W        W24447   3.488   5.918  14.095 -0.0165 -0.4274 -0.1243
 9317W        W24448   4.154   8.942   0.644 -0.4194  0.0409  0.2328
 9318W        W24449   5.113   8.415  11.360 -0.1114 -0.3136 -0.0525
 9319W        W24450   3.611  13.315   1.785 -0.1612 -0.1906  0.1256
 9320W        W24451  10.835  13.994  11.807  0.0743 -0.2261 -0.3767
 9321W        W24452   8.111   2.564  11.603  0.3257  0.3408 -0.2832
 9322W        W24453   6.643   0.234   4.726 -0.1505 -0.2313 -0.3045
 9323W        W24454  11.913  14.979  13.373 -0.3118 -0.1656  0.1871
 9324W        W24455   0.778   7.785   0.456 -0.0518 -0.2596 -0.0686
 9325W        W24456  17.286  17.502  11.173 -0.2355 -0.4046 -0.0313
 9326W        W24457  10.083  17.696  11.523 -0.2823  0.1053  0.0138
 9327W        W24458   3.066   6.550   3.337 -0.2507  0.0612 -0.0530
 9328W        W24459  15.293  17.044   0.196 -0.1169  0.6940 -0.5819
 9329W        W24460   9.135  13.964   0.330 -0.4293 -0.0847 -0.3660
 9330W        W24461  13.078   4.224   1.102 -0.1625 -0.1403  0.3514
 9331W        W24462  14.840   9.469   0.811  0.1945  0.0690 -0.3566
 9332W        W24463  12.325  15.120   0.882  0.0842  0.0602  0.0035
 9333W        W24464   3.768   9.669   0.373  0.2621  0.0344  0.1834
 9334W        W24465   0.238  10.830   4.560  0.0485 -0.0056  0.0981
 9335W        W24466  18.018   7.567  13.014  0.0720  0.2298  0.0354
 9336W        W24467   5.672  13.398   3.869 -0.0159  0.1021  0.0103
 9337W        W24468  11.208  18.238  11.323 -0.0020  0.0087  0.1414
 9338W        W24469   7.366   0.961   1.896  0.0656 -0.1439 -0.1793
 9339W        W24470   8.222   9.877  14.338  0.4060  0.1027  0.0559
 9340W        W24471  17.130  12.634   2.793  0.2896 -0.3953 -0.3421
 9341W        W24472  16.645  17.562   4.976  0.0368  0.4090 -0.0407
 9342W        W24473  12.322  13.533   2.192 -0.0480  0.1728 -0.1286
 9343W        W24474   3.687  11.429   2.335 -0.0935  0.1680  0.2928
 9344W        W24475  11.106  18.057   1.609 -0.0197  0.0756 -0.1130
 9345W        W24476  16.149   6.287   0.878 -0.1077 -0.0535  0.1032
 9346W        W24477   5.660  10.736   5.380 -0.2747  0.0799  0.0395
 9347W        W24478   0.732   0.866  12.367  0.1444  0.0715 -0.1351
 9348W        W24479   3.199   0.419   5.112  0.1528 -0.1006 -0.0818
 9349W        W24480   8.280   9.133   1.636  0.1208  0.2746 -0.1845
 9350W        W24481  14.670  14.370  12.150 -0.1705  0.1442 -0.0734
 9351W        W24482   0.632   5.239  15.785  0.3379  0.1531  0.1425
 9352W        W24483   5.864   2.108  11.209 -0.1432  0.0726  0.3606
 9353W        W24484  18.312   6.406  15.656 -0.0132 -0.0053  0.1803
 9354W        W24485  16.934  10.743  10.515 -0.1561  0.2651  0.1581
 9355W        W24486   1.745  15.781   1.897 -0.0259  0.0827 -0.0181
 9356W        W24487  17.016   1.077  10.588 -0.4276 -0.1772  0.1208
 9357W        W24488   4.605   9.495  11.122 -0.1445 -0.1136 -0.0198
 9358W        W24489  16.876  12.658   0.891  0.0569  0.2137  0.1767
 9359W        W24490  18.184   0.346  15.438 -0.1742  0.0665  0.0391
 9360W        W24491   9.285  16.998   1.902  0.3018 -0.3523  0.1819
 9361W        W24492   0.663   9.416   1.302 -0.0278 -0.3319 -0.1705
 9362W        W24493   6.687  11.860   3.683 -0.5813 -0.0678 -0.2963
 9363W        W24494   1.789   2.059   5.820  0.0176 -0.0670  0.1012
 9364W        W24495  10.780   1.931   1.964 -0.0879 -0.0548 -0.1459
 9365W        W24496  17.096  13.898   2.278 -0.2002  0.3414 -0.1913
 9366W        W24497   1.829  12.018  12.012 -0.0341  0.0977 -0.0225
 9367W        W24498   4.929   7.168   3.685  0.1835  0.3239  0.0495
 9368W        W24499  17.042   0.190  12.193 -0.1543 -0.0358 -0.1452
 9369W        W24500   1.209  11.620  14.922 -0.2881  0.0269  0.1892
 9370W        W24501   0.301   4.945   4.267 -0.1177 -0.0730 -0.0858
 9371W        W24502   2.454   5.335   4.794  0.3366  0.0815  0.0748
 9372W        W24503   2.796   5.315   0.193  0.0007  0.0169 -0.1921
 9373W        W24504   4.960   4.734  14.135  0.1796 -0.1114 -0.0059
 9374W        W24505   5.235   4.594  12.538  0.1428  0.1729 -0.4154
 9375W        W24506  11.018   7.432  15.139  0.2763 -0.2112 -0.0551
 9376W        W24507   3.565  14.648   1.360 -0.0780  0.0731 -0.0927
 9377W        W24508  17.742  10.586  13.407  0.2014  0.1964 -0.1505
 9378W        W24509  16.470   8.177   0.323 -0.0087 -0.4960  0.0125
 9379W        W24510   3.731  17.608  11.883  0.0794  0.0136 -0.0879
 9380W        W24511   6.051   6.804  13.286 -0.1149  0.1170 -0.0256
 9381W        W24512  14.181   7.853   3.954 -0.0720  0.0926  0.3494
 9382W        W24513   3.842  16.432   2.353  0.1880 -0.1846 -0.0457
 9383W        W24514   3.575  10.459  11.442  0.0470 -0.3342  0.1414
 9384W        W24515  13.047   0.590   3.326  0.0527  0.0399 -0.0861
 9385W        W24516  15.415   0.106  15.422 -0.1100 -0.0644 -0.2610
 9386W        W24517  15.221   5.184   0.895 -0.0356  0.0693  0.1515
 9387W        W24518   6.526  12.208  10.634  0.3443 -0.1017 -0.3522
 9388W        W24519  14.331   6.298   1.085 -0.0963  0.0482 -0.0559
 9389W        W24520  15.871   8.985   0.703  0.1338 -0.3031  0.0082
 9390W        W24521  15.645   5.485  13.881  0.1187  0.2100 -0.1455
 9391W        W24522   3.559   6.884  13.616 -0.0797 -0.3626  0.3097
 9392W        W24523  14.040   3.146   0.164  0.0402  0.1291  0.0332
 9393W        W24524   2.103  12.530  11.469 -0.1485  0.0999  0.3367
 9394W        W24525  16.189   9.281   3.683  0.1914 -0.1298 -0.2677
 9395W        W24526  10.141   5.311   1.930  0.1170  0.2676  0.0945
 9396W        W24527   8.935   7.693  12.045  0.2104 -0.0772  0.1112
 9397W        W24528   9.038  12.258  14.880  0.3351  0.0831  0.1914
 9398W        W24529  13.339  14.352  15.492  0.2315  0.3207 -0.0582
 9399W        W24530  17.855   7.121   0.524  0.0523 -0.4996  0.0361
 9400W        W24531  13.169  15.448   5.864 -0.3043  0.1718 -0.4671
 9401W        W24532   2.313   9.136  15.841  0.2014  0.3469 -0.0110
 9402W        W24533   7.590   0.398   0.590 -0.2418 -0.1290 -0.3581
 9403W        W24534   8.922   4.985   2.499  0.1057  0.2827  0.1337
 9404W        W24535  11.183   6.830  13.553  0.0624  0.0098  0.0365
 9405W        W24536   5.756   1.835   1.509 -0.2597 -0.0340  0.4681
 9406W        W24537  14.718   7.263   0.875 -0.1848  0.4297  0.3555
 9407W        W24538  10.966   7.330   5.258 -0.0553 -0.0342 -0.1790
 9408W        W24539  13.343   8.760   2.538 -0.1841  0.1148  0.0909
 9409W        W24540  10.738  16.040  15.146  0.4212 -0.0613 -0.2368
 9410W        W24541  11.396   5.530   4.972 -0.0610  0.0126  0.2311
 9411W        W24542   8.637  10.173  11.533  0.3071  0.3235 -0.0098
 9412W        W24543  10.470   2.077  13.508  0.2590  0.1170 -0.0199
 9413W        W24544   6.442  16.879  12.898  0.3331 -0.2898 -0.2093
 9414W        W24545   5.306   0.518   3.916  0.0194 -0.0807  0.2021
 9415W        W24546   2.329  11.593   2.579  0.4782  0.1122 -0.0028
 9416W        W24547   9.600  14.319   0.169 -0.1351 -0.3258 -0.1223
 9417W        W24548  16.398  12.353   2.267  0.0844 -0.2649 -0.3571
 9418W        W24549   4.249   7.514   1.040  0.1577  0.3218  0.1401
 9419W        W24550  17.040  13.695  11.021  0.2885 -0.1591  0.0057
 9420W        W24551  11.935  11.736  14.428 -0.0456  0.0338  0.2668
 9421W        W24552  12.884  14.554  12.892 -0.0443  0.0492 -0.0699
 9422W        W24553   7.950  11.998  13.246 -0.2908 -0.1097  0.2256
 9423W        W24554  12.061   8.971   1.966  0.0178  0.0728  0.0507
 9424W        W24555  14.081  17.044   5.827 -0.3161 -0.0171 -0.1028
 9425W        W24556  12.683   9.682  13.224  0.1569  0.1102  0.1631
 9426W        W24557  14.082  11.650   0.840 -0.0866  0.1409 -0.3260
 9427W        W24558  11.964   3.303  15.119 -0.0995 -0.1940 -0.2990
 9428W        W24559   9.743  12.515   4.173  0.0063  0.1421 -0.3797
 9429W        W24560   3.512  17.106   3.813 -0.0420  0.2914  0.3938
 9430W        W24561   6.279   7.807   1.109 -0.0095  0.1472 -0.1831
 9431W        W24562  16.016  14.347   1.525  0.0113 -0.3939 -0.3474
 9432W        W24563   0.524  14.453  15.835 -0.0606 -0.1910 -0.1686
 9433W        W24564   9.407  14.102   4.464  0.0453 -0.2097 -0.2381
 9434W        W24565   5.031   4.218   3.619  0.0370 -0.1195  0.2954
 9435W        W24566   3.685   7.683   4.456  0.2358 -0.0159 -0.0145
 9436W        W24567  11.269  11.383  14.007 -0.0420 -0.0028 -0.2911
 9437W        W24568  18.034   9.492  12.787 -0.0725 -0.2247 -0.0732
 9438W        W24569   0.016  12.039  10.986 -0.2255 -0.2353 -0.0059
 9439W        W24570  14.780   5.563  15.211  0.3074  0.1970 -0.0864
 9440W        W24571   4.988   9.357   1.055 -0.0888  0.0694 -0.1163
 9441W        W24572   5.896  14.630   1.010 -0.1234 -0.0710 -0.1011
 9442W        W24573   1.681  14.659   4.992  0.0970  0.0109 -0.2096
 9443W        W24574   7.169  11.085  11.768  0.1366  0.2688  0.0578
 9444W        W24575   6.755  16.910   3.165  0.0454 -0.2441 -0.1752
 9445W        W24576   5.680  16.906   3.764  0.0303  0.1216  0.0182
 9446W        W24577   3.785  11.076   0.404 -0.0346 -0.0706  0.2109
 9447W        W24578  12.770  18.003   5.228  0.2244 -0.1762 -0.1025
 9448W        W24579  14.834   9.626   1.675  0.1176 -0.0223  0.2317
 9449W        W24580  17.651   5.892   0.198 -0.1766  0.1116 -0.2345
 9450W        W24581   7.422   3.537  13.624  0.1482  0.0324  0.1933
 9451W        W24582  14.008   1.818   5.086  0.0510 -0.0815 -0.0660
 9452W        W24583   8.174   6.315   0.410 -0.1860 -0.0584  0.2315
 9453W        W24584   2.895   8.104   1.795 -0.2897 -0.1177 -0.0742
 9454W        W24585  11.189  16.298  11.080 -0.0036 -0.0310 -0.0239
 9455W        W24586  13.921  13.571  14.414 -0.0315  0.3843  0.0248
 9456W        W24587  15.804  10.922  14.478 -0.1738  0.1950 -0.0991
 9457W        W24588   1.548   2.982   5.722  0.0285 -0.1153 -0.0976
 9458W        W24589  15.505   8.556  15.329 -0.0572  0.1703 -0.0149
 9459W        W24590  15.430  15.736   0.348  0.0130  0.3505 -0.0059
 9460W        W24591   2.391  17.292   1.388  0.0391  0.0172  0.1859
 9461W        W24592   2.146  11.555  10.041 -0.5161 -0.2057 -0.3483
 9462W        W24593   0.463   0.371  14.739  0.2606  0.1936  0.0403
 9463W        W24594  13.076  10.315  10.213 -0.1750 -0.1170  0.1495
 9464W        W24595  11.138  11.354   1.204 -0.0252 -0.2412  0.1815
 9465W        W24596  16.025  12.497   6.026 -0.1347 -0.1200  0.1950
 9466W        W24597   1.102   8.090   0.762 -0.1976 -0.5005 -0.1160
 9467W        W24598   7.863   9.510  14.401 -0.2122  0.1774  0.0710
 9468W        W24599   8.449   4.804   0.567 -0.2327  0.2655 -0.1950
 9469W        W24600  16.674  13.399  12.508 -0.0078 -0.2276 -0.3563
 9470W        W24601   5.932  18.054   0.662  0.0577 -0.0291 -0.0865
 9471W        W24602   0.821  17.781  14.625 -0.2511  0.4001 -0.1955
 9472W        W24603  16.824   7.006   0.478 -0.2087  0.2172 -0.0771
 9473W        W24604   2.683   5.500  15.800  0.3484 -0.0660 -0.0043
 9474W        W24605  11.302   7.429   0.446 -0.0334  0.0517  0.0226
 9475W        W24606  11.233   5.998   4.296 -0.0672  0.1382 -0.1902
 9476W        W24607   6.794   4.889  14.161 -0.1260 -0.2814 -0.2754
 9477W        W24608   6.009  10.623  11.220  0.0028 -0.0781 -0.1881
 9478W        W24609   0.896   8.511  11.895  0.0985  0.6504  0.2473
 9479W        W24610   2.600   2.643  15.996  0.0593  0.3252 -0.1204
 9480W        W24611   4.732  11.501   4.012 -0.4713  0.1162  0.2107
 9481W        W24612   8.014   2.691  12.835  0.1804 -0.4747  0.0121
 9482W        W24613   4.729  17.970   3.794 -0.0338  0.1316  0.0864
 9483W        W24614  13.573   4.596  13.826 -0.1188 -0.0407 -0.1196
 9484W        W24615  17.707   0.621  12.341  0.2186  0.0226  0.0393
 9485W        W24616   1.176  11.794  12.857  0.1980 -0.1618 -0.2168
 9486W        W24617   0.003   7.886   2.679  0.0063 -0.0527  0.0902
 9487W        W24618   7.456   7.849   0.778 -0.0151 -0.0419 -0.2107
 9488W        W24619   3.387  17.941   0.871  0.0948  0.0814  0.3198
 9489W        W24620  10.102   9.796   3.054 -0.2543  0.2724 -0.0150
 9490W        W24621   3.801  15.872  13.075  0.1876  0.1550 -0.1237
 9491W        W24622   5.768  10.171  12.922 -0.3354  0.2402  0.1889
 9492W        W24623   1.494   4.373   5.175  0.0472 -0.1711 -0.3165
 9493W        W24624   5.216   8.707  10.965 -0.1715 -0.3439  0.1707
 9494W        W24625  11.963  10.992  11.733  0.2155  0.1252  0.0037
 9495W        W24626   5.026  11.608   3.586  0.3325  0.3479 -0.1548
 9496W        W24627   8.616  16.129   2.325 -0.1460  0.0939  0.1489
 9497W        W24628   6.623  13.434  12.429  0.1173 -0.0339  0.1556
 9498W        W24629  16.449  17.056   4.034 -0.2356 -0.1581 -0.3566
 9499W        W24630   1.768   1.184   3.339 -0.5135 -0.1239 -0.0015
 9500W        W24631   8.366  14.378  11.429 -0.0782 -0.2373 -0.1168
 9501W        W24632  10.150   1.353  13.492 -0.3676  0.0322 -0.1116
 9502W        W24633   4.249  10.718   2.094  0.3635  0.0389 -0.1312
 9503W        W24634   9.436   7.979  11.091  0.3152 -0.2733  0.3294
 9504W        W24635   6.248  11.169  10.953  0.0563 -0.2477 -0.1739
 9505W        W24636  18.099   8.802  15.554  0.0218  0.0486  0.1196
 9506W        W24637   7.811   2.955   3.761  0.1686 -0.3878 -0.0954
 9507W        W24638   6.196  17.601   3.708  0.4034  0.1645  0.2190
 9508W        W24639  17.402   1.136   4.378  0.1224 -0.0040  0.1627
 9509W        W24640  15.707  13.801   1.010 -0.1807  0.1747  0.2932
 9510W        W24641  10.242  15.469   4.317 -0.2504  0.0537  0.0929
 9511W        W24642   2.610   8.288  13.641  0.0825 -0.0198 -0.0698
 9512W        W24643  14.560   7.942   4.234  0.1217  0.2996 -0.1726
 9513W        W24644   7.551   3.564   4.577 -0.2873 -0.3421 -0.1066
 9514W        W24645   1.362   3.440  11.828  0.0449 -0.1391 -0.1476
 9515W        W24646   3.840  14.902  12.271  0.0398 -0.0364 -0.3666
 9516W        W24647  11.651  10.233   0.072 -0.1245 -0.1962 -0.0587
 9517W        W24648  18.292   1.131  10.517 -0.0831  0.1149  0.3831
 9518W        W24649   3.151  17.397  14.464 -0.1395  0.1651 -0.2097
 9519W        W24650   0.053   1.868   0.193  0.2401  0.4337 -0.2629
 9520W        W24651  14.747   5.945   3.673 -0.0218 -0.1163  0.2391
 9521W        W24652  10.894   6.937  11.903  0.2065 -0.0805 -0.1314
 9522W        W24653   6.211  12.584   4.512 -0.0047  0.1583 -0.2953
 9523W        W24654  11.273  17.475   3.714 -0.0778 -0.2312 -0.0299
 9524W        W24655   1.184   7.422  12.824  0.1129 -0.1102  0.0741
 9525W        W24656   4.170   1.230  11.898 -0.1747  0.1242  0.0467
 9526W        W24657   4.573  12.136  12.883  0.0895 -0.1728 -0.2559
 9527W        W24658   2.588  14.019   2.259 -0.3276 -0.1300  0.0785
 9528W        W24659   9.573  11.244  13.512  0.1976 -0.0025 -0.3322
 9529W        W24660   6.040  11.269   2.467 -0.1865  0.0234 -0.1562
 9530W        W24661   7.683  15.407   1.580 -0.1224 -0.3056  0.0827
 9531W        W24662   9.586   2.916   3.724  0.1119  0.1447  0.2680
 9532W        W24663  10.795  12.553   3.825 -0.1914 -0.0452 -0.2002
 9533W        W24664  15.144  13.561   5.358 -0.3683  0.1420  0.1945
 9534W        W24665   2.577  17.612   3.054 -0.2058 -0.1259 -0.0520
 9535W        W24666   5.199  11.549  15.508  0.2715  0.0897 -0.0442
 9536W        W24667  13.056   2.629   5.736 -0.1246  0.1368 -0.3312
 9537W        W24668   1.528   2.493   5.759  0.2516 -0.3394  0.0887
 9538W        W24669  10.758   9.006  14.312  0.1959  0.0374 -0.1835
 9539W        W24670   7.160   4.773  11.526  0.0808  0.1990 -0.0416
 9540W        W24671   8.069   0.517  14.344  0.2571 -0.0470 -0.1288
 9541W        W24672  14.027  10.288  11.395 -0.1844 -0.0687  0.0038
 9542W        W24673   0.367   7.547  13.698  0.1244  0.0692  0.0964
 9543W        W24674   4.131  12.544   4.166  0.1030 -0.0745 -0.1809
 9544W        W24675   5.129  11.430  12.830 -0.0577 -0.0712  0.0994
 9545W        W24676  17.612  12.094   0.934 -0.0132 -0.1527 -0.0833
 9546W        W24677  13.420   7.622  13.366  0.1792 -0.1541 -0.3673
 9547W        W24678  17.366  16.654   0.688 -0.4132  0.2549 -0.0055
 9548W        W24679   1.645  14.350   0.344 -0.1294 -0.0801 -0.0285
 9549W        W24680   9.562   5.402   5.013  0.1026 -0.0021  0.2132
 9550W        W24681   8.382  17.837  13.326 -0.0315 -0.1933 -0.1790
 9551W        W24682  16.569  12.515   2.786 -0.1774  0.1607 -0.2478
 9552W        W24683  17.264   6.479   3.270 -0.1152  0.0054 -0.0524
 9553W        W24684   2.828   6.085   1.479 -0.0136 -0.0808 -0.3448
 9554W        W24685   7.540   5.061   4.286 -0.0962 -0.0471  0.1970
 9555W        W24686  16.133   7.147  13.617 -0.1226 -0.1629  0.1640
 9556W        W24687  14.291   9.408   0.852  0.1581 -0.0791 -0.2876
 9557W        W24688   8.670  16.231   4.816  0.0738  0.0041  0.2485
 9558W        W24689  18.131   9.713   5.060  0.1783  0.0386 -0.3514
 9559W        W24690  16.097   1.819  11.936 -0.1461  0.2141  0.1305
 9560W        W24691  13.857   8.188  12.737 -0.0735  0.2513  0.2250
 9561W        W24692  11.144  14.561   4.011  0.2486 -0.0457  0.0844
 9562W        W24693  10.454  14.915  14.197  0.1948  0.0175  0.0996
 9563W        W24694   4.712  17.756   1.318  0.0305  0.1001 -0.0001
 9564W        W24695  17.813  14.929  13.930  0.2099  0.0482 -0.1303
 9565W        W24696  15.003  15.728   4.455  0.1749  0.0809  0.0112
 9566W        W24697   4.399  11.108   1.764 -0.0342  0.1831 -0.0037
 9567W        W24698   1.475   1.215  14.622 -0.0467 -0.0732  0.1223
 9568W        W24699  15.067  11.322   3.364 -0.1501  0.1973 -0.2563
 9569W        W24700  10.665   5.605   2.565 -0.0665 -0.1334 -0.0048
 9570W        W24701   8.858   1.850  14.497 -0.1141  0.0965 -0.0175
 9571W        W24702  15.190  13.116  14.092 -0.2010  0.0789 -0.0529
 9572W        W24703   8.021  16.111  10.482  0.1259  0.1526  0.3538
 9573W        W24704  10.465   3.606  13.503  0.0103  0.3736  0.1218
 9574W        W24705   2.298  13.833  13.853 -0.0041 -0.1245  0.0899
 9575W        W24706   2.062   3.863   0.448 -0.0628 -0.1229  0.2094
 9576W        W24707  14.520   3.114   0.853  0.0487  0.2474 -0.1025
 9577W        W24708  13.301  17.224   3.528 -0.1981  0.1196 -0.3245
 9578W        W24709  12.695  14.210   2.020  0.3760 -0.2110 -0.0725
 9579W        W24710   5.322   6.664   4.853  0.1217 -0.0228 -0.0827
 9580W        W24711   5.975  13.785  11.165 -0.1533 -0.0359  0.0070
 9581W        W24712  18.008  10.422   0.863 -0.1640  0.1934  0.0688
 9582W        W24713   5.133  10.101   5.826 -0.1205  0.3586 -0.2168
 9583W        W24714   4.977   3.784   4.911 -0.0421  0.4347  0.0243
 9584W        W24715   3.044   4.924   3.365  0.0275  0.0262 -0.0378
 9585W        W24716   0.239  15.519  12.277 -0.0973 -0.1375 -0.2486
 9586W        W24717  13.595   7.057  10.792  0.0486  0.2677  0.0996
 9587W        W24718  17.056   7.017   3.980 -0.0770 -0.1729  0.0984
 9588W        W24719  15.440  14.521   5.432 -0.2637 -0.1643  0.0513
 9589W        W24720   8.469   6.243   0.863  0.0441  0.1468 -0.1400
 9590W        W24721   1.980  10.926   0.213 -0.1798 -0.1307  0.2661
 9591W        W24722  16.610   8.652   5.021 -0.0900  0.2080  0.1325
 9592W        W24723   5.065  14.778  15.871  0.0225  0.2454 -0.2398
 9593W        W24724   3.040  14.742  12.709 -0.2385 -0.1581  0.0723
 9594W        W24725  10.174   2.036   1.897  0.2834 -0.2011 -0.1118
 9595W        W24726  16.588   3.557  14.883 -0.2809  0.0860  0.2380
 9596W        W24727  18.156   5.683  13.030 -0.0307  0.4274 -0.2795
 9597W        W24728   5.311  10.948   1.908 -0.0861 -0.1210  0.0840
 9598W        W24729  17.940  13.461   3.672 -0.1509 -0.0365 -0.0420
 9599W        W24730   1.631  11.384  15.105 -0.2902  0.2044 -0.3904
 9600W        W24731   8.489  16.964   1.283  0.2521  0.2065  0.0079
 9601W        W24732  13.799   2.288  12.587  0.1626  0.3435  0.2427
 9602W        W24733  12.480  17.650  11.473  0.0310  0.1415  0.1361
 9603W        W24734   2.594   8.012   2.403 -0.2845 -0.2391 -0.1554
 9604W        W24735   5.459  10.156  11.007 -0.0188  0.0397 -0.2612
 9605W        W24736  13.489   8.624  13.479 -0.0467 -0.0722 -0.0533
 9606W        W24737   8.576   3.950  11.130 -0.0447 -0.0947 -0.1722
 9607W        W24738  17.078  17.778   5.356  0.0156 -0.1036  0.1728
 9608W        W24739  15.050  18.106  14.499  0.0484  0.4387  0.2394
 9609W        W24740  12.567  18.187   3.698 -0.0090 -0.0449  0.1854
 9610W        W24741   3.566  16.694   3.343  0.1949 -0.0297  0.2637
 9611W        W24742  15.951  11.760  15.726  0.3281 -0.0832 -0.2806
 9612W        W24743  14.974  12.236  13.151  0.4835  0.1775  0.2584
 9613W        W24744  14.930  17.887  12.555 -0.0968  0.2412  0.2391
 9614W        W24745   6.731  10.767  15.146  0.1058  0.0575 -0.2776
 9615W        W24746   5.810   4.345  11.570  0.3442 -0.2152 -0.3154
 9616W        W24747   7.808  14.933  14.446 -0.1257  0.1792  0.2982
 9617W        W24748   2.376  12.146   3.466  0.0065  0.2846 -0.1165
 9618W        W24749  17.493   4.309   2.048 -0.1280 -0.4558  0.3544
 9619W        W24750  10.594   0.552  10.808 -0.1134  0.0635  0.0369
 9620W        W24751  13.652   5.820  12.524  0.0005  0.1267 -0.1745
 9621W        W24752   3.605  12.662  15.226  0.1846  0.1100 -0.1438
 9622W        W24753  11.876  15.514  11.976 -0.1022  0.1235 -0.0721
 9623W        W24754  16.056   1.466  15.381 -0.2545 -0.1591 -0.3548
 9624W        W24755  17.001   8.699   0.121  0.2316 -0.0287  0.2545
 9625W        W24756  14.123  16.126   3.970  0.0763  0.0119  0.0208
 9626W        W24757   8.273   1.290   1.964  0.2374  0.3074 -0.1245
 9627W        W24758   2.688   7.025   1.881 -0.1034 -0.1446 -0.0071
 9628W        W24759  13.292  16.856   3.891 -0.1429  0.0601  0.0532
 9629W        W24760  17.046  10.283  10.653  0.1849  0.1189 -0.0754
 9630W        W24761  16.927   8.837   0.748 -0.1058 -0.0294 -0.0917
 9631W        W24762   8.418  11.008  10.511 -0.0714 -0.1538  0.2212
 9632W        W24763  17.184   2.487   4.081  0.3275  0.1172  0.1860
 9633W        W24764  13.531   5.250   1.956 -0.1552  0.5695  0.0439
 9634W        W24765   9.742  18.118  11.492 -0.1899  0.0896 -0.0207
 9635W        W24766   6.451  17.033   3.565  0.2759  0.0130 -0.1296
 9636W        W24767  11.117   0.523  13.738 -0.0731  0.3037  0.1370
 9637W        W24768  14.617   9.473   2.661  0.2860  0.6136 -0.0696
 9638W        W24769   2.346  11.546  15.444 -0.2173 -0.0146 -0.2252
 9639W        W24770  17.199  18.320  10.930 -0.1906 -0.1073 -0.1342
 9640W        W24771  15.409  11.896  12.881  0.0675 -0.0840  0.0912
 9641W        W24772   7.532  16.301  15.335 -0.1574  0.1281 -0.2271
 9642W        W24773  13.991  11.367  12.658  0.0298  0.1984 -0.2223
 9643W        W24774   0.971   3.859  12.734 -0.2175  0.1834 -0.0224
 9644W        W24775  11.643  17.141   2.093 -0.0994  0.1733  0.3002
 9645W        W24776  17.422   0.088  11.817  0.1256 -0.1883 -0.1169
 9646W        W24777   1.879   5.237  10.600  0.0142  0.1554  0.0081
 9647W        W24778   2.667   5.862  13.312  0.2236  0.0431  0.0199
 9648W        W24779   8.376  15.642   4.382 -0.1624 -0.0516 -0.2272
 9649W        W24780  13.350   8.552   3.050 -0.0702  0.1824  0.1056
 9650W        W24781   5.280  15.465  15.307  0.4175 -0.1785  0.2546
 9651W        W24782  17.406  16.485  12.265  0.5437  0.1065 -0.3665
 9652W        W24783  16.290  17.236   5.711  0.0567 -0.0514  0.3055
 9653W        W24784   5.325   9.842  14.707 -0.1062 -0.1791 -0.2060
 9654W        W24785   2.260  14.062   3.499  0.0547  0.2918 -0.2408
 9655W        W24786  15.659   7.223  13.437 -0.0760  0.0117  0.1875
 9656W        W24787  16.620   1.801   1.530 -0.1547 -0.1501 -0.0330
 9657W        W24788   3.701  11.722  14.663 -0.1100 -0.0986  0.2107
 9658W        W24789  14.786  14.164  15.189  0.0599 -0.2503 -0.2524
 9659W        W24790  18.086   6.181   0.906  0.1515 -0.0204  0.1082
 9660W        W24791   2.579  17.922  13.818 -0.2229 -0.0370 -0.4456
 9661W        W24792  17.737  11.598   2.337  0.2544 -0.1505 -0.1146
 9662W        W24793   4.292   2.631  11.495 -0.0811 -0.3300 -0.1062
 9663W        W24794  11.864   9.321   0.381  0.0962  0.2282 -0.0780
 9664W        W24795   2.491   9.225  15.302  0.0272  0.4072 -0.2679
 9665W        W24796  12.415   3.750  12.964 -0.0404 -0.0019  0.2961
 9666W        W24797  13.274  10.756   3.623  0.1010 -0.0265 -0.1503
 9667W        W24798   3.463  15.886   2.917 -0.1530  0.0067 -0.0815
 9668W        W24799  12.821   4.572  15.491 -0.0880  0.2534 -0.2064
 9669W        W24800   5.248  12.559  12.851 -0.1676 -0.3178 -0.4038
 9670W        W24801   4.356  12.386   3.693  0.0291  0.1685  0.1923
 9671W        W24802  12.213   2.304   3.869 -0.0034  0.0766 -0.1842
 9672W        W24803  12.847  15.865  13.732  0.3529 -0.3503 -0.3367
 9673W        W24804   8.096   2.580  13.695  0.0455  0.0535 -0.0713
 9674W        W24805   5.907   3.667   0.605  0.2471  0.1066 -0.2572
 9675W        W24806   7.009   6.423  15.024  0.0737  0.1389 -0.5235
 9676W        W24807  14.266   2.060   3.411 -0.0210 -0.1086 -0.0288
 9677W        W24808   8.676   7.713   1.322 -0.0368  0.2757 -0.0387
 9678W        W24809  13.328   3.322  13.812  0.0096  0.0241  0.1859
 9679W        W24810  17.838  12.376   5.083  0.0730 -0.1529  0.1015
 9680W        W24811   2.110  17.438   0.295  0.2648 -0.1059 -0.0357
 9681W        W24812  18.047  12.199  11.403  0.1904 -0.1788 -0.0407
 9682W        W24813   9.370  10.401  13.217 -0.3746 -0.0929  0.0050
 9683W        W24814   2.450  13.508   3.336  0.0491  0.0592 -0.0108
 9684W        W24815  12.050  11.366  15.435 -0.2336  0.0010  0.2920
 9685W        W24816  18.240   4.862   3.863 -0.0561 -0.0038  0.0801
 9686W        W24817   7.547  14.053   4.746  0.2500 -0.0095  0.1892
 9687W        W24818   6.017  17.977  13.580  0.2543  0.3863  0.3189
 9688W        W24819   8.958  16.947   4.621  0.0638 -0.0042 -0.0562
 9689W        W24820   1.675  14.113   1.734 -0.1645 -0.1290 -0.0042
 9690W        W24821  13.887   3.487  15.012  0.0399  0.2880  0.3420
 9691W        W24822   5.020   2.431   2.615  0.0964  0.0092  0.4255
 9692W        W24823   8.530  15.912   5.240  0.1708  0.0898 -0.0964
 9693W        W24824   0.615  13.560   1.882 -0.0875 -0.0005  0.2446
 9694W        W24825   9.333  13.778   2.065  0.1288 -0.0885 -0.1788
 9695W        W24826  15.280   1.915  11.507 -0.3336  0.0301  0.1794
 9696W        W24827   1.259   8.855  15.513 -0.0026 -0.1037  0.0595
 9697W        W24828  15.509   5.405   2.674  0.3012  0.3288 -0.2423
 9698W        W24829   5.406   7.460   3.202  0.0310  0.0805  0.1259
 9699W        W24830   3.346   4.430   5.078 -0.3039  0.3961 -0.0780
 9700W        W24831  15.905   4.930  12.638 -0.0764 -0.0347  0.0853
 9701W        W24832  14.813  12.055   3.858 -0.2667  0.2484 -0.0728
 9702W        W24833  13.634   5.603  11.335 -0.0316 -0.1132  0.3132
 9703W        W24834   4.654   4.809  11.290 -0.2819  0.2957 -0.0719
 9704W        W24835  14.330   2.516   2.273  0.1648  0.0870 -0.0551
 9705W        W24836   4.762   1.363  13.208 -0.3934 -0.0590  0.2640
 9706W        W24837   8.575  15.776   2.657  0.2072  0.0750 -0.0210
 9707W        W24838   6.756  13.093   2.414  0.0090  0.0032  0.0264
 9708W        W24839  17.829   0.659   0.167 -0.2407 -0.1390 -0.1536
 9709W        W24840   5.976  17.351  12.171 -0.2239  0.3168 -0.1619
 9710W        W24841  14.166  16.194   5.602  0.1655  0.1340  0.0591
 9711W        W24842  16.646   1.325  10.335  0.3553  0.1738 -0.0396
 9712W        W24843  10.144   8.004  11.498 -0.1513 -0.1076  0.1150
 9713W        W24844  15.282  12.277   0.961  0.2013 -0.0393  0.4708
 9714W        W24845   5.263   3.197  12.776 -0.2043 -0.1165 -0.1509
 9715W        W24846   3.870  10.937  13.140  0.0732 -0.0271 -0.1687
 9716W        W24847   8.155  16.102   4.237 -0.0885 -0.1879  0.2599
 9717W        W24848  15.156   6.674  13.717 -0.0115  0.3053  0.4520
 9718W        W24849   6.852   8.179  12.098  0.1835  0.2734  0.1206
 9719W        W24850  13.580  17.728   1.270 -0.1240  0.1088 -0.3171
 9720W        W24851  16.119  17.017   2.563 -0.1328  0.1099  0.1092
 9721W        W24852   4.784   6.997  12.833 -0.1115  0.1124  0.2216
 9722W        W24853   1.092   8.984  11.846  0.0155  0.0103  0.1028
 9723W        W24854  11.139   4.689   1.017 -0.0416 -0.1182  0.1603
 9724W        W24855   0.935  16.064  12.462  0.3569 -0.3526 -0.1492
 9725W        W24856   3.225   7.563   0.645 -0.1518  0.1999  0.1716
 9726W        W24857   1.615   7.308   3.455  0.3174  0.1324 -0.3034
 9727W        W24858  13.339   8.285   3.483 -0.1417 -0.2825  0.3131
 9728W        W24859   9.175   3.230   3.439  0.0485  0.1510  0.1359
 9729W        W24860  16.672   5.404  10.165 -0.0952  0.1905 -0.1560
 9730W        W24861   5.818  13.967  13.523 -0.2174 -0.3742  0.2524
 9731W        W24862  13.560  12.549   1.562  0.1204 -0.0596  0.0837
 9732W        W24863   4.828  13.097  15.026 -0.1113 -0.1941 -0.0811
 9733W        W24864   9.274   7.352  15.456  0.2340  0.0397 -0.1398
 9734W        W24865  17.639   5.558   0.782 -0.1953  0.0300 -0.0164
 9735W        W24866  17.985  14.546  13.586  0.0900 -0.2436  0.3193
 9736W        W24867   5.249   1.715   1.962 -0.0014 -0.0835 -0.5198
 9737W        W24868  14.869   5.776  11.453  0.3151  0.2000 -0.0830
 9738W        W24869  12.688   7.322  14.095 -0.0701  0.0308  0.1863
 9739W        W24870   6.139  16.210   5.600 -0.0253 -0.1485  0.1087
 9740W        W24871   0.658   3.469   2.388  0.0562 -0.1241 -0.1351
 9741W        W24872  18.270   4.014   2.614  0.0127  0.1598  0.0985
 9742W        W24873  17.873   2.822  11.637 -0.2959 -0.0908 -0.2925
 9743W        W24874   9.136   3.523   1.235  0.1803 -0.2481 -0.0128
 9744W        W24875  12.774  14.959  12.394 -0.0219  0.1599 -0.2862
 9745W        W24876   9.267  15.620   2.676  0.3195  0.0985  0.2389
 9746W        W24877   1.571   2.771   3.215 -0.0036 -0.2395  0.0730
 9747W        W24878   4.911  11.097  14.195 -0.1936 -0.0795 -0.1783
 9748W        W24879  17.750   8.970   0.279 -0.2609 -0.3545 -0.0620
 9749W        W24880  12.876  14.894  15.504 -0.1751 -0.2027  0.3128
 9750W        W24881   3.902  11.857   0.661  0.1525 -0.2422 -0.0968
 9751W        W24882   7.352  12.663  13.698 -0.0753 -0.1820 -0.2904
 9752W        W24883   3.436   4.184  13.676 -0.1219  0.0143 -0.0997
 9753W        W24884  11.484   1.476  15.653 -0.4609  0.4315  0.2273
 9754W        W24885   2.223  12.170  11.758  0.3308  0.0122 -0.2633
 9755W        W24886   7.174  13.791   5.529  0.4315  0.5234 -0.3183
 9756W        W24887   7.624  10.693  12.186 -0.0621 -0.1448 -0.0352
 9757W        W24888  18.134   2.663   4.967 -0.0471 -0.2924  0.2920
 9758W        W24889   3.388  10.405  14.316 -0.2023  0.4238 -0.2269
 9759W        W24890   9.375  12.501  12.931 -0.3817  0.0000 -0.2245
 9760W        W24891  18.280   1.920   3.254  0.0839  0.1771 -0.1592
 9761W        W24892   8.575  16.807  10.901  0.1272 -0.4532  0.0062
 9762W        W24893   3.683  10.363   4.572 -0.1118  0.2309  0.3458
 9763W        W24894  11.898   9.468  14.035 -0.3532  0.1731 -0.1998
 9764W        W24895  15.079   1.628  11.109  0.3618 -0.1999 -0.0645
 9765W        W24896   3.751  14.580  15.769  0.2781  0.2139 -0.0756
 9766W        W24897   0.060  15.330   5.111 -0.0757  0.3671 -0.0076
 9767W        W24898  18.113   5.692   4.061  0.1228 -0.1686  0.0558
 9768W        W24899   4.478   8.168   5.534  0.2469  0.0685  0.0698
 9769W        W24900  13.267  17.723   1.729 -0.5164  0.1855 -0.3021
 9770W        W24901   9.992  14.998   2.091  0.2082 -0.1870  0.1247
 9771W        W24902   1.575   6.872  13.879  0.0113  0.3563  0.0809
 9772W        W24903  10.517   3.842   2.122 -0.1485 -0.0024  0.2683
 9773W        W24904  16.041  14.699  15.235 -0.4235  0.0818  0.2114
 9774W        W24905  12.672   8.794  14.768 -0.2870 -0.0250  0.1892
 9775W        W24906   5.516  14.824  13.707  0.0764 -0.2852  0.0863
 9776W        W24907   5.978   3.843  15.111 -0.0735  0.0272  0.3059
 9777W        W24908   7.016   7.036   2.652 -0.1255 -0.4795  0.0508
 9778W        W24909   8.091   8.008   4.874 -0.0404  0.1119 -0.2258
 9779W        W24910   8.643  14.555  14.557  0.2963  0.1333 -0.1178
 9780W        W24911  12.531   6.908  15.270  0.1507  0.0821  0.0468
 9781W        W24912  11.162   1.020  13.112 -0.0118 -0.0506 -0.1900
 9782W        W24913   3.428  14.552  14.791  0.0851  0.2913 -0.3536
 9783W        W24914   4.171   0.281   5.152  0.0595  0.2884 -0.2253
 9784W        W24915   8.776  10.182  14.689  0.1501  0.4496  0.0263
 9785W        W24916   5.641  18.118  15.087 -0.1025 -0.1889 -0.3098
 9786W        W24917  15.331   9.030   5.430 -0.1447 -0.0592 -0.0706
 9787W        W24918  17.293   2.396   2.635 -0.2029  0.1763  0.3597
 9788W        W24919  10.067   6.451  11.082 -0.3152  0.3100  0.0457
 9789W        W24920  18.017   4.581  12.537  0.1485 -0.1225 -0.0106
 9790W        W24921   7.896  12.683  11.842 -0.2802  0.0068  0.1845
 9791W        W24922   7.099   6.645   4.046  0.0456  0.0876  0.0995
 9792W        W24923  15.268   1.747   3.046 -0.0743  0.2018  0.0310
 9793W        W24924   7.559   5.897   2.771 -0.1973  0.1468 -0.0118
 9794W        W24925  17.960  11.387  11.605 -0.2677  0.1676  0.0263
 9795W        W24926   1.362   8.551  11.661  0.1318  0.2428  0.2648
 9796W        W24927   6.288   7.341   4.335  0.0123 -0.0676 -0.0364
 9797W        W24928   3.728  11.903  14.159  0.0788  0.1814 -0.2019
 9798W        W24929   3.410   7.687  15.548 -0.1174  0.1096  0.1852
 9799W        W24930  15.503   0.467   4.547 -0.3182 -0.1546 -0.1024
 9800W        W24931  16.272  10.887  11.780  0.0236 -0.2039  0.0202
 9801W        W24932   0.368  11.313   3.816  0.0672 -0.3100 -0.2066
 9802W        W24933  12.527   0.860   1.870  0.0605  0.0417 -0.0287
 9803W        W24934   5.040   1.174  15.744  0.0194 -0.3232  0.0502
 9804W        W24935  17.751   5.852  11.959 -0.1289  0.1405  0.0612
 9805W        W24936   1.335  14.709   2.136 -0.2928 -0.1090  0.1504
 9806W        W24937   4.920   0.172   5.604 -0.1987 -0.1324  0.1919
 9807W        W24938   0.566   0.645   5.877  0.1017  0.1953 -0.3045
 9808W        W24939   1.622   5.281  12.979  0.0063  0.1334 -0.0997
 9809W        W24940   1.034   9.607   0.479 -0.1394  0.0599 -0.0847
 9810W        W24941  16.196  15.580  11.610 -0.0552 -0.1581  0.1131
 9811W        W24942  15.082  11.278   5.335 -0.2499  0.2196 -0.0880
 9812W        W24943   6.426  17.488  15.877  0.0301 -0.2593  0.1168
 9813W        W24944  16.686   6.529  11.757  0.3694 -0.2049  0.0591
 9814W        W24945  15.249  16.307  13.731 -0.2287 -0.2334 -0.0241
 9815W        W24946  12.820   5.667  12.444 -0.1297 -0.3036 -0.2138
 9816W        W24947  13.280  15.715  11.294  0.1325  0.1690 -0.0793
 9817W        W24948   3.836   7.944  11.271 -0.0736  0.1052  0.1416
 9818W        W24949  13.542   0.922  12.673 -0.1153  0.1042 -0.2402
 9819W        W24950  11.599   2.482   3.515 -0.0772 -0.3899  0.0017
 9820W        W24951   8.064   2.024   3.672 -0.4484 -0.2180 -0.0794
 9821W        W24952  13.860  11.936   0.463 -0.3075 -0.0506 -0.0494
 9822W        W24953  13.735   3.476  11.891  0.0161  0.0285 -0.1346
 9823W        W24954  16.771  10.764   9.798 -0.0581 -0.0578  0.2006
 9824W        W24955   9.493  11.430  14.473 -0.2354 -0.2097 -0.2741
 9825W        W24956  13.590   3.617  15.562 -0.0756 -0.0740  0.0899
 9826W        W24957   1.750   8.309  12.633 -0.0347 -0.1358  0.0791
 9827W        W24958   5.229  11.952  11.110  0.1063 -0.1537  0.3220
 9828W        W24959   4.366   8.402  10.705 -0.1272 -0.0743 -0.2648
 9829W        W24960  11.696   9.838  11.922  0.0775 -0.0679  0.0998
 9830W        W24961   7.570  14.004   5.538 -0.0521  0.0690  0.0752
 9831W        W24962   2.195  12.856   2.920 -0.1196  0.2060  0.1517
 9832W        W24963  18.181   9.210  14.700 -0.0858  0.2365  0.0986
 9833W        W24964   2.339   9.595   0.024  0.1092  0.2162  0.1908
 9834W        W24965  17.252  13.281   4.919  0.1672  0.0921  0.2243
 9835W        W24966   4.412  11.160  15.098 -0.1807 -0.0955  0.1425
 9836W        W24967  13.890   0.779   2.814 -0.3561  0.0283  0.2129
 9837W        W24968  17.806  17.889  16.031  0.1884  0.0027 -0.1650
 9838W        W24969  14.086   7.485  11.428 -0.3153 -0.2056 -0.0328
 9839W        W24970   4.890   4.831  11.895 -0.2412 -0.1217 -0.1221
 9840W        W24971  14.023   5.862  15.794 -0.2494  0.0401  0.5717
 9841W        W24972   3.292   6.767  15.184 -0.0785 -0.2830  0.2125
 9842W        W24973  12.054   2.812   1.953  0.1074 -0.3837  0.1772
 9843W        W24974   6.890  16.003  13.932 -0.0121  0.2251 -0.0595
 9844W        W24975   0.964  15.584  11.268  0.0629  0.1228  0.0280
 9845W        W24976  17.319   6.139  15.531 -0.0019  0.1194 -0.1159
 9846W        W24977  10.511  13.215  15.788  0.0831  0.1744  0.2784
 9847W        W24978   4.449   5.168  11.750  0.0348 -0.2191  0.1910
 9848W        W24979  15.420   5.374  14.495  0.0819 -0.2783  0.1671
 9849W        W24980  15.698  18.327   2.943  0.0300 -0.2116 -0.0759
 9850W        W24981  15.845  11.760   4.775  0.2169 -0.1780 -0.0690
 9851W        W24982   3.187  14.836  11.658  0.1432 -0.1315 -0.2008
 9852W        W24983   8.393   1.954   2.462 -0.1548 -0.0566 -0.0437
 9853W        W24984   1.789  13.022   4.357 -0.0549  0.0433 -0.2088
 9854W        W24985  18.201   4.086  12.578 -0.2134  0.0968 -0.4139
 9855W        W24986   1.610  11.579  13.147 -0.1992  0.2767 -0.0958
 9856W        W24987  11.460  14.083   2.262 -0.1743  0.0902  0.1303
 9857W        W24988  11.613  16.514   3.351  0.2712  0.0301  0.0088
 9858W        W24989  17.706   3.882   4.242  0.1366 -0.0096 -0.0016
 9859W        W24990   6.767   8.083  12.612  0.0390  0.0053  0.0235
 9860W        W24991  13.702   6.903  12.778 -0.4916  0.1844  0.2878
 9861W        W24992   6.794  11.265   0.464 -0.1213 -0.1729  0.3517
 9862W        W24993  17.392  10.845   0.619  0.1317  0.0167 -0.0580
 9863W        W24994   8.844   3.528   0.315  0.0446 -0.0932 -0.1545
 9864W        W24995  10.945  18.272  14.633  0.0552  0.3947 -0.2372
 9865W        W24996   8.461   2.428   2.201  0.1537  0.1744  0.1938
 9866W        W24997  11.612   0.823  12.787 -0.2161 -0.2421  0.1516
 9867W        W24998  17.902   9.510   4.533  0.0914 -0.2478  0.0337
 9868W        W24999  15.848   0.993  13.162 -0.3100 -0.2118 -0.4302
 9869W        W25000   6.516   0.545  12.966 -0.5348  0.1599 -0.1849
 9870W        W25001  17.500   3.685   0.426  0.2674  0.4090  0.0851
 9871W        W25002   8.904  11.123   0.855 -0.1214 -0.0362 -0.2541
 9872W        W25003   1.983   9.596   5.280  0.2926 -0.0682  0.1525
 9873W        W25004   1.905  10.085   3.579 -0.0586 -0.0084 -0.1620
 9874W        W25005   6.704  13.077   4.376  0.1369  0.2897 -0.1440
 9875W        W25006   8.393  14.770  11.718 -0.1848 -0.1219  0.4896
 9876W        W25007   0.534   2.073  12.768  0.0106 -0.3022  0.0313
 9877W        W25008   0.839   4.793   3.218 -0.1058  0.0413 -0.2175
 9878W        W25009  17.882   7.705   2.379 -0.1704  0.1646 -0.0144
 9879W        W25010  12.730  17.569   2.289 -0.1465 -0.0752  0.4288
 9880W        W25011   2.977   5.402   4.898 -0.3829  0.4165  0.1432
 9881W        W25012  17.807  17.165   1.976 -0.3772  0.0534 -0.1156
 9882W        W25013   9.109  17.863   2.449 -0.1354  0.1080 -0.0720
 9883W        W25014  15.914  14.728  12.345  0.1280 -0.1221  0.2920
 9884W        W25015  11.706   5.362   4.141  0.2776  0.0577 -0.3285
 9885W        W25016  14.022   3.518  12.312 -0.2365  0.0258  0.1307
 9886W        W25017  18.035  12.494   2.715  0.0420  0.0800  0.0905
 9887W        W25018  10.236   2.612   3.154  0.2858 -0.1382  0.3581
 9888W        W25019  15.519  10.813  15.475  0.0713  0.0205 -0.2561
 9889W        W25020  15.137   5.137   5.011 -0.0774 -0.0304 -0.0870
 9890W        W25021   0.125  11.145  13.239 -0.1899  0.0746 -0.2512
 9891W        W25022   4.572   5.505   4.916 -0.1482  0.2127 -0.1059
 9892W        W25023  11.552  11.750   4.780 -0.0659 -0.0617  0.0077
 9893W        W25024   0.307  10.495   2.572  0.3590 -0.3599 -0.1207
 9894W        W25025  13.984  10.392  11.884 -0.0180 -0.3209 -0.2841
 9895W        W25026   7.749   5.520  14.932 -0.1761  0.1425 -0.0385
 9896W        W25027  17.500   0.045  12.277  0.0543 -0.3364 -0.0261
 9897W        W25028   5.199  13.631  15.216 -0.4686  0.0678  0.1102
 9898W        W25029   3.713   2.534   0.970  0.0099 -0.4152  0.3022
 9899W        W25030   2.363   5.158   3.026 -0.1728  0.0534 -0.0344
 9900W        W25031  13.232  10.918   4.846  0.2016 -0.2069  0.2993
 9901W        W25032   6.857   9.685  10.910 -0.0820  0.2964  0.3952
 9902W        W25033  10.089   8.399  12.995 -0.0543 -0.0324 -0.1568
 9903W        W25034   9.801  12.481  15.705  0.1295 -0.0423  0.0564
 9904W        W25035  13.547  17.790  11.174 -0.1528 -0.0128 -0.0660
 9905W        W25036  13.430   8.088  13.601 -0.0114  0.1216 -0.0824
 9906W        W25037   5.250  10.561  15.185 -0.0508  0.0483 -0.0120
 9907W        W25038   3.632   1.612   5.771 -0.4930  0.4369  0.1035
 9908W        W25039  10.601   4.934  12.376  0.0345  0.1236  0.1457
 9909W        W25040   5.407   3.998  13.271 -0.0283 -0.0107  0.3124
 9910W        W25041  16.087  11.320  11.910  0.1053 -0.1743  0.0713
 9911W        W25042  13.313  12.092  15.560 -0.1872  0.0409 -0.2475
 9912W        W25043   4.639   4.187   0.824 -0.1800 -0.0024 -0.0626
 9913W        W25044   0.081   8.726  13.029  0.1165 -0.2684  0.1051
 9914W        W25045  13.943  16.308  16.083  0.1638  0.0129  0.0190
 9915W        W25046   7.019  10.069   4.429  0.1189  0.1364  0.0649
 9916W        W25047   8.594  13.805   1.186  0.1173 -0.0812  0.1830
 9917W        W25048   8.255   6.953   0.810  0.1150  0.0435  0.4160
 9918W        W25049  10.849  10.553   3.681 -0.0293 -0.1473  0.1596
 9919W        W25050  15.923  18.268   5.801 -0.1165  0.0852  0.1863
 9920W        W25051   2.725  12.220  11.589  0.1627  0.0602 -0.2731
 9921W        W25052  18.158  16.980   1.490  0.0052  0.2122  0.0064
 9922W        W25053  14.115   6.316  13.770  0.3138  0.3949  0.1472
 9923W        W25054   1.777   8.770   2.403  0.2688  0.0072 -0.1258
 9924W        W25055   4.490   0.296  12.084 -0.2646 -0.1446 -0.3221
 9925W        W25056  12.446  15.516  13.678 -0.1333 -0.2739  0.2534
 9926W        W25057   7.614   0.371   5.095 -0.2499 -0.0118  0.2376
 9927W        W25058   2.130  12.490   1.854 -0.0716  0.0237 -0.1258
 9928W        W25059  12.893   3.547  12.912  0.2014  0.1621  0.1301
 9929W        W25060   4.051  14.110  10.673  0.2455 -0.0474 -0.1126
 9930W        W25061   0.811  17.027  14.121  0.2520 -0.1263  0.0823
 9931W        W25062  18.133   7.926  13.409 -0.0815 -0.2228  0.0433
 9932W        W25063   0.313   7.739   4.404 -0.2296 -0.0510 -0.1737
 9933W        W25064  16.810  14.433  12.239 -0.3398 -0.0046  0.0420
 9934W        W25065   6.962  16.854  14.804  0.2248 -0.1248  0.3774
 9935W        W25066   0.968  14.088   1.156 -0.2382 -0.3701 -0.3774
 9936W        W25067   5.414   0.404  15.197  0.2765 -0.1079  0.4408
 9937W        W25068  12.211   1.712   3.297  0.1294  0.0756  0.0640
 9938W        W25069   4.513  10.726   3.113 -0.0863 -0.2547 -0.0316
 9939W        W25070   0.532  10.324   4.457 -0.3001  0.0191  0.1908
 9940W        W25071   5.199  12.378  13.860 -0.0056 -0.1604  0.2463
 9941W        W25072  15.578   8.906   3.108 -0.0402 -0.0941  0.1141
 9942W        W25073  18.102  13.733   5.656 -0.0874 -0.2475 -0.3103
 9943W        W25074   2.003   2.758   1.919  0.3018  0.2992 -0.0869
 9944W        W25075  16.590  14.402   2.990 -0.4472  0.0163  0.3977
 9945W        W25076   4.650  16.309  13.534 -0.0168  0.0173 -0.0936
 9946W        W25077  11.342  17.551  13.064  0.0896  0.0336  0.1479
 9947W        W25078  15.273  13.966   0.877 -0.1709 -0.1443  0.2366
 9948W        W25079   0.945   2.070  10.409 -0.0691 -0.0280  0.3064
 9949W        W25080  10.840  13.669  11.325 -0.1035 -0.0655 -0.2000
 9950W        W25081   1.447   5.072  10.361  0.0082 -0.0864 -0.1465
 9951W        W25082   7.869  14.231  12.862  0.1410  0.0124  0.0635
 9952W        W25083   3.058  12.956   1.789  0.0028  0.2494 -0.0248
 9953W        W25084  16.195  11.451   4.758  0.1276  0.0808 -0.0103
 9954W        W25085  12.862  12.752  11.576 -0.0773  0.1308  0.2226
 9955W        W25086   9.795  15.180  12.507 -0.0514  0.0620  0.0289
 9956W        W25087  17.822  11.900   1.504 -0.0825  0.0238 -0.1721
 9957W        W25088   9.634   3.268   0.667 -0.0109 -0.1294 -0.1663
 9958W        W25089   7.735   4.084  11.801 -0.0276 -0.0484  0.4260
 9959W        W25090  17.212  16.681   4.123  0.2721 -0.1331 -0.0291
 9960W        W25091   9.081  13.630  11.384  0.2138 -0.2221  0.1230
 9961W        W25092   3.769   1.611  13.694  0.1153  0.1176 -0.1593
 9962W        W25093  16.097  10.735   2.096 -0.1045  0.0186  0.1536
 9963W        W25094   7.390  10.696   2.476 -0.0526  0.0735 -0.0710
 9964W        W25095   9.081   1.823   0.908 -0.2002 -0.2562  0.4140
 9965W        W25096  10.457   5.736   4.745  0.2272 -0.2053  0.2598
 9966W        W25097   8.083  15.538  11.148  0.0392 -0.2451  0.1653
 9967W        W25098   2.655   6.462   2.054 -0.0366  0.0241 -0.2727
 9968W        W25099   7.546   1.623  13.502  0.1171  0.0055  0.0286
 9969W        W25100   0.332  14.986   5.699 -0.1235  0.4842 -0.0331
 9970W        W25101  11.803   9.902  15.842  0.3664 -0.0800 -0.4814
 9971W        W25102   7.254   6.897   5.645  0.0628  0.1006 -0.0521
 9972W        W25103   1.055  17.543   2.559 -0.1815  0.2338  0.0693
 9973W        W25104   5.179  13.922  14.798  0.0730 -0.0107  0.0518
 9974W        W25105   8.473  15.267   6.341  0.2020 -0.0782 -0.1494
 9975W        W25106   6.748   1.117  11.606  0.0508 -0.1770  0.3184
 9976W        W25107  14.038   7.028  14.445  0.4971 -0.1232 -0.1466
 9977W        W25108  14.151   6.581  15.789 -0.2047  0.1041 -0.0201
 9978W        W25109  15.308   9.073  14.184 -0.1306  0.0180 -0.2968
 9979W        W25110   1.897  16.233  15.581 -0.1133  0.1072 -0.0956
 9980W        W25111   8.497   7.700   0.295  0.2733 -0.0833 -0.2899
 9981W        W25112   2.820   9.563   2.315  0.1043 -0.0377 -0.1685
 9982W        W25113   7.933   0.237  11.482  0.1467  0.0046  0.4372
 9983W        W25114   4.896  13.512   1.699  0.2104 -0.0805  0.1163
 9984W        W25115   3.150   4.008  11.796  0.0038  0.1398  0.1025
 9985W        W25116  16.447  16.265   0.850 -0.0168 -0.0151  0.3747
 9986W        W25117  11.156   4.227   4.522  0.0959  0.0498  0.1501
 9987W        W25118  15.051  14.005  11.677  0.0866  0.0892 -0.0624
 9988W        W25119   5.422   5.391  11.203 -0.3678  0.2813 -0.1892
 9989W        W25120  17.962   6.742  11.791 -0.2147 -0.1031  0.2126
 9990W        W25121   1.162   8.809   2.427  0.0426  0.2361  0.0370
 9991W        W25122   2.476   9.938  14.143 -0.0337 -0.0667 -0.2211
 9992W        W25123   9.751   1.678   4.527 -0.1870 -0.1950  0.0721
 9993W        W25124   2.992   3.699  12.114 -0.0756 -0.1058 -0.3116
 9994W        W25125   9.449  15.730  11.803  0.0342 -0.2005 -0.2371
 9995W        W25126   6.897   0.761   1.623 -0.5559 -0.0747  0.0296
 9996W        W25127  16.161   1.710   1.341 -0.0290  0.1610 -0.2523
 9997W        W25128  17.961   7.647  12.061 -0.1790  0.2189 -0.0584
 9998W        W25129   3.552  17.776   5.882  0.1987  0.0265  0.0211
 9999W        W25130   7.242  15.097  14.583 -0.2506  0.2003  0.0211
10000W        W25131  12.156   9.417   1.148 -0.1525  0.0233 -0.0672
10001W        W25132  14.982   5.279   2.479  0.2701  0.1033  0.0526
10002W        W25133   9.867   4.538  12.407 -0.0285 -0.1331 -0.1069
10003W        W25134  10.054   0.268  15.529  0.2242 -0.2153 -0.0131
10004W        W25135   0.701  13.441   0.373 -0.4315  0.0271 -0.0298
10005W        W25136  14.603  11.070  12.395  0.4044  0.1943  0.0961
10006W        W25137   7.541   8.451  15.734  0.4482 -0.1918 -0.0191
10007W        W25138  17.478  16.673  12.840 -0.0458  0.5730  0.0323
10008W        W25139  14.232  15.887  14.620  0.0308 -0.2609 -0.3173
10009W        W25140  14.952  15.411   9.844  0.1251 -0.2999 -0.0654
10010W        W25141  12.549  13.414   0.561 -0.0011 -0.2311 -0.1226
10011W        W25142  14.863   7.332  12.777  0.4510  0.0059 -0.3868
10012W        W25143  10.989   1.937   3.556  0.1506 -0.1806  0.1080
10013W        W25144   0.600   3.852  13.703  0.0535  0.0823 -0.0035
10014W        W25145  17.641   2.920   2.676 -0.2924  0.1579  0.0936
10015W        W25146  15.287  14.510  11.502 -0.0796  0.0345  0.2137
10016W        W25147  17.732  16.097   4.276  0.0770 -0.2043  0.1074
10017W        W25148  10.039  16.083  14.476 -0.2078 -0.0961  0.0941
10018W        W25149  18.273   3.650  12.987  0.0289 -0.1543  0.0301
10019W        W25150  10.382   4.342  12.387 -0.0958 -0.1802  0.2239
10020W        W25151   3.486  13.558  11.263  0.1146  0.0025 -0.0331
10021W        W25152   1.039  16.253   1.949  0.1307 -0.2016  0.2732
10022W        W25153  15.781  16.429  11.440 -0.0436 -0.0670  0.1777
10023W        W25154   9.088  18.091  12.231 -0.0688 -0.0555  0.2137
10024W        W25155  14.308   0.996  11.159  0.1916 -0.0613  0.0117
10025W        W25156   6.076  15.799   4.831  0.0625  0.0788 -0.0958
10026W        W25157  11.176   2.220   1.147  0.1659  0.2207  0.0964
10027W        W25158   1.726  16.375   5.656  0.1622  0.4216  0.0204
10028W        W25159  12.909  11.601  13.669 -0.1644  0.0972 -0.0245
10029W        W25160   7.443   2.152   6.072  0.0208 -0.3516 -0.0707
10030W        W25161  16.744  10.898  14.808  0.0058 -0.2241  0.0162
10031W        W25162   3.369   5.703  12.356  0.0697 -0.2722 -0.0134
10032W        W25163   2.324  18.027   2.930 -0.0698  0.0471  0.1296
10033W        W25164   1.452   7.601   5.229  0.0302 -0.0958 -0.2797
10034W        W25165  16.959   3.309   5.024  0.0861 -0.3024 -0.0762
10035W        W25166  10.104   4.244  12.848  0.0303  0.0467 -0.1402
10036W        W25167   2.577   4.571   0.835  0.1591 -0.0564  0.2925
10037W        W25168  14.272   6.913  12.186 -0.3160  0.1453  0.3002
10038W        W25169  11.415   8.755   3.004  0.2078  0.1190 -0.0323
10039W        W25170   2.828  15.743   3.302  0.0234 -0.1185  0.2427
10040W        W25171  10.844   1.234  14.960 -0.1186 -0.0865 -0.0453
10041W        W25172  16.775   3.597  13.945 -0.0932  0.2400 -0.1998
10042W        W25173  15.764  15.485   2.288  0.2777 -0.1522 -0.0717
10043W        W25174  11.271  13.350   3.651  0.2787  0.2338 -0.0938
10044W        W25175  13.485  13.487   4.983  0.1726  0.3070 -0.0750
10045W        W25176   8.336   4.843  15.155  0.0816  0.3587 -0.2350
10046W        W25177  14.161  16.074   0.325 -0.2766 -0.0315  0.2127
10047W        W25178  17.307   7.175   1.321  0.0871 -0.0425 -0.0127
10048W        W25179   5.365  13.210   2.794  0.1912  0.0084 -0.0698
10049W        W25180  14.286   3.052   3.059  0.0303  0.0095  0.1038
10050W        W25181   1.021   7.668   5.471  0.0980 -0.1765  0.0195
10051W        W25182   3.422   7.490   4.074  0.1476  0.0394 -0.1998
10052W        W25183   2.916   6.730   3.773 -0.0906  0.4266  0.0557
10053W        W25184   2.963   6.754   5.295  0.0716 -0.2486  0.0785
10054W        W25185   5.660   3.201  15.500 -0.0727 -0.1609 -0.0571
10055W        W25186  15.679  16.237  16.094 -0.1991  0.1289 -0.1973
10056W        W25187  11.500  16.797   9.865 -0.1987 -0.0583 -0.2302
10057W        W25188   5.804   2.960  14.085 -0.0627  0.1086  0.1811
10058W        W25189   7.193  13.650  13.302  0.1286  0.0587  0.2144
10059W        W25190   4.736  14.923  12.090 -0.1489 -0.0311 -0.0592
10060W        W25191  11.336   2.653  12.533  0.3101  0.2381 -0.4323
10061W        W25192  15.061  14.689   1.278 -0.0007 -0.1919  0.0740
10062W        W25193  14.859   0.694   2.837  0.1931 -0.2035 -0.2103
10063W        W25194   9.304   5.172   2.756 -0.0067  0.0025 -0.2763
10064W        W25195  17.665   6.764  14.013 -0.2212 -0.4742  0.1141
10065W        W25196  17.514   8.107  12.203  0.3450  0.1382 -0.0921
10066W        W25197  17.744  10.666   9.750  0.0968 -0.0264  0.2409
10067W        W25198  13.496   5.038  12.623  0.0294 -0.0146  0.0160
10068W        W25199   1.169  13.344   0.171 -0.2986 -0.0428  0.5624
10069W        W25200  17.364  16.973   4.555  0.1031  0.0707  0.0522
10070W        W25201   6.705   0.121   2.265 -0.1384  0.2085  0.1274
10071W        W25202  11.390   0.102   0.309  0.0829  0.1734 -0.1272
10072W        W25203  16.701  16.730  13.424  0.0612 -0.0273 -0.1984
10073W        W25204  14.172  10.881  15.278 -0.0789  0.1068  0.0670
10074W        W25205  11.132  17.927  14.948  0.0912 -0.2958  0.2474
10075W        W25206  15.786  17.938   2.363  0.0108  0.2198 -0.2060
10076W        W25207  13.224  11.787  12.235 -0.1418  0.1992 -0.2438
10077W        W25208   7.290   5.647  14.690 -0.0570  0.0417  0.1597
10078W        W25209   8.249  13.864   4.263  0.1873  0.0812 -0.2635
10079W        W25210  14.750   3.106   4.979  0.1520  0.1133  0.1412
10080W        W25211   7.877   7.490   4.988  0.2815  0.3027  0.0484
10081W        W25212  16.125  18.095  13.163 -0.0989 -0.0843 -0.2112
10082W        W25213   6.641   5.881   3.665  0.0817  0.1260 -0.0890
10083W        W25214   2.598  11.730  15.901  0.0531  0.2066 -0.0984
10084W        W25215  11.445   9.770  14.826  0.0549 -0.2530 -0.0015
10085W        W25216   8.461   1.329  14.634 -0.1272 -0.1350 -0.0113
10086W        W25217  16.005   3.863  14.257 -0.5924 -0.2008  0.1952
10087W        W25218  10.569   0.802  12.893  0.0697 -0.1220  0.0469
10088W        W25219  12.629   7.727  13.343 -0.1001  0.1166  0.1712
10089W        W25220   3.252   0.865  14.757 -0.3457  0.2769  0.3728
10090W        W25221  14.595  12.646   0.100 -0.1871  0.0030  0.2134
10091W        W25222   5.162   8.533  13.531  0.1379  0.0138  0.0480
10092W        W25223  12.088  12.693  12.203 -0.0105 -0.0311 -0.3864
10093W        W25224   8.444   4.145  15.019  0.1388  0.3934 -0.3429
10094W        W25225  15.740   9.346   3.944 -0.3539 -0.1161 -0.0910
10095W        W25226   6.151   4.491   1.304  0.0931 -0.1886 -0.0543
10096W        W25227   1.240  13.491  13.309  0.2099  0.2331  0.1775
10097W        W25228   4.491   0.975  14.716  0.1781 -0.2806 -0.0270
10098W        W25229   3.521  11.054  11.203 -0.0057  0.5011 -0.1097
10099W        W25230   7.890  11.051   4.792  0.1696 -0.0331  0.0785
10100W        W25231  11.276   8.682   9.535  0.2249 -0.1067 -0.1205
10101W        W25232   4.681  10.993   4.688  0.3831 -0.0257  0.0613
10102W        W25233   1.736   9.653  12.740  0.1889  0.1160 -0.1288
10103W        W25234  16.939   0.448  11.198  0.1231 -0.3158 -0.0701
10104W        W25235   5.783   6.585   3.887  0.0199 -0.0220  0.1197
10105W        W25236   3.016  13.767   2.495 -0.1204 -0.2215 -0.2433
10106W        W25237   2.203  17.227   2.246 -0.1721 -0.0136  0.0818
10107W        W25238  17.634   6.907  11.267  0.1841 -0.1719 -0.3082
10108W        W25239  13.157   0.770   0.294  0.1006  0.0838 -0.1561
10109W        W25240   1.130  17.188   0.138 -0.0658  0.1278  0.3402
10110W        W25241  14.907   7.666  11.373  0.1631  0.1315 -0.1876
10111W        W25242   0.655  14.543   4.786 -0.0592 -0.1495  0.0622
10112W        W25243  17.008   1.115  12.023 -0.0241 -0.0578 -0.0692
10113W        W25244   5.875  12.977  10.317  0.0391 -0.0574 -0.1227
10114W        W25245  15.625   4.579   4.338  0.2062 -0.3407  0.0340
10115W        W25246  12.538  17.880  14.464  0.1313 -0.1757 -0.0761
10116W        W25247   6.290  16.584   6.059 -0.0326 -0.5238  0.2067
10117W        W25248  10.002  13.236   4.822  0.0127 -0.1345 -0.1549
10118W        W25249  18.194  13.740  14.697 -0.0478 -0.1440  0.0532
10119W        W25250   6.606   3.586  11.355  0.2095 -0.1956 -0.2094
10120W        W25251  16.380   7.150   0.228  0.1182  0.2748  0.1230
10121W        W25252  16.055  10.160  11.492  0.1964 -0.0265  0.3427
10122W        W25253   9.150  10.806  12.290 -0.0270  0.2700  0.0273
10123W        W25254   2.074  12.114  13.290  0.1594 -0.2145 -0.1728
10124W        W25255   7.274   1.366  11.551  0.0891 -0.0116  0.0922
10125W        W25256   7.479   4.415   4.677 -0.2441 -0.1988 -0.1132
10126W        W25257   3.720   5.436   2.046  0.3742 -0.3385 -0.1519
10127W        W25258  17.619   8.641  15.698  0.2632 -0.4849  0.1957
10128W        W25259   3.547   7.489  13.672  0.2839 -0.1141 -0.0359
10129W        W25260   6.098   3.333  15.040 -0.1519 -0.1083  0.1496
10130W        W25261   7.200  10.972  15.761  0.2052 -0.2372 -0.0733
10131W        W25262  17.400   9.001   3.012  0.1308 -0.1362  0.0029
10132W        W25263   7.678  15.976   5.005  0.1000 -0.1549  0.0473
10133W        W25264  10.515  10.381  11.619 -0.2742  0.0373 -0.1881
10134W        W25265  16.895  10.375   3.157  0.1316  0.1526 -0.2778
10135W        W25266  14.528  10.878   2.030 -0.0013  0.0123  0.1890
10136W        W25267   5.010  18.070   5.150 -0.1670 -0.2987 -0.1461
10137W        W25268  13.685   9.389   3.160 -0.1650 -0.1537  0.4114
10138W        W25269  14.012  11.582   3.152  0.1605  0.2326  0.1076
10139W        W25270  13.781   4.718   2.146  0.0347 -0.0034 -0.2382
10140W        W25271  15.517   9.396  11.552 -0.0594 -0.0660  0.0289
10141W        W25272  12.467   6.210  11.414 -0.1158  0.0784 -0.1413
10142W        W25273   5.009   7.576  13.584  0.0119  0.1324  0.1127
10143W        W25274  12.670  14.166  14.243  0.2363  0.0036 -0.0050
10144W        W25275   5.721   9.578  14.053 -0.0541 -0.0490  0.0082
10145W        W25276  10.573  12.656   0.617  0.1531 -0.0239 -0.1724
10146W        W25277   4.799  16.981   3.718 -0.1823 -0.3564 -0.0207
10147W        W25278   6.553   5.214   3.000  0.2084  0.0121  0.2480
10148W        W25279   9.075   0.572   4.030 -0.1749  0.1651 -0.0839
10149W        W25280  12.384  16.782   2.618 -0.0807 -0.2735  0.2064
10150W        W25281  12.974  18.064  10.524 -0.0204 -0.1070  0.1208
10151W        W25282  14.654  13.043  12.187 -0.2596 -0.2390 -0.0154
10152W        W25283  15.816   6.564   1.661  0.2674 -0.0857 -0.0970
10153W        W25284  18.240   6.224  13.150 -0.0480  0.0718 -0.1586
10154W        W25285   7.234   2.447  15.569 -0.0645  0.1761 -0.1347
10155W        W25286  10.808   6.824   0.974 -0.1469  0.0937  0.1412
10156W        W25287   0.757   4.871  11.979  0.2587  0.1605 -0.1459
10157W        W25288   3.314   3.294   3.647 -0.2208  0.1295 -0.4612
10158W        W25289   2.211   5.934  11.613 -0.1127  0.1470 -0.0376
10159W        W25290  15.577   5.369  10.912  0.1718  0.0156 -0.1603
10160W        W25291  15.858   8.018  12.847 -0.1832  0.1438 -0.1153
10161W        W25292  13.366   2.960  13.490  0.0766 -0.0553 -0.0128
10162W        W25293   2.599   0.787   1.475 -0.1474 -0.0531 -0.0372
10163W        W25294  15.474  17.113   4.614  0.2228 -0.0096  0.0313
10164W        W25295   1.093   9.969   2.362  0.1365 -0.1516  0.1154
10165W        W25296  14.096  11.137   0.841  0.4002 -0.1095  0.0612
10166W        W25297  16.840  17.792   0.388  0.0951 -0.3809 -0.0780
10167W        W25298  13.171   1.861  11.102  0.0078 -0.2979 -0.1752
10168W        W25299   2.026  16.187   4.799 -0.2664 -0.2142  0.5607
10169W        W25300   9.812   4.091   1.965  0.4356  0.0431  0.1025
10170W        W25301  10.126   8.629  12.188  0.4658  0.1872 -0.0977
10171W        W25302  13.033   3.722   3.257 -0.0210  0.1111  0.1447
10172W        W25303   2.315  17.988   3.446  0.0908 -0.0033 -0.2718
10173W        W25304  18.227  11.693   5.059  0.0359  0.3407 -0.4179
10174W        W25305   0.537  14.942   2.553 -0.1260  0.2259 -0.0277
10175W        W25306  17.286  16.270   4.987  0.0414 -0.0748 -0.1494
10176W        W25307   9.719   2.498   4.156  0.0390 -0.1870 -0.1625
10177W        W25308   0.949   9.241  15.729  0.1469  0.1966 -0.1102
10178W        W25309   9.697   4.021   1.254 -0.1102 -0.1187  0.1538
10179W        W25310  15.548   1.859  15.464 -0.0041  0.0816 -0.1016
10180W        W25311  11.918   9.795   4.445 -0.2372  0.1125 -0.0918
10181W        W25312  14.236  10.152  13.814 -0.0004 -0.0386 -0.0443
10182W        W25313   4.810  16.299  12.287 -0.1719  0.0318 -0.1209
10183W        W25314   0.686  11.414  11.351  0.0605  0.2111  0.0083
10184W        W25315  10.393   7.781   5.093  0.2814 -0.1288  0.2004
10185W        W25316   7.103   5.563  13.692 -0.0955  0.0033 -0.1316
10186W        W25317   9.366  14.991   0.761  0.0870 -0.0833  0.1064
10187W        W25318  15.870   0.197   3.663  0.0316  0.1850 -0.0697
10188W        W25319  17.660   8.338   3.537 -0.0090  0.0714 -0.3066
10189W        W25320   7.470  17.936  14.818 -0.0854 -0.1089  0.0480
10190W        W25321   0.890   3.030  13.582  0.1173 -0.0575 -0.0323
10191W        W25322  15.397   7.746  13.680 -0.1632 -0.2718  0.0574
10192W        W25323  15.019   7.103   4.439  0.1155 -0.0667  0.0986
10193W        W25324   3.166   0.040   3.106  0.4040  0.0873  0.2166
10194W        W25325  16.675   0.615   1.078  0.0440 -0.3829 -0.1721
10195W        W25326  17.725  14.467  15.598  0.1469 -0.4757 -0.2585
10196W        W25327  17.043  16.500  13.108  0.1048 -0.0166 -0.2432
10197W        W25328   2.951  12.640   4.660 -0.3690  0.2333 -0.1239
10198W        W25329   8.282   7.109  13.801  0.2942 -0.0809  0.3229
10199W        W25330   5.178   1.311  12.939  0.2065  0.2364  0.4785
10200W        W25331   9.697  14.416   2.300 -0.0791  0.1234  0.1819
10201W        W25332  18.325  14.788  13.928  0.1940 -0.0821 -0.0824
10202W        W25333   0.273  10.302   0.140 -0.0906  0.2664 -0.1673
10203W        W25334  15.724  13.546  15.539 -0.0079 -0.1083 -0.1738
10204W        W25335   4.997   1.228   5.797  0.0710 -0.3180  0.1942
10205W        W25336  16.962  17.662   1.853  0.0332 -0.0439  0.0489
10206W        W25337   2.219   2.694   3.992 -0.0247 -0.2293  0.1896
10207W        W25338  14.245   5.917   1.851  0.0999  0.2816  0.1139
10208W        W25339   9.185   1.711   5.695  0.4114 -0.0527  0.3369
10209W        W25340  15.243  12.595   5.463  0.0916 -0.1584  0.1561
10210W        W25341   9.888  15.712  13.480  0.3997  0.0739 -0.0524
10211W        W25342   0.884   1.358   4.233 -0.3768  0.0590 -0.1506
10212W        W25343  12.964  10.774   4.435 -0.0726 -0.0472  0.0629
10213W        W25344  14.779   4.941   0.792  0.3587 -0.0069 -0.1096
10214W        W25345  15.316   4.280   3.048 -0.0720 -0.0669  0.5912
10215W        W25346   6.170   6.087   2.248 -0.1134  0.0029  0.2193
10216W        W25347   1.394   3.779  14.159  0.0075 -0.3651  0.0182
10217W        W25348   3.236   1.242  14.191  0.0393  0.0038 -0.1616
10218W        W25349   0.007   1.154  15.917 -0.0882  0.2375 -0.0924
10219W        W25350   5.661  10.634  14.339  0.0632 -0.5300  0.0805
10220W        W25351  14.830   9.508  13.338 -0.0818 -0.2307 -0.1161
10221W        W25352   6.729   8.121   3.987 -0.4012  0.0061 -0.1639
10222W        W25353   4.323  13.988  15.993  0.2360 -0.0140  0.0632
10223W        W25354   1.890   1.515  14.711 -0.1779  0.0481  0.0813
10224W        W25355   2.339   2.190   3.246 -0.2961 -0.0181  0.1859
10225W        W25356   1.367   8.466   3.279 -0.0947 -0.0161 -0.1718
10226W        W25357   4.242   4.204   2.169  0.2055 -0.0607 -0.0981
10227W        W25358  12.517   2.069  12.244 -0.1723  0.0628  0.1718
10228W        W25359   8.691   6.614   2.428  0.0473 -0.2300 -0.4001
10229W        W25360   0.531  14.704  13.942 -0.1079  0.1166 -0.1861
10230W        W25361  11.348   4.767   5.252 -0.3114  0.0036 -0.1393
10231W        W25362   9.026   6.986   1.510  0.0058  0.3156 -0.1858
10232W        W25363  12.099   2.413  12.034 -0.2521 -0.1458  0.0801
10233W        W25364   2.780   2.992  12.738 -0.1835 -0.0744  0.2983
10234W        W25365  17.131   6.644  15.505  0.1883  0.0817  0.0845
10235W        W25366  17.185  16.212   4.200 -0.1616  0.1846  0.0625
10236W        W25367  15.224   0.952   1.955  0.0181 -0.0264 -0.1234
10237W        W25368  12.204  10.919  10.617  0.0847 -0.0811  0.3879
10238W        W25369  16.214  14.024   3.784  0.3265 -0.2153  0.0094
10239W        W25370   0.176  16.439  15.379 -0.1229 -0.2048 -0.1990
10240W        W25371   9.341   1.478   4.051  0.0658 -0.1632  0.1701
10241W        W25372  12.825   0.334   0.416  0.2230 -0.0211  0.0146
10242W        W25373   2.380  10.078   3.444 -0.4025 -0.0255  0.1076
10243W        W25374   0.416  12.718   2.074 -0.2852  0.0849  0.1037
10244W        W25375  14.825  13.894  12.087 -0.1192  0.2665 -0.0842
10245W        W25376   6.191   9.053   0.555  0.1811  0.0811 -0.0446
10246W        W25377  17.089   2.442   5.134  0.1726  0.0038  0.1152
10247W        W25378  17.281   9.084   1.237 -0.2907  0.1675  0.0348
10248W        W25379  14.327  14.929   1.833 -0.2304 -0.3337 -0.0301
10249W        W25380   4.293  16.579  14.934  0.2668  0.0434 -0.4487
10250W        W25381   3.716  13.140  12.127  0.0164 -0.0221 -0.0090
10251W        W25382   2.729  10.195  10.328  0.1666 -0.2604 -0.0469
10252W        W25383  13.235   1.259   1.482  0.0006  0.4281  0.0704
10253W        W25384  18.267  10.030  12.912  0.0138 -0.2835 -0.3674
10254W        W25385   7.699   6.081  15.666 -0.1036  0.2548 -0.2063
10255W        W25386   3.499  13.671  14.960  0.1047 -0.0354 -0.1023
10256W        W25387   9.562   2.690  13.607 -0.0314  0.2319 -0.1759
10257W        W25388  12.533   0.951  12.955  0.3924  0.0711 -0.0378
10258W        W25389  12.000   3.441  12.179  0.0815 -0.3486  0.4209
10259W        W25390   0.415   8.692   1.951 -0.0533 -0.1186 -0.2101
10260W        W25391   2.626   5.861   5.051 -0.2425 -0.4015  0.1418
10261W        W25392  13.850  12.411  11.326 -0.0571 -0.0071 -0.0280
10262W        W25393   2.213   9.422  10.342 -0.0650  0.0859 -0.0722
10263W        W25394  13.846   5.093   3.948  0.2291  0.0537  0.0053
10264W        W25395  11.078   9.302  14.010 -0.1426  0.3347 -0.0664
10265W        W25396   0.319  14.770  11.399  0.0707  0.3011  0.1516
10266W        W25397  16.160  10.786  10.903  0.2610 -0.1943 -0.1556
10267W        W25398   0.481   9.259   3.664  0.2639 -0.2902 -0.0475
10268W        W25399  13.052   8.233   0.814  0.0451  0.3787 -0.1419
10269W        W25400   5.322   7.357  10.377 -0.2452  0.1168  0.1368
10270W        W25401   9.836   5.384  13.143  0.0959  0.0809 -0.2187
10271W        W25402   5.924  16.570  10.570 -0.2954  0.2935  0.1325
10272W        W25403  16.177   6.171   2.481  0.3220  0.1727 -0.0583
10273W        W25404  14.321   6.514  15.048  0.0666  0.0696  0.0238
10274W        W25405  10.780  12.342  12.934  0.1327 -0.1160 -0.2474
10275W        W25406  11.924   1.264   3.197  0.2740  0.1437  0.0304
10276W        W25407   7.118   8.845   1.650 -0.1092  0.1805 -0.1437
10277W        W25408  14.460  14.625   2.323 -0.0999 -0.2061 -0.3604
10278W        W25409   8.654   5.943   2.834 -0.3037 -0.3708  0.1224
10279W        W25410   1.708   1.951  11.170  0.0358  0.1077 -0.2502
10280W        W25411   2.503  10.452  15.498 -0.2004  0.4836 -0.1982
10281W        W25412  13.677   1.310  12.945 -0.0333 -0.6332 -0.0735
10282W        W25413   0.230   6.950  10.587 -0.0319 -0.1159 -0.3979
10283W        W25414  15.723  18.057   3.678 -0.0614  0.1287 -0.0503
10284W        W25415   5.907   0.211  10.702  0.1339 -0.2107 -0.1805
10285W        W25416  14.781   9.220  12.934  0.8850 -0.1747  0.1745
10286W        W25417   1.061  13.056   2.281  0.0548 -0.4292  0.2941
10287W        W25418   7.781   6.558   3.321  0.1957  0.1861 -0.1564
10288W        W25419  15.857  16.955  15.424 -0.1456  0.1390  0.0932
10289W        W25420   9.811   5.149   2.553  0.1091 -0.0876  0.0865
10290W        W25421  13.296   0.485   1.725  0.1644  0.2306 -0.2647
10291W        W25422   0.221   4.435  12.686 -0.1296  0.0729 -0.0220
10292W        W25423  17.016  15.714   4.178  0.3179 -0.1530 -0.1718
10293W        W25424  11.190   8.324   3.537  0.2589  0.1224  0.2008
10294W        W25425  17.335  17.101  10.627 -0.2366  0.0279  0.2052
10295W        W25426   1.710  15.705   3.014 -0.0549  0.0081 -0.2513
10296W        W25427   1.251   5.466  14.769  0.0132  0.1788  0.1805
10297W        W25428   0.236   5.661  12.241  0.1138  0.0139 -0.1374
10298W        W25429   7.140  11.824  14.909  0.1245  0.1673 -0.3719
10299W        W25430  10.733  15.447   4.523  0.0568 -0.2005  0.0880
10300W        W25431  12.828  11.872  14.755 -0.1008 -0.1993 -0.3396
10301W        W25432   4.210   9.713  10.925  0.0492 -0.1092 -0.1529
10302W        W25433   4.176   2.886   2.479  0.0960 -0.1656  0.1133
10303W        W25434   6.305  15.848   4.393  0.0121  0.1231 -0.2686
10304W        W25435   5.641   4.254   5.190  0.2430  0.0858  0.1942
10305W        W25436   0.542   4.347   0.191  0.4137  0.0545 -0.1263
10306W        W25437   7.715   6.123   4.375  0.0225  0.1234 -0.0174
10307W        W25438  10.985  14.261  14.115  0.0588  0.3661 -0.2186
10308W        W25439   9.744  13.427   1.299 -0.0911 -0.1934 -0.0573
10309W        W25440   9.599   2.237   0.834  0.0160  0.1055 -0.0152
10310W        W25441  15.212  11.047  12.297 -0.1506 -0.0458 -0.0416
10311W        W25442  13.675   8.173  10.875 -0.0271 -0.0968 -0.0833
10312W        W25443  12.180  10.004   1.989  0.0252  0.1464  0.1606
10313W        W25444   3.146   6.265  10.759  0.0145  0.1221  0.0607
10314W        W25445   1.782  11.317  14.469 -0.1792  0.1503 -0.1256
10315W        W25446   2.717   2.775  14.439  0.1677 -0.0401 -0.1692
10316W        W25447   2.539  10.250  12.132 -0.1739 -0.2341 -0.4098
10317W        W25448  12.190  10.312  13.852 -0.2347 -0.2670 -0.1675
10318W        W25449  10.747   9.528   1.060 -0.1084 -0.0754 -0.1219
10319W        W25450   6.700   0.847   5.976 -0.2015  0.0999  0.1055
10320W        W25451   9.180   5.921   4.890 -0.1536  0.2537  0.0349
10321W        W25452  17.609   7.433   4.986 -0.1595  0.1850  0.0746
10322W        W25453  10.318  17.950   4.321  0.1800 -0.2244 -0.1230
10323W        W25454   4.680   8.928   1.090  0.1824  0.0018 -0.0147
10324W        W25455  17.699   7.872   0.957 -0.2527 -0.0335 -0.2754
10325W        W25456  12.602  10.612  13.168 -0.3544  0.0101 -0.2246
10326W        W25457   7.985   3.255   1.539 -0.0996  0.2179  0.1077
10327W        W25458   0.540  14.507   3.857 -0.0635 -0.0186 -0.1089
10328W        W25459   5.035   5.600   5.166 -0.0581 -0.0204  0.0736
10329W        W25460   3.447  14.972   5.277 -0.2227 -0.1444  0.0105
10330W        W25461  13.053  13.152   3.233  0.1059 -0.2269 -0.0857
10331W        W25462   2.778   9.229   3.761 -0.2244 -0.0984 -0.2381
10332W        W25463   6.503   8.665  14.958 -0.1669 -0.0011 -0.2988
10333W        W25464  13.801   4.457  15.389 -0.2452  0.0876 -0.2329
10334W        W25465   2.663  16.281   3.401  0.0748 -0.0725 -0.0661
10335W        W25466   4.837   8.506  14.690 -0.3061  0.3100 -0.1203
10336W        W25467  17.701  17.553  11.527  0.0324 -0.0596  0.0930
10337W        W25468   1.636   8.135  14.500 -0.1925 -0.2316 -0.2041
10338W        W25469  14.406   4.377   3.506 -0.2923  0.1855  0.1548
10339W        W25470  11.137  16.554  11.631 -0.0674  0.1874 -0.0901
10340W        W25471   8.920  15.336  13.646  0.0357 -0.0501 -0.1827
10341W        W25472  15.245   3.889   4.227 -0.2463 -0.0137  0.1832
10342W        W25473  11.355   9.380  12.083 -0.3484 -0.1084  0.3134
10343W        W25474   8.853  15.626  15.761 -0.0900  0.2495 -0.2061
10344W        W25475   7.506  15.346   3.972  0.1347 -0.0536  0.0612
10345W        W25476  12.017   1.724  15.886  0.3872  0.0547 -0.0170
10346W        W25477  11.914   6.111   1.985 -0.3037 -0.0894 -0.3347
10347W        W25478  16.560  15.185  11.699  0.2636  0.1463 -0.3704
10348W        W25479  10.798   5.862   0.845 -0.3342  0.0983  0.1962
10349W        W25480  15.140  13.856  16.096 -0.3688 -0.0476  0.0703
10350W        W25481  13.847  14.805   5.704 -0.0749  0.0941 -0.2878
10351W        W25482   8.079  15.446   0.723  0.1066  0.2972  0.1590
10352W        W25483  10.000   3.643   0.690  0.0002 -0.1891 -0.0876
10353W        W25484  15.565   7.889   0.639 -0.2708  0.2376 -0.2218
10354W        W25485   9.005  17.363   4.189  0.0067  0.0930 -0.0064
10355W        W25486  14.418   7.815   3.523 -0.0135 -0.3030 -0.2013
10356W        W25487   6.875   2.965   3.135  0.3439  0.0449 -0.3185
10357W        W25488  14.279   0.031   3.607  0.2338 -0.0027 -0.1121
10358W        W25489   5.646   1.233   3.228 -0.3681  0.0659 -0.0199
10359W        W25490   4.662  13.677   0.494 -0.0140  0.0935 -0.0005
10360W        W25491   9.429  17.561   2.194  0.1681 -0.0661 -0.1877
10361W        W25492   6.591  14.713  14.962  0.2120 -0.1775  0.3448
10362W        W25493   3.552   6.311   1.957  0.0161  0.0669 -0.0497
10363W        W25494   4.437   2.428  12.744 -0.1705  0.1482 -0.1477
10364W        W25495  12.229   1.611  12.633  0.1107 -0.0778  0.0435
10365W        W25496   2.096   9.085   6.417 -0.2604 -0.2664  0.2509
10366W        W25497  12.213  17.629   0.138  0.0155  0.1014 -0.1263
10367W        W25498  12.337  16.242   1.904  0.1325  0.0657  0.0716
10368W        W25499   1.411   1.145  15.562  0.1873  0.0226 -0.0172
10369W        W25500   3.661  11.504   1.541  0.0238  0.2788 -0.0889
10370W        W25501   4.515   4.123   2.955 -0.1412  0.0338  0.1501
10371W        W25502   5.635  17.280  12.641 -0.0100  0.2598 -0.1030
10372W        W25503   1.723   9.732  10.319 -0.2325 -0.2120  0.0731
10373W        W25504  16.488   1.210   5.555 -0.5202  0.0102  0.1658
10374W        W25505  12.222   4.850   2.180  0.0203  0.2023  0.1026
10375W        W25506  12.837   6.932   4.287 -0.4102  0.2276 -0.0939
10376W        W25507  10.718   1.524  15.844 -0.3530  0.3214  0.1328
10377W        W25508  17.468  10.656  15.717 -0.1386 -0.1703  0.0698
10378W        W25509   6.453   8.006  13.041 -0.0012  0.1103 -0.1520
10379W        W25510  17.258   4.402   5.402  0.0162  0.2725  0.1884
10380W        W25511  14.919   0.787   5.446  0.1375  0.0471 -0.1564
10381W        W25512   9.360  17.241  12.764 -0.2512 -0.0390  0.1269
10382W        W25513   6.747   7.546   2.186  0.0688  0.0346  0.2204
10383W        W25514  12.712  14.636   0.588 -0.0466 -0.0471  0.1114
10384W        W25515   1.981  12.193   3.940  0.2098  0.0512  0.1758
10385W        W25516  18.077   3.407   3.212 -0.0443  0.0154  0.3224
10386W        W25517   3.232  11.644   2.293  0.0341 -0.0918 -0.3120
10387W        W25518   6.941  11.930  11.998 -0.0768  0.0051 -0.1994
10388W        W25519   5.283   9.996   0.380  0.1476 -0.1800  0.0359
10389W        W25520  14.201  14.811  12.953  0.1449  0.0751 -0.2054
10390W        W25521  11.743   2.557   2.680  0.1925 -0.0467 -0.0119
10391W        W25522   1.991   1.911   1.594 -0.2322 -0.2402  0.1176
10392W        W25523  16.418   6.717   0.754  0.1686  0.2649  0.2183
10393W        W25524   2.611  12.952  10.944 -0.0181  0.2448  0.1028
10394W        W25525   9.422  15.890  15.754  0.3757 -0.2377 -0.1078
10395W        W25526   6.318  15.002  12.481  0.2806 -0.3249  0.0890
10396W        W25527  11.051   5.251   0.009  0.2740  0.2258  0.1585
10397W        W25528   5.338   5.948   4.320  0.0465  0.2177 -0.0442
10398W        W25529   9.758  15.382  15.278 -0.1599 -0.1487  0.0982
10399W        W25530   9.154   3.789  13.187  0.2576 -0.1512  0.4868
10400W        W25531  13.408  14.014   3.301 -0.0457  0.1407 -0.1024
10401W        W25532   8.453   8.412  14.070 -0.0861  0.1125  0.0942
10402W        W25533  11.995  11.065  11.047  0.0938 -0.2386  0.0650
10403W        W25534   5.243   2.606  13.354  0.1159 -0.0054  0.3842
10404W        W25535   0.861  13.591  11.260 -0.0593 -0.1313  0.0879
10405W        W25536   8.997  15.464   0.925 -0.2671  0.2025 -0.0464
10406W        W25537   9.056  17.259   1.471  0.2130 -0.1553  0.1584
10407W        W25538   2.664   4.867  15.840 -0.1308 -0.5375 -0.0002
10408W        W25539   6.293  18.256   0.390  0.2339 -0.0656 -0.1464
10409W        W25540   4.238   4.277   4.357 -0.3287  0.3835  0.0957
10410W        W25541   8.916   5.085   0.692 -0.0667  0.0892 -0.2112
10411W        W25542   8.986   1.303  12.636  0.0144 -0.1539 -0.1384
10412W        W25543   0.151   1.503   2.911 -0.0585  0.0832  0.3068
10413W        W25544  11.509  15.749   2.814  0.2268  0.2544  0.0400
10414W        W25545  12.815  17.786  14.084  0.0857 -0.0504  0.0259
10415W        W25546  18.258   3.402   4.840  0.1912  0.1939 -0.2640
10416W        W25547   5.732   7.559  15.009  0.4665 -0.0432  0.5181
10417W        W25548   2.685  14.799  15.333  0.1113 -0.0795 -0.1374
10418W        W25549   2.335  16.380  14.788  0.2061 -0.1095  0.1960
10419W        W25550  12.022  15.591  10.794  0.0651  0.0462 -0.0936
10420W        W25551  10.021   1.272   4.802  0.1545  0.1266  0.1511
10421W        W25552  10.443  18.193   2.690  0.2179 -0.3543  0.0550
10422W        W25553   1.866  12.999   2.541 -0.1436  0.0155 -0.2231
10423W        W25554  12.482   4.165   0.280  0.4243 -0.1093 -0.2725
10424W        W25555   4.711   4.417  15.361  0.2712  0.1582 -0.1682
10425W        W25556   5.881  16.108  14.232 -0.0881 -0.0523  0.1014
10426W        W25557  14.080   1.546   3.196  0.2649 -0.0588 -0.1199
10427W        W25558   7.327  17.696   2.162  0.2099  0.2200 -0.0992
10428W        W25559   9.142  12.979   3.636 -0.1668  0.0839  0.3306
10429W        W25560   7.219   9.425   0.588 -0.0572  0.0490  0.0766
10430W        W25561   1.468  18.294  15.007 -0.0808 -0.0926  0.1095
10431W        W25562  15.672   8.208  13.405  0.2988 -0.2027  0.0997
10432W        W25563  12.728   2.678  13.368  0.1783  0.0489 -0.0714
10433W        W25564   9.380   3.046  10.919 -0.1372 -0.0407 -0.0603
10434W        W25565  14.973   0.928   3.315 -0.0028  0.1560 -0.1738
10435W        W25566   4.645   1.798  15.270  0.5054  0.0860  0.0496
10436W        W25567   2.196   6.531   0.668  0.3304  0.1847  0.0218
10437W        W25568  15.429   7.432   0.045 -0.1743 -0.0203 -0.1338
10438W        W25569   6.743  14.822  13.611 -0.0641  0.2639 -0.1020
10439W        W25570   4.244  11.225   1.207 -0.2283  0.0401 -0.1116
10440W        W25571   2.877  11.462  12.520  0.2869 -0.5568 -0.1734
10441W        W25572   4.449  12.777   2.553 -0.2607 -0.0277  0.4776
10442W        W25573  10.805  13.128  14.862 -0.0603  0.0427 -0.2882
10443W        W25574  17.225   5.034  11.603 -0.1265  0.1337  0.0859
10444W        W25575   1.235  14.131   0.010 -0.2119  0.0452 -0.3811
10445W        W25576  17.596   8.638   1.454 -0.2271 -0.0375  0.0839
10446W        W25577  13.190  12.551  13.397 -0.2631  0.0550  0.1228
10447W        W25578  18.218  13.548  11.208  0.0682  0.0675 -0.3975
10448W        W25579   6.975  15.013  15.978 -0.1054  0.2396 -0.2907
10449W        W25580  11.991   5.110  12.317  0.0241  0.1668 -0.2751
10450W        W25581   9.731  15.377  10.720 -0.3069 -0.0831 -0.0039
10451W        W25582   6.222   3.558  11.706  0.0584  0.0303 -0.0552
10452W        W25583  15.153  14.323  12.068 -0.2945  0.0772  0.0536
10453W        W25584  10.820   3.280  13.551 -0.0347  0.1026  0.0865
10454W        W25585   6.079  15.376  11.242 -0.0912 -0.3778 -0.2165
10455W        W25586  15.149   3.200  12.185 -0.0007  0.0435 -0.1998
10456W        W25587  15.764  12.547   1.707  0.2585 -0.1035 -0.0075
10457W        W25588   1.934  10.372   6.467  0.1139  0.1157 -0.1031
10458W        W25589   6.193   2.206   1.579  0.1400 -0.0496 -0.0049
10459W        W25590   9.252  12.886   4.617 -0.0302 -0.1661  0.0010
10460W        W25591   8.032  10.663   3.815  0.0165  0.3202  0.1123
10461W        W25592  16.893   6.804  14.412  0.0105  0.0214 -0.0493
10462W        W25593  15.468  13.328  12.621 -0.0672 -0.2485 -0.3113
10463W        W25594  14.165  12.039  15.377  0.1308  0.0702  0.1718
10464W        W25595   2.307   2.046   5.934  0.0751  0.0273 -0.1175
10465W        W25596   5.631  12.114   5.340  0.1134 -0.0834  0.1194
10466W        W25597   6.864   0.459  13.345  0.1392 -0.1025 -0.1145
10467W        W25598   5.651   3.733  12.478  0.3028  0.0728  0.1997
10468W        W25599   7.778   8.814  14.336 -0.1423  0.1724  0.4609
10469W        W25600  17.194  13.775  14.402  0.1337  0.1290  0.0076
10470W        W25601  13.556   2.618  13.759  0.0624 -0.2949 -0.0658
10471W        W25602  14.979  14.833  11.146  0.1240  0.3833  0.2495
10472W        W25603   4.938  11.364  12.376 -0.1762  0.2269  0.1170
10473W        W25604   0.262  15.609   1.968 -0.0583 -0.1227  0.0901
10474W        W25605   0.201   2.473   0.468  0.0323 -0.3696  0.0308
10475W        W25606   8.894  18.169   0.719  0.2953 -0.2672  0.2383
10476W        W25607  11.600   1.756   2.397  0.1885 -0.0926  0.2406
10477W        W25608   0.782  14.526  14.372  0.2158 -0.0788 -0.1113
10478W        W25609  16.110  16.224   1.470  0.1916 -0.1160 -0.0497
10479W        W25610   2.383   5.912  15.771  0.0164 -0.3330 -0.1601
10480W        W25611   4.868   6.673  14.988 -0.0706  0.2539 -0.0491
10481W        W25612   8.768   3.067  15.619 -0.2006 -0.0422 -0.1001
10482W        W25613   0.180   4.140   4.925 -0.0876  0.0175 -0.0114
10483W        W25614  10.989   3.333  11.905 -0.2069  0.4180  0.1014
10484W        W25615  11.953   7.834   1.427  0.0598 -0.0759  0.1538
10485W        W25616  13.472   4.286  15.016 -0.0664 -0.0538  0.1114
10486W        W25617   8.234   8.941  10.835  0.0590 -0.0239  0.0359
10487W        W25618   4.832  17.446   5.960  0.0095 -0.0448  0.1757
10488W        W25619   3.783   1.869   1.482 -0.0605  0.4946  0.0985
10489W        W25620   5.298   6.804  14.331 -0.0175  0.1015  0.0997
10490W        W25621   6.366  17.197   2.932  0.0932  0.2127  0.1668
10491W        W25622  13.757  16.520   4.257 -0.1995  0.1421 -0.0217
10492W        W25623   1.641  12.534  14.627  0.1376  0.1146 -0.2323
10493W        W25624  16.538   1.222   1.410 -0.2489 -0.1475 -0.1118
10494W        W25625   7.781  15.039   2.928 -0.1350  0.2164 -0.2334
10495W        W25626  17.256  13.854  14.911 -0.2430  0.0673 -0.0733
10496W        W25627  17.876   8.027  10.827 -0.2932 -0.0626  0.0052
10497W        W25628  10.949   1.663  11.441  0.4368 -0.3112 -0.1151
10498W        W25629  16.508   2.624  15.506  0.3046  0.3055 -0.2451
10499W        W25630   1.609  16.752   4.001 -0.0957 -0.0633 -0.0590
10500W        W25631   6.554  10.659  13.878 -0.1042 -0.0919  0.1682
10501W        W25632  18.244  13.606   0.196 -0.1138  0.0137  0.2589
10502W        W25633  14.089  13.546  10.867  0.0823 -0.1765  0.0033
10503W        W25634   2.183   4.686   3.711  0.0142  0.4491 -0.3445
10504W        W25635   4.123   4.572  13.357 -0.1300 -0.1568 -0.0960
10505W        W25636   6.437  17.836  13.785  0.0544  0.0299 -0.0324
10506W        W25637   2.465  11.255   4.468  0.2813  0.1945 -0.1199
10507W        W25638   1.390  11.251  13.468  0.0772  0.1442  0.1785
10508W        W25639  15.685   4.338  14.969  0.0729 -0.0246 -0.0316
10509W        W25640  13.895   6.662   4.848 -0.3639  0.0281 -0.0255
10510W        W25641   6.974   0.887  13.684 -0.2900  0.0042 -0.2029
10511W        W25642   0.849   9.312  12.125 -0.1365 -0.1774  0.1307
10512W        W25643   9.056  15.323   1.419  0.2790  0.0290  0.1528
10513W        W25644   2.187  13.043  15.710 -0.0335  0.0209 -0.1877
10514W        W25645   1.798  13.974   3.528 -0.1100  0.2343  0.0808
10515W        W25646   3.212  16.206  11.835  0.0713  0.0681 -0.1168
10516W        W25647   9.934   2.425   2.804 -0.2604 -0.3713 -0.2295
10517W        W25648   6.629   3.439  14.619  0.0934 -0.1418  0.0610
10518W        W25649   0.991  10.261  15.571  0.0191  0.2703 -0.0608
10519W        W25650   1.142  10.350   1.344 -0.2215 -0.0851 -0.1605
10520W        W25651   0.105   1.716   3.774 -0.0187  0.0540 -0.0984
10521W        W25652   0.563   8.024   5.477  0.0431  0.3757  0.1583
10522W        W25653  16.213   9.442  12.190  0.2139  0.4040 -0.1002
10523W        W25654  10.398  11.695   3.746 -0.1373  0.2609  0.0015
10524W        W25655   9.966  10.132   3.415 -0.4479 -0.0229 -0.1059
10525W        W25656  15.880   5.929   1.230  0.1768 -0.1258  0.0009
10526W        W25657   1.353   6.113  15.945  0.0240  0.1386  0.1229
10527W        W25658  10.179   9.438  14.729  0.1770 -0.0717  0.0014
10528W        W25659   0.245   0.298  11.767  0.0241  0.1137 -0.0105
10529W        W25660  12.107   7.277   1.593 -0.3306 -0.0332 -0.0067
10530W        W25661   3.751   5.810  13.206  0.2105 -0.4438 -0.0314
10531W        W25662   4.966   7.165   1.566 -0.2204 -0.3625 -0.1605
10532W        W25663  11.763   0.869  15.649 -0.2266 -0.1597 -0.1546
10533W        W25664  16.108  15.844   4.570 -0.0610 -0.1003  0.2782
10534W        W25665   8.772   1.505   3.134  0.2692  0.0188 -0.0519
10535W        W25666  16.073   5.914  13.110 -0.1166 -0.1183 -0.0888
10536W        W25667   9.157  12.147   0.986 -0.6549 -0.2422 -0.2288
10537W        W25668  17.797   0.312   4.686  0.1978 -0.1938 -0.0729
10538W        W25669  12.197   7.503  14.935 -0.0688 -0.1358 -0.1447
10539W        W25670   2.627   8.588   1.073  0.3369  0.0785  0.1834
10540W        W25671  12.145  10.567  14.750 -0.2088 -0.0570 -0.1015
10541W        W25672   9.506  10.997  10.980 -0.3280 -0.1426  0.4139
10542W        W25673   8.263  12.045  10.696 -0.3094  0.2258 -0.0018
10543W        W25674  16.753  15.136  12.202  0.3689 -0.4737  0.1806
10544W        W25675   3.487   8.905   4.771 -0.0366  0.3457  0.0831
10545W        W25676  17.236   0.213  15.459 -0.0690  0.2031  0.2640
10546W        W25677   5.400   5.411   9.742  0.2559 -0.0549  0.1176
10547W        W25678   8.362  16.735  13.521 -0.2103 -0.2130  0.1150
10548W        W25679   5.086  16.717   5.574 -0.0429  0.1679  0.0376
10549W        W25680   5.995   4.150   6.070  0.2534 -0.0897 -0.0278
10550W        W25681   1.939   5.163   3.967 -0.0563 -0.2347  0.1415
10551W        W25682   5.591  10.441  16.047 -0.0105 -0.0452 -0.0803
10552W        W25683   2.542   0.557  15.590 -0.1253  0.2610 -0.0945
10553W        W25684   3.500  13.233   5.618  0.1455  0.2420 -0.1723
10554W        W25685   1.299   1.085   3.347  0.1761  0.2198 -0.2181
10555W        W25686  10.507  16.555  12.708 -0.1874  0.3162  0.1851
10556W        W25687   1.155   8.219   4.373  0.1075 -0.3436  0.2793
10557W        W25688   2.826   9.563  15.248 -0.1885 -0.0419 -0.0205
10558W        W25689   0.523  16.338  12.553  0.4504  0.3005  0.3083
10559W        W25690   9.741   0.407  15.882 -0.2506 -0.3754  0.1338
10560W        W25691   5.984   8.968  13.856  0.1461 -0.0484 -0.1557
10561W        W25692   8.572  15.751  13.813  0.0276 -0.1329 -0.0257
10562W        W25693  16.764   1.261   4.006  0.2293  0.1364  0.0520
10563W        W25694  14.677  11.912   0.400  0.1370  0.2154  0.0144
10564W        W25695   4.522   3.379   0.216 -0.0515 -0.1414 -0.1013
10565W        W25696  11.170   9.972  12.903 -0.0473  0.4607 -0.2418
10566W        W25697   7.131   6.143  12.995 -0.0851 -0.0113  0.0487
10567W        W25698   3.387  11.425   0.199 -0.1975  0.1827 -0.3095
10568W        W25699  16.845   5.581  11.519 -0.1753 -0.1603  0.0421
10569W        W25700  14.683   2.414   3.389 -0.1409 -0.1264  0.0758
10570W        W25701   1.964   7.323   3.851  0.1299 -0.0258 -0.0537
10571W        W25702  14.045   8.952  12.042 -0.0473  0.4989 -0.0286
10572W        W25703  15.366   9.364   3.177 -0.0638  0.1410 -0.2605
10573W        W25704  17.328  17.623   2.931 -0.4277 -0.1537 -0.1072
10574W        W25705  16.402   8.407   3.311  0.0748  0.0222  0.1971
10575W        W25706  16.907   2.354  15.568 -0.0767 -0.1155 -0.3287
10576W        W25707   0.020   1.214   3.794 -0.0129 -0.1250  0.2258
10577W        W25708   8.447   9.844   0.448  0.0721  0.2632  0.1019
10578W        W25709   4.435  10.591  11.931 -0.0714 -0.3232  0.0401
10579W        W25710   4.165  14.095   2.185 -0.2651  0.0098  0.0748
10580W        W25711   9.516   6.305   0.474  0.3151 -0.0139 -0.1682
10581W        W25712  13.135  12.936  15.905 -0.2242 -0.0701 -0.0656
10582W        W25713   8.851   9.943  12.382 -0.1551 -0.0789  0.2062
10583W        W25714  12.912   2.844   4.507  0.0466  0.1326  0.0307
10584W        W25715   6.316  12.666  14.511 -0.0284 -0.3677  0.3113
10585W        W25716   2.548   4.993   4.039 -0.2415 -0.5320 -0.0484
10586W        W25717   9.377   0.108   0.038 -0.0288 -0.2785  0.0184
10587W        W25718  14.528  16.482   1.346  0.4498 -0.0010 -0.2478
10588W        W25719   9.880   9.496  11.682  0.1316  0.1656  0.1440
10589W        W25720   2.732   2.748  15.539 -0.1337 -0.1727 -0.1387
10590W        W25721  12.671   8.869  13.789  0.1400  0.1306 -0.1415
10591W        W25722   6.259   1.089   5.644 -0.2982  0.2135  0.1101
10592W        W25723   6.127  15.334  13.312 -0.1004 -0.0232  0.3299
10593W        W25724  18.300  15.721   1.507  0.0290  0.0244  0.0652
10594W        W25725  16.572  13.806   2.342 -0.0973  0.0425  0.1522
10595W        W25726   5.488  13.513   2.332  0.2293 -0.0059 -0.3312
10596W        W25727   0.453  14.198  11.972  0.2911  0.0692  0.0144
10597W        W25728   1.355   8.340  14.921  0.0160  0.1358  0.0920
10598W        W25729   9.359   7.049  11.405 -0.0756 -0.1831  0.1755
10599W        W25730   4.909  15.316   4.463 -0.2967  0.1867  0.1713
10600W        W25731   3.982  16.156   1.960  0.1389  0.1357 -0.2092
10601W        W25732  12.201   0.671  10.979  0.0127  0.2885 -0.0007
10602W        W25733  10.329   8.443  11.271  0.2363  0.2253 -0.2258
10603W        W25734   5.356  13.954  13.333 -0.0619 -0.0040  0.1760
10604W        W25735  14.159   7.514  12.223 -0.1236  0.1183 -0.1535
10605W        W25736   8.623   7.635  12.911 -0.2010  0.3111  0.5084
10606W        W25737   8.387  13.920   5.747 -0.2125 -0.0298 -0.2272
10607W        W25738  12.051  11.593   0.256  0.1961 -0.2923 -0.1206
10608W        W25739   6.790   1.656  10.836 -0.0918 -0.0313  0.0816
10609W        W25740   4.410  13.521   0.004  0.4463 -0.4110  0.0857
10610W        W25741  13.179  13.079  13.458 -0.2002 -0.2422 -0.0033
10611W        W25742  16.022  10.328   3.607 -0.2008  0.2483 -0.1760
10612W        W25743  16.386  17.585   0.389  0.0258  0.0702 -0.0362
10613W        W25744   5.313   7.660  11.898 -0.0844  0.1748  0.4031
10614W        W25745   3.141   4.203  13.291 -0.1095  0.2233  0.1384
10615W        W25746   3.928   2.326   5.573 -0.0637  0.0904  0.0549
10616W        W25747   4.636   2.618  10.588 -0.2106  0.2204  0.3194
10617W        W25748   4.688   3.092  15.382  0.1733 -0.2141  0.1225
10618W        W25749  11.227  18.324   3.977 -0.0016 -0.0090  0.1980
10619W        W25750   6.006  10.060  15.555  0.3217 -0.2210 -0.0561
10620W        W25751  12.023   0.015   1.940 -0.1307 -0.2616  0.1114
10621W        W25752   7.699  18.180  13.834 -0.3381  0.0304 -0.1436
10622W        W25753  14.533   7.089  14.575  0.1151  0.0990 -0.2859
10623W        W25754   8.511   3.715   4.270  0.0963  0.0250 -0.0171
10624W        W25755   6.643  10.031  10.442  0.2093 -0.0799  0.1322
10625W        W25756   5.631  13.008   1.532  0.0143  0.1153  0.0294
10626W        W25757  13.855  12.685   1.946 -0.1312 -0.0274 -0.0968
10627W        W25758   1.626  17.363  15.329  0.3209  0.4871  0.1751
10628W        W25759  13.219   1.332   0.474  0.0895  0.1933 -0.0085
10629W        W25760   0.144  18.318   5.453  0.0952 -0.0947  0.1193
10630W        W25761   6.385  12.484  16.108 -0.1514  0.2445  0.0116
10631W        W25762   1.699  10.361  14.256 -0.0776  0.1371  0.0939
10632W        W25763   4.630   1.467  15.876 -0.1903  0.0144  0.2012
10633W        W25764  14.030   2.301   5.129 -0.2030 -0.3276  0.0399
10634W        W25765   8.626   1.873   4.358 -0.0487  0.0854  0.1240
10635W        W25766   8.063   5.884   4.116  0.3551 -0.1988 -0.1205
10636W        W25767  14.945   8.141   1.075  0.1017  0.1247  0.2247
10637W        W25768  17.654  11.952  12.262 -0.0005 -0.0129  0.2909
10638W        W25769   5.645   2.858  12.055  0.1679  0.0548 -0.3413
10639W        W25770   1.890  15.169  14.784 -0.0128 -0.0466  0.0630
10640W        W25771   9.446   4.586  15.843 -0.3719 -0.0981 -0.0292
10641W        W25772   4.430   0.620   3.689 -0.0390 -0.0491 -0.0641
10642W        W25773   9.321   7.670  14.659  0.0782  0.4089 -0.1458
10643W        W25774   4.793   9.548   3.116  0.0399  0.0993  0.0551
10644W        W25775   3.147   4.458  11.605  0.0495 -0.3592  0.1606
10645W        W25776  14.217   3.335   4.956  0.1611  0.0883  0.0233
10646W        W25777  13.893  15.539  14.769  0.4371  0.3961  0.0443
10647W        W25778  14.099  10.853   3.866 -0.2649 -0.0156  0.0364
10648W        W25779   5.377   8.156  10.975  0.1471  0.1916 -0.3239
10649W        W25780   1.940   6.930  14.849 -0.0463 -0.0162 -0.1966
10650W        W25781   9.939   1.240  10.810  0.0062  0.1960 -0.1438
10651W        W25782   6.255  10.464   2.655 -0.0087 -0.0831  0.1574
10652W        W25783   6.516   0.576   0.771  0.0772 -0.1504 -0.1750
10653W        W25784   7.903  16.173   3.168 -0.1306  0.1138  0.0884
10654W        W25785   6.705  11.563  13.839  0.4829  0.0222  0.3230
10655W        W25786   6.499   3.246  10.845  0.2435  0.1455 -0.0405
10656W        W25787   3.443  13.493   5.082  0.0493  0.0307 -0.1855
10657W        W25788   0.445  12.095   3.826 -0.1816  0.0419  0.0461
10658W        W25789  10.434  12.454  11.916  0.1265 -0.1426  0.1437
10659W        W25790   3.272  13.074  12.440 -0.0967  0.2323  0.0383
10660W        W25791   5.496  13.681  12.585  0.1146  0.1429  0.1059
10661W        W25792  10.379   2.088   0.345  0.1510 -0.0534  0.1702
10662W        W25793  15.407   2.067   1.185  0.1319  0.0404  0.1610
10663W        W25794  12.912  18.092   3.141 -0.2453 -0.1430 -0.0060
10664W        W25795  12.756  13.008   1.081 -0.0263 -0.0082  0.0615
10665W        W25796   8.502   8.242   3.404 -0.0883  0.0338  0.1449
10666W        W25797   3.072  16.739   2.060 -0.0832 -0.0707  0.3971
10667W        W25798  11.550  14.937  13.702  0.0222  0.1135  0.2397
10668W        W25799  10.483  18.240   0.050 -0.0873  0.0211 -0.1713
10669W        W25800  12.087  14.056  11.224  0.0653  0.0843  0.0834
10670W        W25801  12.929  13.615  11.946  0.0880  0.1373  0.1197
10671W        W25802   4.990   4.512  11.029  0.0887 -0.1090 -0.2956
10672W        W25803   3.021   0.450   1.658 -0.2127 -0.1179 -0.0418
10673W        W25804   6.166  15.335   4.229  0.1555 -0.3312 -0.3016
10674W        W25805   1.755  11.594  11.248  0.3570  0.2259  0.0514
10675W        W25806  11.324  15.570  12.539  0.0169  0.1394 -0.3222
10676W        W25807   1.105   8.323   3.692 -0.1058 -0.1015  0.0300
10677W        W25808  10.997  12.401  16.011  0.2247  0.2594 -0.1225
10678W        W25809   0.067   2.917  11.444  0.1561  0.3146 -0.0888
10679W        W25810   7.115  13.198   4.674  0.0942  0.2585  0.3773
10680W        W25811   4.481  13.822   1.337  0.2570  0.2212  0.2128
10681W        W25812  16.476  15.295  14.015  0.2370  0.1102 -0.0969
10682W        W25813  13.962  10.926  12.388  0.0046 -0.4736  0.0229
10683W        W25814   5.859  14.351   5.565 -0.1768  0.1103  0.1003
10684W        W25815  13.536   1.557   3.308  0.0262 -0.1205 -0.1902
10685W        W25816   0.665  13.956  15.091 -0.0210  0.1035 -0.5215
10686W        W25817   5.386   2.811  11.225 -0.0921  0.2842 -0.1097
10687W        W25818  11.886  12.656   2.866  0.3518  0.1663 -0.0087
10688W        W25819   6.617   6.040   2.449  0.3073 -0.3075 -0.2603
10689W        W25820   7.145   4.748   4.265  0.1456 -0.0265  0.1598
10690W        W25821   2.186   5.591  15.269  0.0303  0.0701  0.0467
10691W        W25822   5.169   5.833  11.678 -0.3656  0.0981 -0.1467
10692W        W25823  12.825   7.198   0.498  0.3425 -0.3613 -0.1299
10693W        W25824   3.515  16.556   1.888 -0.1750  0.0524  0.1102
10694W        W25825   4.729  15.487   1.541 -0.0284 -0.0446  0.2338
10695W        W25826  16.983  10.269   9.741 -0.4275  0.1120 -0.0492
10696W        W25827   1.695  12.619  13.578 -0.0067  0.0797 -0.0270
10697W        W25828   5.288   6.243  11.429 -0.3007  0.1642  0.3422
10698W        W25829   1.283   1.439  12.769 -0.0136  0.2512  0.2628
10699W        W25830   1.416   3.227   4.739  0.2080 -0.2739 -0.1158
10700W        W25831   8.932   6.088   4.016  0.1379 -0.0018  0.0444
10701W        W25832  11.656  13.176   0.176 -0.1957 -0.0118 -0.1813
10702W        W25833  18.203   1.295   0.449 -0.0381  0.2086 -0.2439
10703W        W25834  11.601   0.898   0.838  0.0886  0.1336  0.1428
10704W        W25835  11.216  13.393   2.095  0.2111 -0.1239 -0.0827
10705W        W25836   7.060   7.586  15.042 -0.1368 -0.1216  0.0071
10706W        W25837   8.400  13.309  10.649  0.1411 -0.0812  0.2177
10707W        W25838  13.096   6.863  13.473  0.1390  0.0002 -0.0263
10708W        W25839   4.103   8.733  14.021  0.1563  0.2384 -0.0433
10709W        W25840  18.236   7.526   4.853  0.1457 -0.2880  0.3457
10710W        W25841   7.426   2.866  15.338 -0.1963 -0.0623  0.2130
10711W        W25842  16.676   5.065   3.484  0.0813 -0.2376  0.1239
10712W        W25843   8.172   9.270   2.666 -0.2584  0.1001  0.2463
10713W        W25844  12.401   1.211  13.377  0.2386  0.2253  0.0081
10714W        W25845   9.295  10.412   4.284 -0.1331 -0.4709 -0.3423
10715W        W25846  10.441  12.833  14.780 -0.2155  0.0716 -0.0911
10716W        W25847   7.375  13.800   0.651  0.3211 -0.0583  0.0089
10717W        W25848   8.537   0.799   0.337 -0.0180 -0.0166 -0.5790
10718W        W25849  10.437  14.432   0.649 -0.1999 -0.0801  0.1704
10719W        W25850   8.796  16.340   0.032  0.2406  0.1610  0.1933
10720W        W25851  15.505   9.900  13.853  0.0511  0.0291 -0.0911
10721W        W25852  14.907  12.287   1.940 -0.0946 -0.0880 -0.1379
10722W        W25853   2.338   0.465   4.162 -0.1557  0.1054 -0.0180
10723W        W25854   8.719  14.712  11.276  0.0800 -0.1452  0.0370
10724W        W25855   0.799   8.500   5.872 -0.1415  0.2503  0.1078
10725W        W25856   2.047   5.691  10.836 -0.1186 -0.2515 -0.2091
10726W        W25857   3.864   8.293   3.825 -0.2095  0.1170 -0.3272
10727W        W25858  11.921   4.660   4.932  0.1773  0.1467 -0.2463
10728W        W25859   0.965   2.548  10.268 -0.1154  0.1788 -0.1677
10729W        W25860   1.486  14.566  12.099 -0.1471 -0.2460  0.2419
10730W        W25861   2.936  13.415   1.139  0.5338 -0.3076  0.0511
10731W        W25862  12.207   3.151   3.737  0.1098  0.0973 -0.0526
10732W        W25863   1.024   5.817  14.404  0.1598 -0.1115  0.1097
10733W        W25864   8.935   5.506  15.311  0.1001  0.2706  0.2432
10734W        W25865  11.894  10.548   3.886 -0.1232  0.1755 -0.0326
10735W        W25866   1.043   0.706  13.090  0.2203 -0.0758 -0.3107
10736W        W25867   7.502   9.563   2.084 -0.3201 -0.0153  0.1097
10737W        W25868  14.935   5.133  13.473  0.1488 -0.1922  0.2413
10738W        W25869  12.570   3.194   4.510  0.2759 -0.0211 -0.0777
10739W        W25870  16.221   9.371   5.762 -0.0373 -0.0289  0.1337
10740W        W25871  13.636   3.155  15.285 -0.0844 -0.0691 -0.1880
10741W        W25872  11.419  11.272  16.000  0.3269  0.1148 -0.0246
10742W        W25873  14.068  13.852  11.589  0.2106  0.0422 -0.1405
10743W        W25874  13.406   2.471   2.228 -0.2669 -0.0827 -0.2974
10744W        W25875   3.167   7.951  11.911 -0.2070 -0.1603 -0.1220
10745W        W25876   9.414   0.505   0.814  0.0912 -0.0416  0.0631
10746W        W25877  15.646   1.484  15.076 -0.0753 -0.1692  0.2463
10747W        W25878   6.579   8.799  11.273 -0.0935  0.1906 -0.0269
10748W        W25879  13.823  15.183  10.453  0.5878 -0.2682  0.0340
10749W        W25880  16.874   4.023  14.178  0.0378 -0.2091  0.1100
10750W        W25881  16.666   5.182  12.245 -0.0276 -0.3413  0.4326
10751W        W25882  17.897  12.099   2.970  0.0550  0.0574 -0.2718
10752W        W25883  17.261  14.122   3.706  0.0124  0.2012 -0.4073
10753W        W25884  11.298   3.775  14.589 -0.0158  0.0362 -0.3288
10754W        W25885  10.557  15.480  15.199 -0.1180  0.0544 -0.1995
10755W        W25886   6.117  11.712  13.108 -0.0956  0.0270 -0.1018
10756W        W25887  12.419   1.783   3.812  0.1926  0.2221  0.1301
10757W        W25888  18.083   2.188   2.178  0.2436  0.1353  0.1923
10758W        W25889   2.163  11.327   3.469  0.1375  0.1391 -0.1350
10759W        W25890   1.178  16.109   3.388 -0.1125 -0.0738  0.0762
10760W        W25891  12.900   5.426  14.620  0.0176  0.1774 -0.1994
10761W        W25892  11.509   3.377   4.545  0.0498  0.1315 -0.0663
10762W        W25893  16.092   2.566  15.721  0.2360  0.2478 -0.2481
10763W        W25894  16.464   0.658   5.205 -0.1852  0.0538  0.1194
10764W        W25895   6.357   9.625   2.509 -0.1200 -0.0522 -0.1646
10765W        W25896   4.248   1.728   1.169  0.2876  0.3038  0.3317
10766W        W25897  14.830  18.014   0.645  0.1685  0.0666  0.1762
10767W        W25898   7.721   6.098  14.122  0.0707  0.2701  0.1436
10768W        W25899   6.479   5.000  13.650 -0.2810  0.1481  0.1252
10769W        W25900   5.011  11.745  13.265 -0.0116  0.0555 -0.0064
10770W        W25901  12.658   5.775   0.459 -0.1910  0.0555 -0.2535
10771W        W25902   7.708   0.873   5.163 -0.0980 -0.1926  0.0745
10772W        W25903  14.745   1.929   3.131  0.4208  0.3769 -0.0160
10773W        W25904  12.584   2.579   1.826  0.1924 -0.1238  0.0243
10774W        W25905   8.933   7.551   5.590 -0.0727 -0.2598 -0.2578
10775W        W25906  15.256   2.215   4.628 -0.2777  0.2829 -0.0925
10776W        W25907  17.106   4.672  11.919 -0.1197  0.3388  0.2728
10777W        W25908  11.902   9.250   1.539  0.2788  0.4072 -0.2377
10778W        W25909   4.084   3.120  10.118 -0.1345 -0.1001 -0.3067
10779W        W25910   1.039  14.637   3.775  0.2142 -0.1012  0.1340
10780W        W25911   4.095   9.746   3.748 -0.4610 -0.0145 -0.0148
10781W        W25912   1.866  10.810   1.315  0.1189 -0.1328  0.1857
10782W        W25913   4.092  16.359   3.684  0.1577 -0.1515 -0.0100
10783W        W25914   1.003   0.862   4.969 -0.1426  0.1988 -0.1310
10784W        W25915  15.082   1.195   4.624 -0.0814  0.3700 -0.0100
10785W        W25916   0.877  15.376  14.496 -0.2169 -0.1651  0.0237
10786W        W25917   8.769  11.711   1.022 -0.1711  0.2739 -0.1796
10787W        W25918  15.227   2.626   3.187 -0.0481  0.2005 -0.2594
10788W        W25919  12.489   4.297  12.431 -0.3074 -0.0008  0.1315
10789W        W25920   2.822   1.280  11.841  0.0714 -0.0304  0.2708
10790W        W25921   6.169   5.245   1.052 -0.1534  0.0047  0.2922
10791W        W25922   0.618  11.670   2.899  0.1052  0.2584 -0.1863
10792W        W25923   8.065   0.849  15.027 -0.0429  0.0284 -0.0481
10793W        W25924  15.526  13.029  15.625  0.1544 -0.2288 -0.0544
10794W        W25925  15.836  13.069  12.906 -0.0440 -0.1354  0.0184
10795W        W25926  11.385  17.625  14.521  0.4071  0.3612 -0.2845
10796W        W25927   0.216   6.347   4.334  0.2397  0.0187  0.1307
10797W        W25928   6.553  10.128   3.452  0.1767 -0.1326 -0.0582
10798W        W25929   4.946  10.862   0.552  0.2615  0.0520 -0.3449
10799W        W25930  11.283   7.403   0.956  0.0609 -0.0212  0.0358
10800W        W25931   2.894  11.549   3.190 -0.2589 -0.0775 -0.3284
10801W        W25932  11.348   0.630  14.555  0.0015  0.0939  0.2186
10802W        W25933  12.667   1.330   4.010 -0.0219  0.0822 -0.3661
10803W        W25934  11.452   0.652   4.312  0.1182  0.1081  0.7832
10804W        W25935   3.224  14.389   3.844  0.1691  0.0621  0.1209
10805W        W25936  12.575   0.429  15.708 -0.6505 -0.0471  0.3587
10806W        W25937   6.120  10.057  15.022 -0.1368  0.0985  0.0415
10807W        W25938   9.436   6.306  10.397  0.1605 -0.3107  0.0023
10808W        W25939   8.387  15.088   0.387 -0.1779 -0.2105 -0.1409
10809W        W25940  12.513   0.769   0.968 -0.1773  0.1784 -0.3403
10810W        W25941   9.125   0.429  14.803  0.0381  0.1496  0.2168
10811W        W25942   8.907   7.899  14.594  0.1332  0.0457  0.0960
10812W        W25943   0.182   6.719  13.961  0.1123  0.0864 -0.0121
10813W        W25944   3.744   0.271  15.236 -0.0981 -0.0814 -0.2767
10814W        W25945   6.697  13.555  13.801 -0.1094  0.0442 -0.1002
10815W        W25946   2.750   0.018   1.567 -0.2829  0.0587  0.3207
10816W        W25947  16.780  17.022   4.886  0.2467 -0.1071  0.1042
10817W        W25948   1.261  17.803  11.690  0.0223  0.3872  0.2555
10818W        W25949   5.761  12.794   2.687 -0.3177 -0.0223  0.2039
10819W        W25950  17.618   4.096   3.248  0.1932  0.1269  0.1162
10820W        W25951   1.336  10.164  13.590 -0.0238 -0.0761 -0.2209
10821W        W25952   6.338   8.180   4.324 -0.0918  0.0006 -0.0066
10822W        W25953  16.760   9.963  15.889  0.0942 -0.1514  0.1441
10823W        W25954   4.268   6.805   0.181  0.0104  0.3253  0.0996
10824W        W25955  15.039  13.878   2.304 -0.1039 -0.1918  0.1848
10825W        W25956  13.384   6.888  15.817 -0.2815 -0.2109 -0.2209
10826W        W25957   7.771   3.187   5.460  0.0173 -0.0334 -0.0365
10827W        W25958   6.879  13.581  10.443 -0.1429  0.4229 -0.0027
10828W        W25959  11.519   7.684   3.026  0.0465  0.2923  0.0975
10829W        W25960  12.536   5.115  13.663  0.1353  0.0091  0.0311
10830W        W25961  17.880   8.399   1.021  0.2397  0.3724  0.0688
10831W        W25962  13.011   5.606  13.781 -0.3695 -0.0902 -0.2541
10832W        W25963   5.929   8.365  14.107 -0.1074 -0.0849 -0.1096
10833W        W25964  15.055   9.988   2.422 -0.1773 -0.0786  0.2176
10834W        W25965   8.759   1.325   3.616  0.0217 -0.0724 -0.0142
10835W        W25966   7.734   7.488   3.263  0.0505  0.1233 -0.1561
10836W        W25967   3.680   9.970  13.363 -0.2001 -0.1054  0.0200
10837W        W25968   5.391  14.154  12.451  0.0560 -0.3968 -0.2092
10838W        W25969   9.279   2.887   3.020  0.0249 -0.3694 -0.1050
10839W        W25970  11.391   1.167  10.568 -0.1034  0.2609 -0.0288
10840W        W25971   0.816   0.189  16.027 -0.0124 -0.0304  0.0023
10841W        W25972   1.224   9.611   4.069  0.0157  0.2557 -0.0462
10842W        W25973  10.768   0.638  11.912 -0.2111  0.0641  0.1495
10843W        W25974   5.309  15.887  13.516  0.1081 -0.0984 -0.0164
10844W        W25975  14.596  14.883  12.087  0.2772  0.1571  0.1186
10845W        W25976   2.696   7.715  15.834 -0.2743 -0.2880  0.0548
10846W        W25977   6.805   7.312  11.026  0.0931 -0.0635  0.2102
10847W        W25978   3.526   1.604   2.537 -0.0182 -0.1477  0.0560
10848W        W25979  12.583  16.454   5.368  0.0508  0.2172 -0.2495
10849W        W25980  15.148   2.610   0.250  0.3978  0.1173 -0.0685
10850W        W25981  13.254   8.535   1.205  0.0135  0.1357  0.2612
10851W        W25982  14.789  11.144  15.354  0.0284 -0.3627 -0.2043
10852W        W25983   6.967  17.312   1.913  0.0963 -0.0336 -0.1473
10853W        W25984  14.029   7.635   5.719  0.0206 -0.0474  0.4667
10854W        W25985  17.343   2.377  15.931 -0.0735  0.1806  0.1168
10855W        W25986   6.091  15.566  13.985  0.2821  0.0469 -0.2251
10856W        W25987  17.389  10.948  13.065  0.1603  0.1548  0.1335
10857W        W25988  11.208   2.286   0.656 -0.2070 -0.0135 -0.1121
10858W        W25989   2.019   0.501  15.487 -0.2998 -0.2752  0.0642
10859W        W25990   9.342   1.086  12.299  0.2335 -0.1393  0.0446
10860W        W25991   7.622   2.006   1.795 -0.2055 -0.1733  0.2148
10861W        W25992   0.262   7.731  13.206  0.3067  0.0407  0.2463
10862W        W25993   2.969   6.392  11.232  0.1437 -0.0391 -0.0172
10863W        W25994   4.379   4.330  14.976 -0.0631 -0.1330  0.1650
10864W        W25995  17.504  13.696  15.328  0.0856  0.0011 -0.0618
10865W        W25996  18.231  11.709   0.043 -0.2897  0.1454  0.0158
10866W        W25997   8.118   9.360   3.447 -0.0022 -0.1223 -0.0534
10867W        W25998   4.334   2.255  15.059 -0.1904  0.0371 -0.0321
10868W        W25999  10.132  13.432  11.335 -0.2941 -0.0115  0.0608
10869W        W26000   5.050   2.327  14.480  0.0454  0.5295 -0.0981
10870W        W26001   4.537  14.293   5.367  0.0245  0.0895  0.0966
10871W        W26002  13.277  16.510   0.179 -0.1712  0.1440  0.0585
10872W        W26003   0.387  13.971  12.479  0.1080  0.2540 -0.6041
10873W        W26004   7.300   3.970  15.597  0.3426 -0.2065 -0.1199
10874W        W26005   6.507   4.051   3.860 -0.1169  0.2627 -0.1098
10875W        W26006   2.549  13.447  12.833 -0.1045 -0.3706  0.3361
10876W        W26007   9.829  18.297  13.548 -0.3967  0.1357 -0.1725
10877W        W26008  10.364  17.462   1.309 -0.1516 -0.2317  0.0593
10878W        W26009  10.947   9.009   4.915  0.1754 -0.2904  0.1159
10879W        W26010   2.627   0.045  14.346 -0.1028  0.0346 -0.2194
10880W        W26011   0.030  18.135  11.774 -0.0245 -0.2658 -0.0840
10881W        W26012  11.304  10.107  14.023 -0.0143  0.0533 -0.2002
10882W        W26013  13.274   5.582  12.268 -0.0208  0.0460 -0.0123
10883W        W26014   4.825  17.128  13.821 -0.2249 -0.0361  0.0998
10884W        W26015   6.868   9.281  14.422  0.1886 -0.1447  0.3144
10885W        W26016   6.517  11.764   3.091 -0.2831  0.0569  0.1531
10886W        W26017   8.959   9.152   3.077 -0.0481 -0.1627  0.1415
10887W        W26018   5.263  16.753   6.519 -0.2440  0.2623  0.0597
10888W        W26019  14.819  17.763  11.247  0.2885 -0.1288 -0.4237
10889W        W26020  12.868   7.827   4.745  0.2537  0.0695 -0.0769
10890W        W26021  13.586  10.869  10.732 -0.3851 -0.0826  0.4371
10891W        W26022  11.572  13.224   4.011  0.0251 -0.0709 -0.2605
10892W        W26023   6.960  15.075  15.240  0.0848  0.0926  0.2285
10893W        W26024   0.287   6.384  13.531  0.0806  0.0319  0.1863
10894W        W26025   9.556  13.202  12.990 -0.1177 -0.0107 -0.0944
10895W        W26026  13.696   8.790   2.190  0.0065  0.2984 -0.1831
10896W        W26027   0.796  13.855   5.497 -0.0895  0.2963  0.1595
10897W        W26028  17.567  12.471  14.059 -0.1589  0.4728 -0.0449
10898W        W26029   9.396  17.497   3.270  0.2735 -0.2781  0.0911
10899W        W26030   0.483   7.997  15.202  0.0330 -0.2154 -0.3254
10900W        W26031   7.965   1.397   4.910  0.2448 -0.0043  0.2858
10901W        W26032   3.779   0.826  13.116  0.3892  0.0919  0.0034
10902W        W26033   2.090  13.773   1.008  0.2679  0.0152 -0.3046
10903W        W26034   4.161   3.555  13.573 -0.1191 -0.0305  0.0121
10904W        W26035  18.072   4.949   1.672  0.1823  0.0492  0.2586
10905W        W26036  14.179   8.382  10.907  0.0878 -0.0365 -0.0389
10906W        W26037   5.645  11.310  15.719 -0.1792  0.0540  0.0782
10907W        W26038   6.656   6.761  14.003  0.0831 -0.1727  0.0858
10908W        W26039  15.859  16.973   0.991 -0.3083  0.2072  0.0470
10909W        W26040  16.064  17.940   2.783 -0.1093  0.3263  0.0154
10910W        W26041   8.267  15.034  13.206 -0.1822  0.2327  0.0787
10911W        W26042   8.157   5.866  14.176  0.1249 -0.1636  0.0664
10912W        W26043  13.822   9.919  12.090 -0.1447  0.1035 -0.0903
10913W        W26044  13.905   4.638   4.062 -0.0021  0.0590  0.0221
10914W        W26045   5.831   3.285   1.798 -0.0641 -0.0153 -0.1448
10915W        W26046   9.431   8.942   5.080  0.2562  0.2957  0.0536
10916W        W26047   6.739   3.044   6.098  0.0156  0.2190  0.1447
10917W        W26048   5.308  13.083  12.776 -0.1833  0.1733  0.0934
10918W        W26049   6.945  14.498   5.050  0.1595 -0.0391 -0.0319
10919W        W26050   3.287   0.989  13.220  0.2916 -0.0502  0.0703
10920W        W26051   8.657   3.632  13.386  0.1713 -0.1225 -0.1174
10921W        W26052  13.255  17.176  10.398 -0.0354 -0.0036 -0.0827
10922W        W26053   5.266  10.220   3.036  0.0990 -0.1006 -0.1278
10923W        W26054  14.746  12.063   3.354  0.0672  0.0191  0.0042
10924W        W26055  11.355   6.287   3.914 -0.0806  0.1257 -0.2140
10925W        W26056   1.723   5.787  13.036 -0.1545  0.0515 -0.0078
10926W        W26057   3.951  16.300  14.688 -0.1183  0.2014  0.3821
10927W        W26058   5.661   2.803   1.171  0.3416 -0.2166 -0.0842
10928W        W26059   8.486   2.379   3.576  0.2078 -0.0552  0.0037
10929W        W26060  13.656   6.739   4.358 -0.1414 -0.2205 -0.1628
10930W        W26061   4.123  14.919   4.536 -0.0765  0.2374  0.1449
10931W        W26062   2.601   8.382  12.386 -0.2027  0.4276 -0.0783
10932W        W26063   9.887  17.071   2.930  0.1702 -0.4267  0.2558
10933W        W26064  15.669   2.686  11.108  0.2272  0.0042 -0.0412
10934W        W26065   3.010  15.019   0.012  0.3722  0.2510 -0.0347
10935W        W26066   1.936  12.428  12.965  0.1348  0.1745 -0.3166
10936W        W26067  16.860   7.403   4.247  0.2394 -0.1279 -0.2006
10937W        W26068   6.495  11.226  12.894  0.2547  0.0367 -0.1948
10938W        W26069   5.295  14.037  10.386  0.0390  0.0569 -0.1184
10939W        W26070   6.371  11.379  11.461  0.0278 -0.1460  0.0864
10940W        W26071   1.194   7.750   2.615 -0.4087 -0.0030 -0.1243
10941W        W26072  14.342  13.251  14.719  0.1025 -0.0193  0.1671
10942W        W26073  11.917  14.873  14.051  0.0085 -0.1229  0.5173
10943W        W26074   1.663  17.853   1.332  0.0334 -0.1308  0.1027
10944W        W26075   6.618   0.171   5.250  0.0348  0.0990  0.0254
10945W        W26076  12.819   8.677   0.917 -0.0305  0.2071 -0.0696
10946W        W26077  15.545  15.732  15.956 -0.1912 -0.1185 -0.1265
10947W        W26078   9.003  17.978  13.498  0.2684 -0.1936 -0.6476
10948W        W26079   2.205  13.572  15.427 -0.1241 -0.1555  0.0716
10949W        W26080  15.389   5.284   3.661  0.3203  0.3111 -0.3641
10950W        W26081   0.529  17.435   2.287  0.0140  0.1881  0.2187
10951W        W26082   4.217  11.143   2.330  0.1335  0.3757  0.2114
10952W        W26083  14.171  12.544  15.972 -0.2440  0.2313 -0.3175
10953W        W26084   7.642  12.144   5.719  0.1489  0.3295 -0.1685
10954W        W26085  14.112   6.196   4.760  0.1539  0.2407 -0.4281
10955W        W26086   1.788  12.831  16.096  0.1144 -0.0088 -0.0032
10956W        W26087   7.792   3.014   3.257 -0.1157  0.0518 -0.4261
10957W        W26088  16.949  10.529  11.097 -0.0265  0.1074  0.0633
10958W        W26089   4.468   9.173  12.793 -0.0944 -0.3159 -0.0729
10959W        W26090   5.042   8.003   2.081 -0.2024  0.0434  0.1643
10960W        W26091   5.986  17.623  11.679 -0.0613  0.1891 -0.1517
10961W        W26092   0.903   9.899   1.255  0.1192 -0.0347 -0.2461
10962W        W26093   3.854   2.234   3.089 -0.0684  0.2435 -0.4135
10963W        W26094   4.698   1.151   0.300 -0.1136 -0.2123 -0.3017
10964W        W26095  10.713  17.985   3.931 -0.1525  0.4235  0.1589
10965W        W26096   7.631   1.020  11.790  0.2807  0.1095  0.0222
10966W        W26097   8.419   4.628   1.458 -0.1775  0.2149  0.0434
10967W        W26098   7.282   0.857  11.290  0.2390 -0.2508  0.0592
10968W        W26099   0.698  15.571  11.822 -0.1816  0.3093 -0.1163
10969W        W26100   6.439   2.691   0.341 -0.1454 -0.1510 -0.0143
10970W        W26101   3.380  16.313   2.480  0.1698 -0.1557  0.0470
10971W        W26102   9.063   7.554   0.274  0.2351 -0.0117  0.2117
10972W        W26103  14.033   4.663  11.192 -0.0766  0.2183  0.1160
10973W        W26104  11.842   9.922   1.605 -0.1082  0.1395 -0.1278
10974W        W26105   2.150   4.735   3.240  0.1022 -0.2004  0.0969
10975W        W26106  16.501   4.177   2.537  0.0581 -0.0560 -0.0611
10976W        W26107  14.261  15.657   3.761  0.0484 -0.1440  0.1344
10977W        W26108  13.173   3.424  15.198 -0.2303 -0.0749  0.0224
10978W        W26109   4.813   3.513   1.777 -0.1014  0.0777 -0.0658
10979W        W26110   6.827  13.531   1.130  0.3214 -0.1012 -0.2981
10980W        W26111  14.883   5.257  12.035  0.0756 -0.1614 -0.0710
10981W        W26112   6.055   6.525   1.781  0.3311  0.0026 -0.3158
10982W        W26113  13.326   1.708   1.282  0.2076 -0.2081 -0.1658
10983W        W26114   2.583  17.795   5.268 -0.1843  0.2808 -0.2133
10984W        W26115  18.255   5.171  14.034 -0.1909 -0.0124  0.2848
10985W        W26116   3.478   7.258  12.364 -0.4165 -0.0372  0.6262
10986W        W26117   7.730  16.349   2.171  0.0229  0.1121 -0.0811
10987W        W26118   0.464  12.263  14.866 -0.1632  0.0413  0.2301
10988W        W26119   4.911  10.390   0.897 -0.4230 -0.1644  0.3432
10989W        W26120  10.727   1.688   0.414  0.2804  0.0959  0.0526
10990W        W26121   9.244   9.552   3.253 -0.0589 -0.1775  0.0256
10991W        W26122   8.874   0.868  10.210 -0.1832  0.1546  0.0471
10992W        W26123  15.966   5.170  11.335 -0.2976  0.3889 -0.1252
10993W        W26124   1.325  11.388   1.618  0.0734 -0.0892 -0.1413
10994W        W26125  15.785   2.116  15.797 -0.0580  0.1313  0.1098
10995W        W26126   6.963   9.919  11.337  0.1390  0.2623 -0.4713
10996W        W26127   7.961   6.538   4.131  0.0194  0.1954 -0.3505
10997W        W26128   0.770   2.399   3.568  0.1615 -0.1789 -0.0582
10998W        W26129   6.480  15.709   5.637 -0.1927 -0.1270  0.1169
10999W        W26130   0.817   7.185  11.806  0.1659 -0.0507 -0.1235
11000W        W26131   9.717  11.591   3.182  0.1029  0.0206  0.3079
11001W        W26132   0.654  14.953   3.404 -0.0024  0.1629 -0.0216
11002W        W26133  11.403   5.469   2.737 -0.0676  0.0260 -0.1163
11003W        W26134  14.852  10.311   0.420  0.0706  0.0743  0.0466
11004W        W26135   1.963   2.245  12.006 -0.1346 -0.0040  0.1585
11005W        W26136  17.366  16.594  10.614  0.2799  0.0810  0.1356
11006W        W26137   4.620  16.019   3.587  0.1401 -0.1385 -0.0053
11007W        W26138   2.419   3.666  11.355  0.2724 -0.2465  0.3385
11008W        W26139   9.718  10.054   5.179  0.1543  0.0371 -0.0793
11009W        W26140   6.285   8.858   3.600  0.1047  0.1710  0.0534
11010W        W26141   5.689   9.012  14.739 -0.2878 -0.1634 -0.1250
11011W        W26142  18.306  17.565  14.153 -0.3166  0.0021 -0.2687
11012W        W26143   8.292  16.718  14.055  0.0861  0.0438 -0.0731
11013W        W26144   8.844  17.457  14.613 -0.3094 -0.2009 -0.3289
11014W        W26145  10.997  15.673   0.846 -0.0621 -0.2240 -0.1811
11015W        W26146   5.732   0.758   0.533 -0.1070 -0.0032 -0.2708
11016W        W26147  16.148  13.053   1.661 -0.2676  0.0374  0.2427
11017W        W26148  10.939   7.266   9.863 -0.0857 -0.1551  0.1958
11018W        W26149  12.781   3.656   4.707  0.0382  0.0084 -0.0667
11019W        W26150   2.880   1.255  12.679 -0.1446 -0.1001 -0.1819
11020W        W26151   6.553   5.457  16.008 -0.1019 -0.1053 -0.0376
11021W        W26152  11.929   5.779  11.783 -0.1439 -0.4123 -0.2127
11022W        W26153  10.332   7.148  12.651  0.1044 -0.1588 -0.1650
11023W        W26154   7.754   4.716  14.500 -0.0283  0.3013 -0.1828
11024W        W26155  13.890  12.930   3.295  0.0125  0.1078  0.1526
11025W        W26156   0.523  11.655   4.206 -0.1498  0.1145 -0.2988
11026W        W26157  12.684   7.511  12.437  0.0917 -0.0429 -0.3092
11027W        W26158   2.068  12.834   4.787 -0.0831 -0.1923  0.0764
11028W        W26159   2.497  10.102  11.153 -0.1040  0.1887 -0.1323
11029W        W26160  13.609  14.492   4.835  0.0216  0.3218 -0.4104
11030W        W26161  14.522   6.714   0.788 -0.0436 -0.0769  0.1368
11031W        W26162  16.736   9.795  14.849  0.1147 -0.3632  0.1185
11032W        W26163   0.924   8.553   4.091  0.0828  0.2903 -0.0150
11033W        W26164  13.659  16.479   1.100 -0.1456 -0.0364  0.1307
11034W        W26165   9.507   3.417  14.708  0.3612  0.1186  0.2050
11035W        W26166   8.758   0.855  12.430 -0.0479  0.1503  0.4006
11036W        W26167  17.516  13.493   3.966 -0.2120 -0.0470 -0.1118
11037W        W26168  10.770  11.362  14.038 -0.0392 -0.1134  0.0942
11038W        W26169  10.244  13.431   1.457  0.0836  0.0399 -0.2293
11039W        W26170   4.108  11.451  14.114  0.1379  0.0274 -0.1131
11040W        W26171   9.064  14.585  15.532  0.1773 -0.0454  0.2386
11041W        W26172   2.079  17.508   5.624 -0.2615 -0.1830 -0.0276
11042W        W26173   7.014  15.278   0.400 -0.0000 -0.3820 -0.1066
11043W        W26174  17.685   4.124  12.376  0.0024  0.0035  0.3109
11044W        W26175  13.484  14.760   4.387 -0.2266 -0.0665 -0.0243
11045W        W26176  15.382  14.121  13.126 -0.1595  0.0336 -0.2354
11046W        W26177   4.027  14.861   1.159  0.2367 -0.2185 -0.3035
11047W        W26178  15.838   9.076  15.708 -0.3625 -0.0603 -0.0214
11048W        W26179   4.451   7.810   2.747 -0.1869 -0.1032  0.1620
11049W        W26180   2.947   8.762  11.645 -0.0825  0.0596 -0.0767
11050W        W26181   5.629  16.787  14.900 -0.2518 -0.3948 -0.1404
11051W        W26182  15.628  10.232   5.827 -0.0549  0.1072 -0.1267
11052W        W26183   5.168   4.144  15.247  0.1006  0.0419  0.0137
11053W        W26184   1.448  15.983  15.559  0.1652  0.1332 -0.1319
11054W        W26185   1.354   4.755  12.910 -0.0236 -0.1371 -0.0180
11055W        W26186  16.249   2.561   1.865 -0.1993 -0.3675 -0.2058
11056W        W26187  16.679   0.153   3.913 -0.4718  0.0056  0.1149
11057W        W26188  11.631   1.668  14.205 -0.0675  0.5670  0.2898
11058W        W26189  18.093  11.012   5.695 -0.2254 -0.0528  0.2701
11059W        W26190  16.861   0.156  15.765  0.0175  0.0333  0.2177
11060W        W26191   3.864  10.688   5.015  0.1724 -0.2222  0.0741
11061W        W26192   5.600   6.772   0.933 -0.0112  0.2027 -0.1876
11062W        W26193  16.049   4.132  12.894 -0.2124  0.3104 -0.4231
11063W        W26194  16.671  12.511  14.860  0.2877  0.1129  0.3199
11064W        W26195  17.344   0.149   0.780 -0.0940 -0.2702  0.3584
11065W        W26196   6.458  12.593   1.491  0.1186 -0.0610 -0.2428
11066W        W26197  10.014  12.576  11.685  0.1151 -0.0884 -0.2323
11067W        W26198  13.063  17.560  12.403 -0.0940 -0.3840 -0.0043
11068W        W26199  12.920   1.014   4.289 -0.0671 -0.2458  0.0957
11069W        W26200  10.660   7.938   3.359 -0.3189 -0.2531 -0.0265
11070W        W26201  12.248   4.047  13.600 -0.1602 -0.0717 -0.0061
11071W        W26202   4.788  15.155  11.002  0.0896  0.1627 -0.0733
11072W        W26203  17.423  15.332   4.030  0.1436  0.0398 -0.2284
11073W        W26204   3.224  17.442  11.916 -0.2127 -0.1393 -0.0652
11074W        W26205   6.101   0.174   3.035  0.0380  0.0495 -0.0728
11075W        W26206   7.262  12.218  12.335 -0.3139 -0.0125 -0.1044
11076W        W26207   5.272   7.723  11.317  0.2643  0.1663  0.2551
11077W        W26208  13.142   8.811  12.017 -0.3110  0.0447 -0.4301
11078W        W26209  13.284   0.129  14.592 -0.0310 -0.0780 -0.2480
11079W        W26210  16.701  17.103  15.166  0.1406  0.0060 -0.0474
11080W        W26211   1.879   3.873   3.119  0.3466  0.1939 -0.0694
11081W        W26212   5.455   5.272  11.740  0.0268 -0.1654  0.0357
11082W        W26213   5.451   9.033   2.295 -0.1178  0.1105  0.1571
11083W        W26214  10.356   5.410   1.306 -0.4101  0.1824  0.0974
11084W        W26215   6.340   0.665  14.588  0.1490 -0.1344  0.0099
11085W        W26216   9.190   8.902  13.838 -0.0184  0.0456 -0.3438
11086W        W26217  13.404   4.063   3.396  0.1030 -0.1856  0.1640
11087W        W26218   0.344  10.617  15.827 -0.1705  0.0985 -0.1374
11088W        W26219  10.515   0.234  15.406  0.1172 -0.3202  0.4412
11089W        W26220  17.440  15.977   1.598 -0.1696 -0.2273  0.2573
11090W        W26221  16.175   2.484   4.014  0.0700 -0.1139  0.0857
11091W        W26222   8.348  16.507   2.704 -0.1312 -0.0298 -0.4278
11092W        W26223  13.611  13.233  15.772  0.2126 -0.3831 -0.1712
11093W        W26224   2.434   9.775   2.080 -0.0591  0.2893 -0.1918
11094W        W26225   3.043   1.432  13.223  0.1021 -0.3926  0.1662
11095W        W26226   7.487  16.632   1.786  0.0915  0.0538  0.1464
11096W        W26227   6.202   6.282   0.080 -0.1406 -0.1659 -0.2088
11097W        W26228   3.570  11.304  15.338 -0.0398 -0.2105  0.2599
11098W        W26229  13.958   8.023  11.252  0.4397 -0.1204 -0.0024
11099W        W26230  10.309   6.757   2.879  0.1143  0.2684 -0.2570
11100W        W26231   5.423   7.558   0.822 -0.0061  0.1440 -0.0850
11101W        W26232   8.486  13.527   5.410  0.0571 -0.1982  0.0142
11102W        W26233  16.641  10.971  10.939  0.1684 -0.3547 -0.2614
11103W        W26234   4.178   6.393  11.578 -0.2721  0.0677  0.1467
11104W        W26235   3.375   6.341   2.613 -0.2717  0.0461  0.2001
11105W        W26236  17.080   8.570  14.406 -0.4125  0.0984  0.1885
11106W        W26237   1.285   8.177  12.443  0.2923 -0.1013  0.0821
11107W        W26238   3.155   2.582  15.317 -0.0377  0.1708  0.2831
11108W        W26239   3.224  15.657  13.178  0.2212  0.2677  0.0824
11109W        W26240   3.845  13.617   4.387 -0.1893  0.1243 -0.1004
11110W        W26241  18.287   9.699  13.307 -0.0904  0.3759  0.0099
11111W        W26242  12.102   8.263   2.384  0.0114  0.1539  0.1797
11112W        W26243   8.764  17.883   5.190 -0.0345  0.2240 -0.2185
11113W        W26244  16.717  10.476  13.458  0.1049  0.1055 -0.0388
11114W        W26245  10.881  14.612   2.088  0.4012 -0.3073  0.0511
11115W        W26246   6.037  14.988   4.943  0.0432 -0.2360  0.0262
11116W        W26247  15.887  13.598   3.708  0.0175 -0.2037 -0.0295
11117W        W26248   2.531  17.209  12.861  0.1017 -0.2982  0.3580
11118W        W26249   7.084   7.648  12.497  0.1203 -0.0591 -0.0708
11119W        W26250   6.080   1.236  13.571 -0.1529  0.1680 -0.1560
11120W        W26251  16.270   5.975   4.249  0.0414  0.0053  0.1833
11121W        W26252   3.796   3.874  12.703  0.1542 -0.1408 -0.0846
11122W        W26253  15.674   1.194   3.114  0.1642 -0.0876  0.0097
11123W        W26254  16.433  16.276   1.907 -0.0161 -0.2737  0.1616
11124W        W26255   5.077   5.315   1.706  0.0909  0.1675 -0.1474
11125W        W26256  12.659  12.377  11.820 -0.2422 -0.1647  0.0082
11126W        W26257  11.293  17.511   2.259 -0.0885 -0.1180 -0.1701
11127W        W26258  14.737   9.219  12.187  0.1653 -0.4148 -0.1506
11128W        W26259  17.313   8.118   1.280  0.1086  0.3179 -0.1353
11129W        W26260   9.904   6.018  12.009  0.3581 -0.0424 -0.2910
11130W        W26261   9.553   3.744  15.571  0.1406  0.1091  0.2576
11131W        W26262   1.014  11.397  12.625  0.2454  0.1681 -0.1240
11132W        W26263  13.671  14.380   1.725 -0.1800  0.0126 -0.0540
11133W        W26264  15.551  15.576  14.933 -0.2645 -0.0908 -0.0549
11134W        W26265  15.722   9.458  12.836 -0.1148  0.0457  0.0863
11135W        W26266  13.884  18.215  13.358  0.0073 -0.0277  0.0975
11136W        W26267  16.854  15.512  15.849  0.1391  0.0975  0.1841
11137W        W26268   4.331   7.898  11.275 -0.1374 -0.1879 -0.0850
11138W        W26269   3.860  11.276   4.343  0.1791  0.2056  0.0378
11139W        W26270  14.751   3.898   5.370 -0.1247  0.3945  0.0676
11140W        W26271  11.872  11.924  15.994  0.0492 -0.0727 -0.2293
11141W        W26272   6.220  16.032  13.278  0.1008 -0.0737  0.2508
11142W        W26273   3.131  10.390  11.228 -0.1772 -0.0700  0.0015
11143W        W26274   7.261   3.390   1.010  0.0714  0.3097  0.0429
11144W        W26275  11.139   5.491  13.896  0.0236  0.1841 -0.0573
11145W        W26276  13.590   0.901   1.680  0.3306 -0.1703  0.1159
11146W        W26277  14.488   9.160  10.112 -0.1642  0.0510  0.3192
11147W        W26278  10.103   8.223   5.137  0.3005 -0.0162 -0.1712
11148W        W26279   0.811   1.138   3.443  0.0142 -0.2144  0.0746
11149W        W26280   7.295  11.311   0.415  0.1635  0.0776 -0.2124
11150W        W26281  12.341  16.601   1.557  0.2687 -0.1072 -0.0621
11151W        W26282   1.719   1.666   1.938  0.0906 -0.0228  0.1811
11152W        W26283   8.466  10.586   3.479  0.1429  0.0896 -0.1333
11153W        W26284   5.059   0.359  14.778  0.0981  0.2410  0.2086
11154W        W26285   8.588   8.487  14.494 -0.1866  0.1645 -0.0154
11155W        W26286  10.590   0.255   4.942  0.0618  0.2287  0.0625
11156W        W26287   0.446  17.733   1.244  0.2876  0.2562  0.0845
11157W        W26288   1.764  14.364  15.377  0.0170  0.1269 -0.0189
11158W        W26289  13.536  13.792  13.266 -0.2500 -0.1470  0.1738
11159W        W26290   7.434   1.170   4.149  0.4666 -0.2612 -0.0329
11160W        W26291   7.531   5.384   0.692  0.1495 -0.1771  0.0563
11161W        W26292   9.964   0.752  14.931  0.0200 -0.1276 -0.0394
11162W        W26293  18.140  16.791  11.467  0.0383  0.0597 -0.0336
11163W        W26294   6.357   0.340  14.185  0.0337 -0.1342  0.0791
11164W        W26295  17.906   0.001  11.991  0.1279  0.1236  0.3260
11165W        W26296   3.065  14.266   0.338  0.3655 -0.2018 -0.2301
11166W        W26297  12.137  11.745  11.034  0.0314 -0.0864  0.1669
11167W        W26298  12.812   7.383   1.850 -0.0347  0.1902 -0.1272
11168W        W26299  12.587  13.854  13.264  0.0496 -0.3611 -0.0109
11169W        W26300  14.809  16.677   1.727  0.4603  0.0100 -0.1485
11170W        W26301   5.796   8.181   3.944  0.4145 -0.2990  0.0714
11171W        W26302  14.251   9.452   4.674  0.1814 -0.2924  0.2169
11172W        W26303   2.294  12.147   4.534 -0.1402 -0.2249  0.2563
11173W        W26304  14.075  14.244   2.471  0.0963 -0.0192  0.3072
11174W        W26305  11.851   6.143  10.834 -0.1419 -0.0428  0.0196
11175W        W26306   9.361  16.475   1.012 -0.2505 -0.1185  0.1568
11176W        W26307   0.987  10.531  13.684 -0.1343 -0.1174  0.1470
11177W        W26308  10.459  13.104  12.335  0.2277 -0.3078 -0.0741
11178W        W26309  16.062  12.940  14.274  0.0410  0.0671  0.2609
11179W        W26310   3.744  13.292  13.318  0.0555  0.2414 -0.2131
11180W        W26311  10.908   3.659   3.158 -0.2332 -0.0196  0.0479
11181W        W26312   2.690   5.909   2.015 -0.1311 -0.2197 -0.1840
11182W        W26313   0.909  14.895  14.695  0.2440  0.1175 -0.0954
11183W        W26314   8.514  10.858   1.006 -0.2155  0.2432 -0.0112
11184W        W26315   4.861   6.385  14.237 -0.1775  0.3248  0.4415
11185W        W26316  17.061   9.998   2.522  0.0399 -0.3369  0.2564
11186W        W26317   1.745   2.377  12.839  0.1032  0.3929  0.0524
11187W        W26318   1.479   7.419  10.811 -0.3630  0.0167  0.0450
11188W        W26319  15.755  17.996  13.498  0.0308 -0.0255 -0.0440
11189W        W26320   8.559  16.299  11.245  0.2258  0.5842 -0.0401
11190W        W26321   0.493   8.321   0.571 -0.0347 -0.0542 -0.2338
11191W        W26322   3.015   0.027   5.311  0.0688 -0.2706  0.0738
11192W        W26323   8.856   5.321   3.926  0.0204 -0.2239 -0.1782
11193W        W26324   3.280  17.567   5.429  0.0358  0.0965 -0.3129
11194W        W26325   4.043   0.582   5.520 -0.1622 -0.0645  0.0606
11195W        W26326  13.891  16.998  13.877 -0.3096 -0.2925 -0.1538
11196W        W26327   4.723  16.195   3.074 -0.0279  0.2370 -0.0466
11197W        W26328   8.808   4.195  10.778 -0.2407  0.1706 -0.3631
11198W        W26329  17.023  10.721   4.104  0.0310  0.2002 -0.0731
11199W        W26330  13.276   6.822   9.995  0.3756  0.0009 -0.0238
11200W        W26331  18.087  11.612   0.513  0.1659  0.2248 -0.3997
11201W        W26332   3.752  14.920  14.965  0.0677  0.3457  0.0945
11202W        W26333   2.083  11.676   0.744 -0.3436  0.0189 -0.3442
11203W        W26334   4.690   1.918   3.807  0.0953 -0.0521  0.1090
11204W        W26335  12.749   6.455   1.571 -0.0001 -0.1932  0.0432
11205W        W26336   6.224  10.950   1.850 -0.1109  0.0916  0.0140
11206W        W26337   2.210  13.149   0.174  0.2423 -0.1043  0.1994
11207W        W26338   5.237   7.124  12.615 -0.0311 -0.1740 -0.1627
11208W        W26339  11.319   1.648  10.639 -0.2265 -0.1560 -0.0656
11209W        W26340   8.150  10.670   4.417  0.0204 -0.1489 -0.2028
11210W        W26341  16.127   2.979   2.071  0.3032  0.1612 -0.3167
11211W        W26342  17.086   9.505   2.351 -0.2387 -0.0407 -0.1595
11212W        W26343   7.571   1.881  12.629  0.0916 -0.5039  0.0972
11213W        W26344  14.997  15.398   0.583  0.1415 -0.0953 -0.3831
11214W        W26345  12.877   5.502  15.127 -0.1104  0.0108 -0.0430
11215W        W26346   0.354   1.724  14.610  0.2191  0.3381 -0.4122
11216W        W26347  11.851  15.175   0.741  0.0173  0.0399  0.1304
11217W        W26348   1.835   6.605  11.030  0.1738 -0.0508  0.0392
11218W        W26349   3.482  16.267   5.757 -0.2829 -0.0610 -0.2905
11219W        W26350   3.703  15.795   1.194 -0.0532  0.0811  0.1149
11220W        W26351  16.446   3.245  11.828 -0.0464 -0.1382 -0.1118
11221W        W26352   3.914   0.571   0.096 -0.2397 -0.1645  0.0993
11222W        W26353   6.519   1.041  10.319 -0.0899 -0.1042  0.1908
11223W        W26354   7.664   5.841   0.494  0.0071 -0.0779 -0.2467
11224W        W26355  11.588  13.045   3.245 -0.1832  0.1879  0.1266
11225W        W26356   4.559  10.077  15.748 -0.3289  0.1181 -0.3422
11226W        W26357  11.184   6.193   5.110  0.0449  0.0310  0.0604
11227W        W26358   8.223  11.227  12.691 -0.0873  0.1918 -0.1015
11228W        W26359  13.949  16.623   5.550  0.1296  0.0882  0.0651
11229W        W26360   3.994  13.075   3.225  0.0902  0.1339  0.0250
11230W        W26361   9.014  10.154   4.697 -0.1752 -0.2428 -0.0243
11231W        W26362  14.780  10.653  11.710 -0.0821  0.1239 -0.2591
11232W        W26363   7.706  11.581   2.734  0.1423 -0.0539 -0.2927
11233W        W26364  17.617   9.193  12.067  0.0505  0.2501  0.2404
11234W        W26365  10.965   5.094   0.722  0.0253 -0.0274 -0.0708
11235W        W26366   2.093  15.143   2.564 -0.1663  0.0868 -0.2900
11236W        W26367   5.903   5.582  14.651 -0.0140  0.0814 -0.0903
11237W        W26368   5.760   3.200   0.849 -0.1760 -0.0295 -0.0457
11238W        W26369   8.553  11.785   4.977 -0.1948 -0.0021  0.4451
11239W        W26370   1.387  15.054  13.926 -0.0075 -0.1123 -0.1459
11240W        W26371   3.464  13.722   2.196  0.2265  0.1645  0.0901
11241W        W26372  14.728  16.564  11.739 -0.0898 -0.1667 -0.1090
11242W        W26373  14.016   1.069   0.267  0.1686 -0.3252  0.0524
11243W        W26374   7.845  15.919  10.909  0.3318 -0.1161 -0.0808
11244W        W26375   0.046   1.242   4.715  0.0075  0.0540 -0.2497
11245W        W26376   1.021  14.413  15.741  0.0856 -0.0113 -0.1138
11246W        W26377  17.284   4.484   1.616  0.0136 -0.2479 -0.0751
11247W        W26378   0.383   1.950  15.085  0.0822  0.2868 -0.4859
11248W        W26379  12.299  10.553   3.554 -0.1217 -0.0644 -0.0921
11249W        W26380   3.853   0.921   4.378 -0.2047  0.2315 -0.2671
11250W        W26381   4.035   4.317  12.428 -0.0345  0.2090 -0.0983
11251W        W26382   7.067   9.569  13.412 -0.0620 -0.1665  0.0082
11252W        W26383   3.104   7.661  14.364  0.0843 -0.0090  0.0982
11253W        W26384  15.256   6.579   1.340  0.0109 -0.2363  0.0476
11254W        W26385   5.035   9.267  12.062  0.0578  0.1636 -0.0344
11255W        W26386   0.791  16.862   4.889 -0.0699  0.0315 -0.3560
11256W        W26387   2.566  15.511   4.157  0.1086  0.0678 -0.0299
11257W        W26388  17.291   7.639  14.793  0.0467  0.1541 -0.0323
11258W        W26389   9.756  16.598  14.974  0.3033  0.2503 -0.1392
11259W        W26390   3.473  17.082  13.187 -0.1005 -0.0781  0.3205
11260W        W26391   2.656   7.688   1.345  0.0903  0.2566 -0.0682
11261W        W26392  17.801   9.062   1.177 -0.1489 -0.0891 -0.1197
11262W        W26393   4.173  10.512  13.910 -0.0900  0.2911  0.2062
11263W        W26394  17.598  17.851  12.107 -0.0447 -0.1639 -0.1712
11264W        W26395  15.814   2.604   2.481  0.2064  0.1378 -0.2654
11265W        W26396  12.051   1.137  12.731  0.0548 -0.1362  0.2293
11266W        W26397  16.334   6.808  13.139 -0.2240 -0.1647  0.1049
11267W        W26398  13.356  11.677   0.621  0.0927  0.0359  0.0358
11268W        W26399  15.614  10.549   1.119 -0.1104 -0.1876  0.3008
11269W        W26400   3.881  12.231  15.319  0.1718  0.1096 -0.2621
11270W        W26401   9.466  13.342  12.028  0.0485 -0.0537  0.1252
11271W        W26402  17.567   7.803  15.930  0.1119  0.1823 -0.1843
11272W        W26403  17.804   2.646  15.920 -0.2678  0.0469  0.2400
11273W        W26404  16.811  10.315   0.426  0.2256  0.0816 -0.1018
11274W        W26405   3.123   3.784  15.798  0.0012  0.0889  0.2823
11275W        W26406   3.285   7.885   3.082 -0.1389 -0.2530 -0.0573
11276W        W26407   9.566  13.428  12.514 -0.1382  0.0436 -0.0662
11277W        W26408  17.791   0.647  14.303  0.0195 -0.2447  0.0803
11278W        W26409  11.874  11.128   1.492 -0.1468 -0.1058  0.0222
11279W        W26410   9.525  12.050   2.477  0.1519  0.0837 -0.2763
11280W        W26411  13.085   1.808   5.965 -0.1484 -0.1795  0.2145
11281W        W26412  12.628   2.245  15.962 -0.0609 -0.0345 -0.2091
11282W        W26413   4.399  12.763   1.642 -0.3693 -0.0109 -0.1142
11283W        W26414  10.737   8.052  14.550 -0.1444 -0.0195 -0.0026
11284W        W26415   9.077   7.065   3.819 -0.0371  0.0616  0.2739
11285W        W26416   7.424   0.583   5.507  0.0675 -0.0437 -0.2855
11286W        W26417  12.055  15.840  14.421 -0.1345  0.0534 -0.0293
11287W        W26418  10.440  12.326  12.525 -0.0128 -0.2560  0.1471
11288W        W26419   3.974   1.559   3.176  0.0483 -0.0906  0.0217
11289W        W26420   8.619   9.793  13.881  0.1350 -0.2499 -0.1038
11290W        W26421  11.372  11.252   5.114  0.3506 -0.2486  0.0443
11291W        W26422   2.666   5.021   5.728  0.4143 -0.1191  0.1898
11292W        W26423  18.158   0.362   1.477 -0.0317  0.1250  0.0058
11293W        W26424  18.153   2.332   4.598 -0.1055 -0.0752  0.0454
11294W        W26425   4.479   6.865   3.756  0.0226 -0.1355  0.0971
11295W        W26426  17.988  10.107   4.080 -0.0463  0.2070 -0.0055
11296W        W26427  14.811   0.580   3.841  0.1511 -0.0791  0.3331
11297W        W26428  13.234   8.995  12.524 -0.1785 -0.0841  0.1692
11298W        W26429  10.079  16.831  13.988  0.0918  0.0209 -0.0502
11299W        W26430   0.529   3.653   3.917  0.1189  0.4005  0.1038
11300W        W26431  13.206   2.570  12.123 -0.1767  0.1988 -0.2995
11301W        W26432   0.526   0.364  12.260  0.0414 -0.1956 -0.2714
11302W        W26433  11.326   0.715   5.035  0.0732 -0.2035 -0.0605
11303W        W26434   7.053   9.849  12.462 -0.5381  0.1874  0.0219
11304W        W26435  10.019   0.261   1.378 -0.0947 -0.1524 -0.0238
11305W        W26436   8.483   6.653  11.730  0.1166  0.0800  0.0008
11306W        W26437  15.083  16.355   5.395 -0.1204 -0.0224  0.0284
11307W        W26438  13.419   0.836   3.011 -0.0636 -0.0722  0.3011
11308W        W26439  12.038   0.083   1.194 -0.0057  0.0982  0.0528
11309W        W26440  17.073   1.402  12.474 -0.1258 -0.1180  0.0939
11310W        W26441   9.855   7.478   3.183 -0.0155 -0.0103 -0.0583
11311W        W26442   7.441  16.370  15.908 -0.0026  0.0697 -0.0057
11312W        W26443  17.671  15.960   2.979  0.1445 -0.0977  0.1887
11313W        W26444  10.705   0.685   1.842  0.2529  0.0245 -0.1444
11314W        W26445  18.121  16.370   5.656  0.0385  0.4015  0.0556
11315W        W26446  14.854   7.216   2.903 -0.0369 -0.2332  0.2683
11316W        W26447  17.729   7.455   4.032  0.2776 -0.2537 -0.1019
11317W        W26448   7.509  17.039   1.372 -0.1995  0.0181  0.2150
11318W        W26449  17.602  11.423   0.188  0.2019  0.1313 -0.0285
11319W        W26450  10.301   1.794   4.687 -0.1417 -0.2504 -0.1748
11320W        W26451  17.381  12.521   5.178  0.0458 -0.2625  0.2922
11321W        W26452   6.973   6.690   3.090  0.2584  0.0482 -0.1714
11322W        W26453   1.785   8.919   3.478  0.1768  0.1435  0.0061
11323W        W26454   0.707  11.338   3.433 -0.2468 -0.1913 -0.2881
11324W        W26455  17.551   7.930  13.384  0.0052  0.3994 -0.0927
11325W        W26456   7.246   2.406   2.667 -0.2249  0.3272  0.0980
11326W        W26457  13.827  13.846   2.830  0.1318  0.0305 -0.0171
11327W        W26458  13.376   5.892   4.263  0.1927  0.0529  0.0649
11328W        W26459  15.049  12.955  13.640 -0.1024  0.0291 -0.2112
11329W        W26460   0.559  14.299   4.339  0.1066 -0.0453 -0.0102
11330W        W26461   1.340   1.678  14.771  0.3112  0.1078 -0.0065
11331W        W26462   5.174  12.064  16.062  0.1815 -0.1079 -0.0152
11332W        W26463  10.409  11.983   0.693 -0.1294  0.2082 -0.1642
11333W        W26464   7.989  18.175  12.036 -0.5087 -0.4098 -0.1151
11334W        W26465   8.631   0.295   4.035  0.1149  0.1124  0.1907
11335W        W26466   3.129  17.640  14.015  0.1148 -0.0443 -0.0328
11336W        W26467   3.617  12.707   3.228  0.2912 -0.0309  0.0197
11337W        W26468   6.031  10.974   4.510  0.0180 -0.3648 -0.1075
11338W        W26469   0.148   0.949   0.218 -0.1699 -0.3853 -0.0273
11339W        W26470  13.662  15.198  12.915  0.1036  0.3325 -0.1187
11340W        W26471  11.856  12.090   0.383  0.1176  0.0833  0.1500
11341W        W26472  11.982   8.433  14.442  0.0265  0.0351 -0.0032
11342W        W26473   7.312  11.163  12.505  0.1147  0.2063 -0.3313
11343W        W26474  16.044   4.792   1.124 -0.1576  0.2367  0.0091
11344W        W26475   4.115  15.167   3.117 -0.2436 -0.2234  0.2184
11345W        W26476   4.191   5.263   5.251  0.0851 -0.1104 -0.3016
11346W        W26477   4.508  10.956  15.706 -0.2207 -0.4046 -0.0179
11347W        W26478   0.256  11.317   3.167 -0.1125 -0.1052  0.0056
11348W        W26479   6.013   3.387   3.162  0.1858 -0.0753  0.2197
11349W        W26480   7.870   4.993   2.594  0.1802  0.1400 -0.0537
11350W        W26481  15.856   6.888   4.719 -0.1436  0.3235  0.0351
11351W        W26482  13.275  16.345   1.951 -0.0058 -0.1522  0.1185
11352W        W26483   8.771   6.400  15.862 -0.2019 -0.0121  0.4097
11353W        W26484   7.206  15.769   2.375 -0.0794 -0.0979  0.0168
11354W        W26485  17.400  13.017   2.015 -0.0624  0.1538 -0.1443
11355W        W26486   5.257   5.478   1.229  0.2191 -0.0968 -0.2878
11356W        W26487  17.447   7.277  10.863  0.0751 -0.0369 -0.4127
11357W        W26488   6.523  16.191  11.336 -0.0555 -0.0090  0.1809
11358W        W26489   9.588  10.784   0.215  0.1708 -0.1255 -0.0059
11359W        W26490   6.507   0.331  11.571 -0.0888  0.1855 -0.2035
11360W        W26491  13.920   6.411   2.402 -0.0088 -0.2408 -0.0726
11361W        W26492   7.305   8.056  14.901  0.1308 -0.2029  0.2229
11362W        W26493  15.763   0.567   2.687  0.2648  0.2206  0.0735
11363W        W26494  14.230  13.486  11.327  0.2301 -0.2620 -0.1924
11364W        W26495  14.008   3.560  15.915  0.0923  0.0539  0.0635
11365W        W26496   4.912   0.376   3.667 -0.0920 -0.0682  0.0005
11366W        W26497   1.790  17.574  14.073 -0.0245  0.2320 -0.0495
11367W        W26498   4.923   4.749   5.584 -0.3885 -0.1648 -0.0728
11368W        W26499  11.123  10.119  11.542  0.1331 -0.0208 -0.2077
11369W        W26500  12.771  11.800   0.773 -0.0927 -0.1851 -0.5120
11370W        W26501  16.462   2.145  15.696  0.0406  0.3691  0.2013
11371W        W26502  13.365   6.455  14.307  0.0036  0.1761 -0.1193
11372W        W26503  16.387   7.009  12.259 -0.1104  0.1158 -0.2339
11373W        W26504   0.128   4.599  12.161  0.1634  0.2344 -0.0321
11374W        W26505   5.282  18.161   0.261 -0.0157 -0.1729 -0.0523
11375W        W26506   3.057  15.836  10.593  0.2015  0.1675  0.0843
11376W        W26507  15.042  10.433  12.808 -0.0934 -0.0928  0.1041
11377W        W26508   3.404   4.681   4.551 -0.2573  0.0329  0.0829
11378W        W26509   9.249  12.519   3.774  0.2505 -0.0656 -0.2365
11379W        W26510  11.153   1.503  11.838 -0.3835 -0.2753 -0.1910
11380W        W26511   5.406   1.184  15.327 -0.1324 -0.0581  0.2422
11381W        W26512   4.408   7.689  14.215 -0.1703  0.2228 -0.2103
11382W        W26513   2.201  13.935  11.796 -0.2756 -0.1689  0.0819
11383W        W26514   9.410  12.847   4.140 -0.2846 -0.0422 -0.1351
11384W        W26515   9.759   4.381  13.267  0.0412 -0.1999 -0.1185
11385W        W26516  15.097  12.464   0.011  0.2537 -0.3940  0.1447
11386W        W26517   3.701  14.258  12.188  0.0619 -0.1768  0.0512
11387W        W26518  10.143  14.498   2.055  0.2825  0.0195  0.0700
11388W        W26519  11.245  14.299   3.186  0.0801 -0.3081  0.0339
11389W        W26520  15.469   1.824  13.151 -0.1414 -0.0917 -0.0966
11390W        W26521   2.114  14.069  15.227 -0.2070  0.0180  0.3720
11391W        W26522   5.648   6.670   4.347  0.2746  0.1550  0.1830
11392W        W26523   9.061   6.456   1.461  0.3573 -0.0533 -0.5517
11393W        W26524  13.187   5.073   2.264  0.0400  0.0148 -0.2562
11394W        W26525  12.984  12.370  11.260 -0.0894 -0.0595  0.1411
11395W        W26526   8.336  15.231   2.816  0.0932 -0.0358  0.0144
11396W        W26527  14.970  11.967  14.565 -0.1239 -0.0089  0.0971
11397W        W26528  14.332   2.191  11.035 -0.2586 -0.0534  0.1644
11398W        W26529   0.956   5.063  14.802 -0.2517 -0.0276 -0.2585
11399W        W26530  15.175   1.182   0.952  0.1783 -0.0027  0.2420
11400W        W26531   1.789  14.870   0.118 -0.4681 -0.2430  0.1774
11401W        W26532  13.400  15.666  14.977  0.1661  0.2425 -0.0238
11402W        W26533   0.314  11.639  13.194  0.3569  0.2664  0.1365
11403W        W26534  13.398   1.112  14.803  0.1105  0.0903 -0.3554
11404W        W26535  16.480   5.549  10.666  0.3031  0.0421 -0.1914
11405W        W26536  13.454  10.494  12.843 -0.0125 -0.0577  0.1189
11406W        W26537  16.507   8.874  15.156  0.1135 -0.0263 -0.1273
11407W        W26538   0.959  13.496  14.206 -0.0478  0.0065 -0.0492
11408W        W26539  13.497  13.539   0.537  0.2400  0.0075 -0.1394
11409W        W26540   0.066   4.266  11.716 -0.2827  0.6234  0.4290
11410W        W26541  15.705   1.652   1.095 -0.0876 -0.2423  0.0007
11411W        W26542  13.185  16.722   2.876  0.0438 -0.0186  0.0154
11412W        W26543  11.895   6.530  13.102 -0.2281  0.1290  0.3778
11413W        W26544   4.438  14.177  14.331 -0.2273 -0.3861 -0.1732
11414W        W26545  17.574  12.206   4.067  0.1891 -0.0298 -0.2096
11415W        W26546  11.784  17.166  12.929 -0.1198 -0.0961  0.2863
11416W        W26547  16.404   7.204   0.739  0.1749 -0.4039  0.2173
11417W        W26548  10.486   2.353   2.643  0.1798 -0.2668 -0.0605
11418W        W26549  16.008   5.735   5.497 -0.0056 -0.1780 -0.0356
11419W        W26550  16.821   8.370  13.125  0.1618 -0.0534  0.2954
11420W        W26551   2.244   1.880   0.481 -0.0676  0.0306 -0.0458
11421W        W26552  17.738  11.880   4.404 -0.2545 -0.0789  0.4052
11422W        W26553   0.047   5.432  12.622  0.1116  0.0800  0.0368
11423W        W26554  16.602   3.814   3.665 -0.3213 -0.0917 -0.2095
11424W        W26555   5.124  11.007   2.441 -0.0730 -0.1697 -0.1304
11425W        W26556   9.515  13.961  14.402  0.0252  0.2783  0.0505
11426W        W26557   8.945   8.763  11.539  0.3416  0.0164 -0.2589
11427W        W26558  16.705  15.328   2.824 -0.2720  0.1790 -0.0978
11428W        W26559  15.082  10.411  13.824 -0.3496  0.5397  0.2220
11429W        W26560   1.540   2.461  15.222 -0.1620 -0.3513  0.0424
11430W        W26561  13.543  12.533   9.972  0.1021  0.0150 -0.2490
11431W        W26562  11.663  12.008  12.377 -0.0732 -0.0037  0.1564
11432W        W26563  11.080  16.254   0.302 -0.0117  0.0427  0.2163
11433W        W26564   0.435   0.225   4.515 -0.1702  0.2421  0.0882
11434W        W26565  10.660  14.759  10.610  0.1041  0.2649 -0.1549
11435W        W26566   4.549   6.028   0.554 -0.0969  0.2771  0.4426
11436W        W26567  12.027   5.882  13.182  0.0856  0.1185 -0.1764
11437W        W26568   8.629  14.794  14.112 -0.0233  0.0735 -0.0009
11438W        W26569   8.812   2.060   2.159 -0.0459  0.2132 -0.0313
11439W        W26570   3.448   9.103  13.840  0.0777 -0.4625  0.2167
11440W        W26571   0.287   1.313   2.264 -0.2212  0.1268 -0.3260
11441W        W26572   6.657   9.835  12.764 -0.0264  0.0564  0.1311
11442W        W26573   1.551  16.517   5.089  0.2412 -0.0111 -0.1513
11443W        W26574  11.869   9.589  13.527  0.1399 -0.1443 -0.0722
11444W        W26575   1.835  10.076   2.919  0.1573  0.2037  0.1738
11445W        W26576  12.388  12.502   3.069 -0.2098 -0.2459 -0.3250
11446W        W26577   7.745  12.141   3.254 -0.4966  0.1544 -0.1699
11447W        W26578   0.111  13.530   5.372  0.1427  0.0269 -0.0482
11448W        W26579   3.628  12.490   0.350 -0.2990 -0.0056 -0.1231
11449W        W26580  10.983   2.144   5.395  0.2486 -0.0373 -0.1659
11450W        W26581   6.612   2.500  11.621  0.0134  0.0822  0.1394
11451W        W26582   0.835  13.499   1.394  0.1966 -0.2924  0.1701
11452W        W26583   5.272  14.590   0.696 -0.0545 -0.1063 -0.0070
11453W        W26584  17.062  14.623   4.695  0.0479 -0.1891 -0.3960
11454W        W26585  13.513   8.614   1.663  0.2102 -0.0163 -0.0168
11455W        W26586   4.205  14.124  12.277  0.3038 -0.1250 -0.1990
11456W        W26587  16.053   9.442  10.764 -0.0493  0.2718  0.0116
11457W        W26588   7.536  13.361   3.378  0.1416 -0.0575 -0.0567
11458W        W26589  16.141   7.988  13.950 -0.0680  0.0059 -0.0273
11459W        W26590   0.215   6.061  11.848 -0.4605  0.2450  0.1253
11460W        W26591   4.983  11.299   4.435 -0.4325  0.1249 -0.1498
11461W        W26592  12.149   6.727  11.429  0.0810  0.2974 -0.2730
11462W        W26593  15.876  13.574   4.426  0.1838 -0.2113  0.1256
11463W        W26594  15.970  15.835  12.991 -0.0217 -0.0596  0.4178
11464W        W26595   3.236   2.533   1.175 -0.0024 -0.0613 -0.0537
11465W        W26596   5.918  13.738  14.500 -0.0281 -0.0711  0.0905
11466W        W26597  17.935  15.158   5.079 -0.3687 -0.0860  0.0802
11467W        W26598  13.358   0.803   1.203 -0.0995 -0.0873  0.0289
11468W        W26599  12.359  11.735  13.390 -0.2129 -0.1118  0.2707
11469W        W26600   2.983  12.617   2.174  0.0997 -0.2614  0.0402
11470W        W26601  17.172  17.902  13.048  0.1917 -0.2041 -0.1550
11471W        W26602   5.161  14.906  11.826 -0.0390  0.1601  0.2473
11472W        W26603   5.751   2.811   1.658  0.0111 -0.3483  0.0045
11473W        W26604   3.088   4.457   3.046  0.0237  0.0374 -0.5644
11474W        W26605  14.827   8.234   5.092  0.0675  0.2313  0.1668
11475W        W26606   8.378   7.262  14.644  0.3090 -0.0922 -0.0487
11476W        W26607   4.935   3.993  13.437  0.0082  0.0951  0.0684
11477W        W26608   9.357  11.489  12.951 -0.0455  0.1417 -0.0107
11478W        W26609  15.248   8.136   3.686 -0.3576 -0.3186  0.1913
11479W        W26610   8.844   5.163  12.229  0.3122  0.1462  0.0351
11480W        W26611  12.566   5.353   3.234  0.3602  0.0376 -0.2851
11481W        W26612  14.046   1.036   1.916 -0.1228 -0.0729  0.2066
11482W        W26613  10.943  12.481   2.345  0.1580  0.0543 -0.1609
11483W        W26614   3.884  11.969   1.601  0.0322 -0.2828  0.0512
11484W        W26615   3.233  14.255  13.007 -0.4031 -0.2605 -0.1023
11485W        W26616   8.032  18.056  11.154 -0.1740  0.1560  0.0693
11486W        W26617   8.809   3.153   0.958  0.0966 -0.0278 -0.1911
11487W        W26618   3.387   9.616   2.556  0.0013  0.4656  0.0773
11488W        W26619  16.995  13.790   4.083  0.3362  0.2002  0.0957
11489W        W26620   4.332  14.942  11.193  0.0427 -0.0413 -0.0021
11490W        W26621   8.357  11.078   3.742 -0.1267  0.3284 -0.0414
11491W        W26622  12.005  14.262   1.409 -0.0416 -0.1873 -0.1368
11492W        W26623   3.984  11.387   2.752 -0.0740  0.1214  0.2612
11493W        W26624  14.386   4.900  13.095  0.0054 -0.2422  0.0978
11494W        W26625  17.986   6.262  11.690  0.0833  0.1012 -0.1515
11495W        W26626   7.789  15.952  13.109 -0.1071 -0.1463 -0.2092
11496W        W26627  12.822   7.938   2.583  0.1113  0.4535  0.0474
11497W        W26628   8.191   2.613   0.993  0.2351  0.4647 -0.5903
11498W        W26629   2.568  15.721  10.579 -0.4451 -0.1127  0.0474
11499W        W26630   1.568   7.429  15.652 -0.0840  0.2609 -0.0788
11500W        W26631  14.030  10.402   0.025 -0.2496 -0.0969 -0.1187
11501W        W26632  16.725   3.011   4.241 -0.2432 -0.1671 -0.1302
11502W        W26633   7.717   6.671   1.459 -0.3363 -0.3639 -0.0105
11503W        W26634  12.481   1.219  15.168  0.1195  0.0386  0.1979
11504W        W26635  10.781   2.438   5.025 -0.2188 -0.0820 -0.1359
11505W        W26636   8.830  15.062  11.613 -0.2090  0.1418 -0.1691
11506W        W26637   7.758  14.812  15.864  0.2128  0.0588 -0.3213
11507W        W26638  15.502  18.227  13.042 -0.2291 -0.0423 -0.2345
11508W        W26639   9.692  12.046   3.000  0.2325 -0.2821  0.0986
11509W        W26640  11.455   3.836   3.043  0.2437 -0.0483  0.0624
11510W        W26641   8.675   4.052  14.410 -0.3556 -0.0359  0.2008
11511W        W26642   0.296  13.495   4.587  0.2311  0.0552  0.2922
11512W        W26643  11.381   8.766  12.062  0.0152 -0.0287  0.1985
11513W        W26644   5.808   9.513  13.597 -0.0282  0.3686 -0.1838
11514W        W26645   2.933   1.265   4.541 -0.0697 -0.1013 -0.1040
11515W        W26646  13.556  12.948   2.336  0.1848  0.1603  0.0974
11516W        W26647   1.052   7.808   3.760  0.1626 -0.4261 -0.2470
11517W        W26648   8.679   3.299   3.517 -0.1451 -0.4067 -0.5078
11518W        W26649   7.217  14.263   0.437  0.1420  0.1183  0.0864
11519W        W26650   1.646  11.970   4.938  0.1601 -0.3190  0.2946
11520W        W26651   5.439  14.359   1.925  0.0066  0.1775 -0.0893
11521W        W26652   5.377   3.458  11.887 -0.0201  0.0730 -0.1332
11522W        W26653   3.117   1.832  14.291 -0.2763  0.3057  0.2181
11523W        W26654  15.259   9.830  11.830  0.1395 -0.0642  0.4522
11524W        W26655   4.378   8.230  14.424  0.0328  0.2857 -0.0285
11525W        W26656  15.617  16.402  14.254 -0.0818 -0.4151 -0.2103
11526W        W26657   5.724   7.773   0.516  0.1751 -0.1704  0.1329
11527W        W26658  10.913   3.191  14.067  0.0894 -0.0709 -0.0973
11528W        W26659  10.514   0.311  12.355  0.0268  0.0650  0.1896
11529W        W26660  16.014  12.768  15.733  0.0844  0.0941  0.0570
11530W        W26661   4.228   1.928   5.715 -0.0616 -0.0348 -0.3513
11531W        W26662   3.493   8.440  14.702  0.0706 -0.2086 -0.0543
11532W        W26663  11.063  10.817  13.752 -0.1127 -0.1347  0.0856
11533W        W26664   0.101  11.737   3.974  0.4001 -0.1714  0.0452
11534W        W26665  16.075   3.537   3.017 -0.0756  0.0337 -0.1383
11535W        W26666  17.646  10.787   3.469 -0.1222  0.1075 -0.3001
11536W        W26667   8.045  15.199   2.367 -0.1523 -0.3415  0.1835
11537W        W26668  16.874  15.889  12.755  0.1464 -0.0956 -0.0019
11538W        W26669   9.134   8.228   5.582 -0.1587  0.0626 -0.0223
11539W        W26670   0.999  11.045  11.606 -0.1282 -0.1637  0.1879
11540W        W26671   4.008   8.661  14.532  0.2799 -0.1796  0.2061
11541W        W26672  17.959  14.439   5.731  0.0497  0.2243 -0.2010
11542W        W26673   8.419   2.614  15.470 -0.0044 -0.2622 -0.3232
11543W        W26674   8.785   3.918   3.776  0.0607 -0.0839  0.1045
11544W        W26675  14.991   4.146   2.601 -0.0592 -0.2189 -0.1540
11545W        W26676  10.078  11.678   2.292 -0.3352  0.4304  0.1762
11546W        W26677   9.180  11.508  13.538  0.1450  0.1556  0.3358
11547W        W26678   6.558  10.913   4.749  0.4356 -0.0961  0.1208
11548W        W26679  11.381  10.665  15.254  0.0405 -0.2026 -0.1021
11549W        W26680  17.744  12.294  13.122 -0.1124 -0.1497 -0.0074
11550W        W26681   6.282   3.116  13.700  0.0183 -0.0643  0.0643
11551W        W26682  17.668   0.771  12.816  0.0089 -0.1801 -0.3464
11552W        W26683   6.010  12.905  10.790  0.2342  0.1820  0.0218
11553W        W26684   7.064   8.179   3.366  0.0093  0.1852  0.0883
11554W        W26685   7.369   8.921   5.201 -0.3541  0.3400  0.0592
11555W        W26686   3.328  14.445   4.896  0.2196  0.0640  0.2215
11556W        W26687  16.304   4.160   1.724 -0.2835  0.0214 -0.0078
11557W        W26688   9.885   9.713   2.108 -0.0612 -0.2174 -0.0861
11558W        W26689   6.333  11.462   1.498  0.2909  0.5175 -0.1841
11559W        W26690   3.393   5.425   2.537 -0.0515 -0.2601 -0.3692
11560W        W26691  18.134   1.234   5.665 -0.2047  0.0557 -0.0950
11561W        W26692   8.681  11.581   2.445 -0.1075  0.0314  0.1536
11562W        W26693   0.955  14.308  11.997 -0.1945  0.3245  0.1273
11563W        W26694  17.720   7.931   2.816  0.1655  0.3239  0.0112
11564W        W26695   7.923   4.137   2.580  0.2340 -0.1291  0.1141
11565W        W26696   7.024  15.230  13.695  0.1297  0.0709 -0.0042
11566W        W26697   0.077   6.785   3.446 -0.1433 -0.0069 -0.0481
11567W        W26698   2.053   9.310  14.930 -0.1297 -0.1546  0.1423
11568W        W26699   9.008   7.775   2.837  0.2493 -0.0467  0.1097
11569W        W26700  16.275   7.727  12.987  0.1823  0.0961  0.2602
11570W        W26701   2.667  10.682  10.614  0.2511 -0.1127  0.0504
11571W        W26702  10.009  17.953   3.907  0.1622  0.4262  0.0925
11572W        W26703  15.738  17.022   0.507 -0.0013 -0.1575 -0.1625
11573W        W26704   3.202   9.270  11.954  0.4230 -0.3588 -0.0551
11574W        W26705   5.529   2.656  15.512  0.0544  0.2716  0.1519
11575W        W26706  13.445  16.186  12.783 -0.1372 -0.0855 -0.4206
11576W        W26707   9.668  10.760  12.384 -0.2085 -0.2215  0.0947
11577W        W26708  15.203  16.818   4.961 -0.1998 -0.1603  0.0092
11578W        W26709   5.686   6.503  14.966 -0.2235  0.2574 -0.2549
11579W        W26710   0.058   5.739   1.958 -0.1652  0.2912 -0.2419
11580W        W26711   2.581  10.284   5.350 -0.0423 -0.0493  0.3019
11581W        W26712   6.015   3.762  14.284  0.0003  0.0191  0.1248
11582W        W26713  15.335  15.658  11.811  0.3244 -0.1538 -0.0915
11583W        W26714   1.944  15.978  14.733 -0.1706 -0.1014  0.0586
11584W        W26715  14.593  13.092   4.440 -0.0153 -0.2215  0.0265
11585W        W26716  12.977   7.603  15.227 -0.2478  0.2515 -0.0772
11586W        W26717   0.329  13.833  13.101  0.2714 -0.1778  0.2366
11587W        W26718  14.376  13.533   0.664 -0.0355 -0.0927 -0.2080
11588W        W26719   7.770  14.473   1.915 -0.1463 -0.5323  0.1012
11589W        W26720  13.334   7.372  14.237 -0.0496 -0.5269 -0.1511
11590W        W26721  15.272  17.953  15.146 -0.2082 -0.0482 -0.3057
11591W        W26722  13.451  16.983   2.490  0.0850  0.0467  0.1381
11592W        W26723  15.367   3.304  10.356  0.0789 -0.1838  0.1305
11593W        W26724   9.751  10.143  15.178  0.0371  0.0204  0.0675
11594W        W26725  15.640  13.879  15.043 -0.0357  0.4613  0.0494
11595W        W26726  13.577  17.572  12.685  0.0123 -0.2472  0.2795
11596W        W26727   7.949  18.283  14.987  0.1406 -0.0697 -0.0958
11597W        W26728  13.414  15.235   0.309 -0.1010 -0.1340 -0.2475
11598W        W26729  12.636   6.306  11.921  0.2395  0.0973 -0.0879
11599W        W26730  16.327  13.376  14.519 -0.2198  0.0950  0.3523
11600W        W26731  10.423   1.154  12.554  0.2169 -0.1595 -0.0228
11601W        W26732   4.056  16.712   5.157 -0.1423 -0.2174 -0.0879
11602W        W26733  16.217  10.604  13.495 -0.0074  0.1102 -0.0313
11603W        W26734  10.560  15.438   0.303 -0.0419 -0.1196  0.0413
11604W        W26735  10.144  14.661  11.102 -0.0109 -0.0933  0.4067
11605W        W26736   8.723   2.400   0.296  0.0843 -0.1064  0.0009
11606W        W26737   3.534  14.718   6.315  0.0556  0.0559 -0.1538
11607W        W26738  11.432  12.363  10.822 -0.0287 -0.0983  0.1424
11608W        W26739  18.202   8.852   0.944  0.1655  0.0035 -0.1704
11609W        W26740  14.388   5.836   3.973  0.1561 -0.2758 -0.1086
11610W        W26741   7.200  11.806  14.064  0.2039 -0.1058  0.0075
11611W        W26742   0.482   1.331   0.015 -0.3209 -0.2249 -0.0677
11612W        W26743  11.392  12.754   2.785  0.1415 -0.0634  0.2813
11613W        W26744  12.950   4.305  15.045  0.1130 -0.0350  0.0770
11614W        W26745  10.737   9.991   1.014 -0.0421 -0.2244 -0.0265
11615W        W26746  11.602  17.663   4.819  0.1487 -0.2297  0.2538
11616W        W26747  16.765  13.479  11.656 -0.2532 -0.0802  0.1116
11617W        W26748   8.235  14.814   2.082  0.0944  0.1519 -0.2522
11618W        W26749   1.831   5.564  13.881  0.1613  0.1044 -0.0316
11619W        W26750   3.373   4.794   0.131  0.0960  0.0773 -0.0466
11620W        W26751   8.827   7.027   4.216 -0.1409 -0.4336 -0.0890
11621W        W26752  10.032  12.395   3.796 -0.2614  0.0922  0.4308
11622W        W26753  10.504   5.218  16.026  0.1035 -0.0283  0.0770
11623W        W26754  14.677   0.238  10.943  0.0851  0.0714 -0.0928
11624W        W26755  15.349   1.612  12.549  0.2103  0.0245  0.1847
11625W        W26756  14.923   1.439  15.758  0.1504  0.0102  0.2424
11626W        W26757  13.327  13.834   4.651  0.0630  0.1067  0.0670
11627W        W26758   6.140  10.735  10.738  0.2035 -0.0286  0.0450
11628W        W26759   2.473   9.010   0.176  0.0012 -0.4471  0.3390
11629W        W26760   9.986  14.884   4.412  0.2455  0.0525  0.0334
11630W        W26761   1.640   2.117  14.718 -0.0065 -0.0127 -0.1055
11631W        W26762  17.296   2.584   5.971  0.0004  0.0479  0.2134
11632W        W26763  16.014   2.371  13.619  0.1200  0.0916 -0.1618
11633W        W26764  15.155  12.100   4.228 -0.3882 -0.1870  0.1723
11634W        W26765   4.563  15.362  11.414  0.0784  0.1313 -0.0509
11635W        W26766   1.976  10.643  13.227 -0.0668  0.1666  0.3119
11636W        W26767   4.334   7.526  12.155 -0.3040  0.0662 -0.1480
11637W        W26768  13.556   4.829   9.958  0.3102  0.0627 -0.1359
11638W        W26769  15.789  15.179   1.255  0.0076  0.1764 -0.1497
11639W        W26770   7.026  15.969   1.651 -0.1464  0.0622  0.0336
11640W        W26771   4.285   7.641  14.698  0.1353 -0.0960 -0.1419
11641W        W26772   1.275  16.010  14.873 -0.0144 -0.0890  0.4425
11642W        W26773   2.116   9.873  13.263 -0.4300  0.2220  0.1526
11643W        W26774   3.515   7.333   2.478 -0.0090 -0.2938  0.1408
11644W        W26775   3.825   8.318   4.288  0.1526 -0.0380 -0.0914
11645W        W26776  14.650  10.632   1.333  0.1047  0.0975  0.0744
11646W        W26777   0.574  17.986  15.196 -0.3335 -0.3596  0.3899
11647W        W26778  10.346   3.238  16.050 -0.0921  0.4159  0.1135
11648W        W26779   2.640   8.520   2.628 -0.1911  0.1720  0.2445
11649W        W26780   6.930  18.325  13.599  0.1510  0.0847  0.2096
11650W        W26781   6.174  11.910   1.699 -0.0872 -0.1180  0.0585
11651W        W26782  16.908  11.807  15.867  0.0871 -0.0053  0.0044
11652W        W26783   1.709  16.572   6.103 -0.0197 -0.0847 -0.2365
11653W        W26784  15.897   6.611  10.048 -0.0391  0.2971  0.0835
11654W        W26785  14.714   0.574  12.389 -0.1525  0.0004  0.1228
11655W        W26786   4.359   5.091   3.243 -0.1673  0.0066 -0.0204
11656W        W26787  13.926  11.953   3.875 -0.1000 -0.0288 -0.2892
11657W        W26788  16.507  11.542   2.375  0.2926 -0.1107 -0.0809
11658W        W26789  14.746   2.837   3.094 -0.0249 -0.0568  0.1122
11659W        W26790   6.700   3.996  15.879 -0.0493  0.3198 -0.5503
11660W        W26791   2.466   8.887   6.113  0.1198 -0.0748  0.0635
11661W        W26792   1.556   8.899  11.959  0.0916 -0.0258 -0.0353
11662W        W26793  10.446   6.763  14.636 -0.2143  0.1378 -0.0043
11663W        W26794  13.854  16.856   9.957 -0.3463  0.0875  0.0788
11664W        W26795  15.596  14.705  13.269 -0.2834 -0.0809  0.0945
11665W        W26796  14.188  18.068   1.991  0.1387 -0.0946 -0.0322
11666W        W26797   6.358  11.674  12.642  0.0493 -0.1949 -0.1242
11667W        W26798   0.581   0.628   4.847  0.0358  0.1590 -0.1353
11668W        W26799  16.289  14.638  15.664  0.0599 -0.0529 -0.3520
11669W        W26800   8.137  10.470   1.963  0.1708  0.0076 -0.0848
11670W        W26801   7.050  13.458  10.971  0.1253 -0.2825 -0.0158
11671W        W26802   2.453   5.681   0.580 -0.3058  0.2126  0.0876
11672W        W26803   4.852   7.106  13.722 -0.2880  0.0305 -0.4995
11673W        W26804   2.789   4.279  15.842  0.1105 -0.4076 -0.0534
11674W        W26805   4.193  12.612  16.080 -0.1077 -0.2750  0.2676
11675W        W26806   3.930  10.460   1.770 -0.3333  0.3026 -0.1529
11676W        W26807   5.398  10.180   0.886 -0.0258 -0.2339 -0.1806
11677W        W26808  14.423  10.545   9.793 -0.1770 -0.1222 -0.1409
11678W        W26809  14.797  14.964   4.056  0.0051 -0.1403 -0.2803
11679W        W26810   8.488  16.186  13.606  0.1467 -0.1667 -0.1233
11680W        W26811  10.333   9.462   0.690 -0.0511  0.1069 -0.0924
11681W        W26812   2.510   6.287   4.758  0.2961  0.1807  0.2612
11682W        W26813  16.968  12.858   4.497  0.2295  0.1034 -0.1889
11683W        W26814  18.311   7.878  11.138  0.1761 -0.5792  0.3427
11684W        W26815   9.499   4.038   3.608 -0.1145 -0.3628 -0.1882
11685W        W26816   8.548   5.955  11.213 -0.0185 -0.0644 -0.2186
11686W        W26817   6.523  17.584   5.126  0.0744  0.0009  0.1244
11687W        W26818  14.956   0.556  13.198  0.2276 -0.0623 -0.3392
11688W        W26819   9.741  11.854  14.334 -0.2209  0.2009 -0.0894
11689W        W26820   5.731  12.129  10.206 -0.0950 -0.2600  0.0811
11690W        W26821  10.454   3.305  13.912 -0.1679  0.2333  0.0181
11691W        W26822  17.612   5.680   4.404  0.2125  0.2912 -0.1486
11692W        W26823  12.304  17.784   0.641  0.0037 -0.0952 -0.0906
11693W        W26824   4.740   8.327  13.761  0.0279  0.0964 -0.3949
11694W        W26825  17.967   9.202   2.235 -0.1491 -0.0081 -0.0038
11695W        W26826  12.597  17.669  14.911 -0.0476 -0.2494 -0.1026
11696W        W26827   8.097  10.155  11.748  0.0326  0.2123 -0.0579
11697W        W26828  13.358  13.580   3.075  0.1622  0.2401  0.0573
11698W        W26829   1.101  16.321  14.453 -0.0498  0.1339 -0.0562
11699W        W26830   9.913  10.720   4.782  0.2220 -0.3640  0.0300
11700W        W26831  14.378  11.533   2.182  0.1670  0.2290  0.2882
11701W        W26832  16.817   8.282  16.062  0.2367  0.0141  0.2339
11702W        W26833   6.583  13.570   4.267 -0.0020  0.4527  0.1571
11703W        W26834   6.069  10.051   2.472  0.0860 -0.2386  0.2205
11704W        W26835  17.717   8.751  11.392 -0.1427 -0.0230 -0.0160
11705W        W26836   2.107   1.309  12.358 -0.2994 -0.0695 -0.2586
11706W        W26837   3.948  18.093   5.143  0.1150  0.2923 -0.0495
11707W        W26838   3.332  18.259  12.370  0.1584 -0.1789  0.0960
11708W        W26839   6.245   2.207  13.400  0.1263  0.4013 -0.1485
11709W        W26840   1.517  10.098   3.927 -0.0684  0.2803  0.0836
11710W        W26841   9.493   5.118   5.962 -0.2546 -0.1485 -0.0285
11711W        W26842  12.782   3.343  15.560  0.1575  0.2793 -0.0427
11712W        W26843   4.668  12.000   1.266  0.1775 -0.0756 -0.1150
11713W        W26844   3.751  15.401  10.896  0.0391 -0.1815 -0.0855
11714W        W26845   8.243   4.267  12.312 -0.2196 -0.2895  0.0007
11715W        W26846  11.672  13.446   1.757 -0.3669  0.0695 -0.1364
11716W        W26847  13.575   6.685   5.324 -0.0273 -0.1352  0.1342
11717W        W26848  15.929   0.215  14.499  0.0151  0.1249 -0.1006
11718W        W26849   8.550  12.053  15.080 -0.3208  0.1639 -0.0302
11719W        W26850  14.876  18.192   5.544  0.0325 -0.1093  0.1134
11720W        W26851  10.158   5.522   2.630  0.1157  0.0601 -0.1432
11721W        W26852   3.567   9.732   1.011  0.1869 -0.0096 -0.1795
11722W        W26853  15.292  16.128  15.163 -0.0216 -0.3606 -0.0275
11723W        W26854   6.041   2.974  13.247 -0.3528  0.1044  0.0115
11724W        W26855   7.586  17.685  13.872 -0.0308 -0.0782 -0.2277
11725W        W26856   0.411   8.023   1.358  0.3019  0.3283  0.1617
11726W        W26857   6.023   6.135  15.519  0.0873 -0.1801  0.0598
11727W        W26858  14.440   5.860  11.652  0.3084 -0.0836  0.0379
11728W        W26859  16.995   4.296   4.884 -0.0315 -0.1134  0.1259
11729W        W26860  16.706  11.971   2.160 -0.0973 -0.1155 -0.3214
11730W        W26861   9.814   5.900  12.995  0.3404 -0.0651 -0.6374
11731W        W26862  14.010   9.920  15.225 -0.1526 -0.0307 -0.0450
11732W        W26863   3.566  17.619  15.187  0.5673 -0.2116  0.0268
11733W        W26864  10.425   0.795   3.324 -0.0839  0.2616 -0.4114
11734W        W26865  16.340  12.392  15.656  0.0649 -0.0527 -0.0184
11735W        W26866   8.426   5.999  15.944  0.1358 -0.2530 -0.0399
11736W        W26867   8.262   5.953   1.277  0.1120 -0.1988  0.3884
11737W        W26868  12.414  16.051  13.105 -0.1918 -0.0273 -0.3992
11738W        W26869  12.950   1.800  12.453 -0.2267  0.1066  0.2247
11739W        W26870  15.403  10.102  13.198  0.0863 -0.3401  0.2221
11740W        W26871   5.701   1.220   2.265 -0.1895 -0.1571 -0.1284
11741W        W26872   5.274   8.136   3.804 -0.5016 -0.2195 -0.0268
11742W        W26873  12.312  11.962   4.074  0.0567 -0.0703  0.0150
11743W        W26874   7.987  15.395  12.118 -0.3861  0.0476  0.0739
11744W        W26875  16.770   5.825  15.931  0.1068 -0.4225  0.2246
11745W        W26876   6.188  11.089   5.093 -0.1128 -0.1551  0.1521
11746W        W26877  15.960  13.167   2.121  0.0239  0.0949 -0.3740
11747W        W26878   8.563  14.072  13.163 -0.3464  0.0945  0.1358
11748W        W26879   4.569   0.998   4.840  0.0662  0.1068  0.3339
11749W        W26880   0.611   7.366   0.709 -0.0131 -0.0020 -0.3271
11750W        W26881   9.497   3.326   6.101 -0.1575  0.0265 -0.1510
11751W        W26882  13.736  12.566  11.841  0.1446 -0.0506 -0.0175
11752W        W26883   0.442  15.612  11.315  0.1298  0.1179  0.4421
11753W        W26884  15.446  18.080  10.645 -0.0540  0.0758  0.0088
11754W        W26885  17.444  15.826   3.865  0.0541 -0.0945  0.0598
11755W        W26886  17.561   1.745   6.297 -0.2290  0.0346 -0.2714
11756W        W26887  10.425  12.197   3.994  0.1685 -0.0146  0.4298
11757W        W26888   9.117  17.408   3.662 -0.2071  0.0366 -0.1933
11758W        W26889   7.858   8.522   0.625 -0.1762 -0.1555  0.1920
11759W        W26890  16.014  13.509   0.314 -0.0273 -0.0069 -0.0430
11760W        W26891   8.191  13.533  12.532  0.0223  0.2149  0.1869
11761W        W26892   3.505   1.624   1.130 -0.0253  0.2324  0.3342
11762W        W26893  10.631  10.148  15.780  0.0761  0.0066 -0.0896
11763W        W26894  11.245  16.978  13.774  0.0134  0.4323  0.1552
11764W        W26895   1.040   2.292   4.710  0.1338 -0.0489  0.2388
11765W        W26896   3.907   1.373  15.487 -0.1706  0.0059 -0.1548
11766W        W26897   3.623   2.697   3.250  0.1446  0.2314 -0.0532
11767W        W26898  13.050  18.177   4.859 -0.1811 -0.3213 -0.0357
11768W        W26899   9.745  11.353  15.671 -0.0180 -0.3639  0.0177
11769W        W26900  11.720  13.984  12.383 -0.1466  0.1466  0.0555
11770W        W26901   3.020   5.304  12.744  0.2112 -0.1006  0.2007
11771W        W26902   5.830  11.702   2.798 -0.2103  0.2886 -0.1011
11772W        W26903   5.250  10.575   0.337 -0.2304 -0.0150 -0.4011
11773W        W26904  16.137  17.407  10.814 -0.6052  0.0323  0.2656
11774W        W26905   8.479   3.393   2.137  0.1764  0.0416  0.3636
11775W        W26906   9.007  14.676  14.948 -0.5050  0.2380  0.2383
11776W        W26907   5.120   1.605  14.705  0.2746  0.0381  0.1824
11777W        W26908   8.040  12.816   2.906  0.2478  0.4437 -0.0594
11778W        W26909   1.051  17.151   3.640 -0.2300  0.5150 -0.1929
11779W        W26910  16.387   9.424   3.272  0.0617 -0.2684  0.3449
11780W        W26911   5.330  14.801   2.061  0.0432 -0.2797 -0.1836
11781W        W26912   3.531   4.523   3.687 -0.1500  0.0298 -0.0505
11782W        W26913   0.749  17.371   3.342  0.1000  0.1679 -0.0704
11783W        W26914  14.426  10.970  11.165  0.0890 -0.0982 -0.0653
11784W        W26915   9.928   8.022  13.405  0.1598  0.0809  0.0073
11785W        W26916  14.794   0.126  11.463  0.5752  0.2285 -0.2156
11786W        W26917  17.265  12.415  13.506  0.1566 -0.0565  0.1933
11787W        W26918   8.863   8.409   4.609  0.1422  0.3951  0.1813
11788W        W26919   4.569   4.827  15.767  0.0098 -0.1443  0.1503
11789W        W26920  16.323  16.946  10.934  0.1766 -0.3273 -0.1717
11790W        W26921   6.622   9.186  15.524  0.3129  0.1728 -0.0834
11791W        W26922   4.708  11.015   2.148  0.1235 -0.0803  0.0403
11792W        W26923   8.014   0.823   6.305  0.2644 -0.1271 -0.0820
11793W        W26924   8.494  10.716   4.036 -0.2964  0.0604 -0.0515
11794W        W26925   0.894   1.068  14.173 -0.1828  0.1113 -0.1547
11795W        W26926   2.291  15.426  13.413 -0.1215 -0.2942 -0.2649
11796W        W26927   3.861  15.738   1.780 -0.3066  0.1100  0.0053
11797W        W26928  10.394   2.835   1.022 -0.0332  0.1650  0.0930
11798W        W26929  13.033   9.362  12.155  0.1073  0.1650  0.2089
11799W        W26930   9.284  11.437  10.848 -0.1250  0.0914 -0.0941
11800W        W26931  13.959   8.749  15.867 -0.0678 -0.1399 -0.1933
11801W        W26932  17.192  14.663  15.500  0.1204  0.0469  0.1794
11802W        W26933  14.521   8.157   2.470  0.1409  0.0603 -0.4125
11803W        W26934  12.055   4.073   5.534 -0.1514 -0.1552  0.3630
11804W        W26935   0.827   3.462   2.845 -0.2283  0.0088 -0.0744
11805W        W26936  14.131   5.141   0.245  0.1272  0.0144 -0.0685
11806W        W26937  13.246   1.635  14.598  0.3331 -0.2319  0.1037
11807W        W26938  10.605  14.934  11.071 -0.2383  0.0553  0.1642
11808W        W26939   2.991  17.577   4.239  0.0218  0.2842  0.4175
11809W        W26940   9.908   2.883  12.506  0.2523  0.0770  0.0089
11810W        W26941   2.556  17.691   5.740  0.0685  0.0328 -0.1224
11811W        W26942  12.416   3.836   1.603  0.1111 -0.0123 -0.0054
11812W        W26943   7.115   5.736   3.547  0.1050  0.1921 -0.0229
11813W        W26944   9.371  16.371   5.694 -0.2750  0.0988  0.0120
11814W        W26945  17.934   1.222  11.132 -0.1307 -0.0146  0.3692
11815W        W26946  16.247  16.114  10.698 -0.1857  0.0595 -0.2210
11816W        W26947  10.523  16.109  13.919  0.0504 -0.2650  0.0574
11817W        W26948  11.758  13.445  12.517 -0.0758 -0.1973  0.0349
11818W        W26949  12.683   6.536   2.266  0.1079 -0.1450  0.0691
11819W        W26950   4.567   8.256  11.604  0.2503  0.0234  0.0278
11820W        W26951  11.270  10.268   4.815  0.3167 -0.0752  0.0413
11821W        W26952  17.135  16.499  11.159 -0.0817 -0.1524 -0.0969
11822W        W26953  14.723  15.762   0.265  0.2005  0.0492 -0.0695
11823W        W26954   8.287   8.487   2.867 -0.1675 -0.2001 -0.3012
11824W        W26955   2.637  17.457   3.864  0.2136  0.0443  0.2564
11825W        W26956   9.229   0.030   5.822  0.0921 -0.0365  0.0151
11826W        W26957   0.702  11.982   1.597  0.0185  0.1266 -0.0373
11827W        W26958  10.544  11.511  14.432 -0.1477  0.0737 -0.1817
11828W        W26959  11.797  14.097   9.435  0.1434 -0.2425 -0.1387
11829W        W26960  15.992   2.881   1.591 -0.0056 -0.1251  0.0337
11830W        W26961  10.421  14.143   4.550  0.2414 -0.0629 -0.1005
11831W        W26962   7.991   0.267   1.909 -0.0115 -0.0008 -0.2235
11832W        W26963  17.889  17.465  12.572  0.4194 -0.1020  0.1041
11833W        W26964  10.138  13.394  10.363 -0.1977 -0.0168 -0.0518
11834W        W26965   6.938  11.528   2.302  0.0653  0.1613  0.2255
11835W        W26966   4.829  11.996   3.301  0.0214  0.2500  0.0248
11836W        W26967  13.386  12.607   2.041  0.2416  0.2548  0.3182
11837W        W26968  14.457  17.114  14.346 -0.0739  0.0811 -0.2144
11838W        W26969   6.527   9.545  13.154  0.0231 -0.1419 -0.4662
11839W        W26970   6.478   8.683   2.584 -0.0784 -0.0652  0.1022
11840W        W26971   2.235   7.712  12.170 -0.0478  0.0045 -0.4453
11841W        W26972  16.440  17.025   2.072  0.0147  0.0426 -0.0159
11842W        W26973  10.678  10.460   0.037  0.1086 -0.2394  0.0466
11843W        W26974  18.210   5.275   1.356  0.0144 -0.1841  0.1297
11844W        W26975  11.530   5.229  13.660 -0.4874  0.1378 -0.2496
11845W        W26976  15.606   4.053  11.495 -0.1476  0.3903 -0.1429
11846W        W26977  11.092  10.767  16.101  0.2813 -0.0333  0.1811
11847W        W26978   0.085  14.409  12.386 -0.0861 -0.1291  0.1910
11848W        W26979   0.700   9.183  11.406  0.0180 -0.0877 -0.0879
11849W        W26980   1.971   2.774   5.642  0.0812 -0.1424  0.3279
11850W        W26981  16.004   9.184  11.218 -0.1494  0.0018 -0.2294
11851W        W26982   6.188   2.978   1.293 -0.1192 -0.2751 -0.4846
11852W        W26983   5.465  14.819  12.304 -0.6498 -0.1086  0.3049
11853W        W26984  14.243  12.822  11.503 -0.0787 -0.0339 -0.1297
11854W        W26985   5.887   4.733  14.255 -0.0874  0.2470 -0.1338
11855W        W26986  13.972   7.962   0.946 -0.1067 -0.0740 -0.0501
11856W        W26987  17.593  16.313  10.940 -0.2647  0.2020  0.1509
11857W        W26988   8.033   9.028  13.160 -0.3391  0.0079 -0.0696
11858W        W26989   4.510  17.130  14.255  0.0586 -0.2104 -0.1379
11859W        W26990  16.971  14.070  16.025  0.0952 -0.1186  0.1355
11860W        W26991   7.685   1.731   6.108 -0.3139  0.2263 -0.0466
11861W        W26992   6.277   6.233   3.567 -0.0283  0.1124 -0.3702
11862W        W26993  10.785   1.858  13.821 -0.1507 -0.1613  0.0357
11863W        W26994   7.093   5.739   0.386 -0.2410 -0.0293  0.0024
11864W        W26995   1.967   0.847   0.570  0.1267  0.2142  0.0305
11865W        W26996  13.743   4.902   0.473 -0.0415 -0.0123 -0.2341
11866W        W26997  14.708  14.454  15.565 -0.2133 -0.0489  0.0083
11867W        W26998   2.113   2.049   4.628 -0.1006  0.1809  0.0442
11868W        W26999  14.366  14.058   0.430 -0.4278 -0.1036 -0.4247
11869W        W27000  15.939  13.783  12.056 -0.0484  0.1166  0.0669
11870W        W27001   4.573  17.489  10.531  0.1115 -0.3313  0.1665
11871W        W27002  13.329  15.198  15.754 -0.0025  0.0156  0.0166
11872W        W27003   6.868   0.896  15.469  0.2580  0.1851  0.1624
11873W        W27004  11.772   9.388  11.611 -0.1179  0.1642 -0.2465
11874W        W27005   0.329  10.687  12.520  0.0042 -0.0796  0.1925
11875W        W27006   5.710   9.797   1.658  0.2284 -0.2199 -0.0778
11876W        W27007  16.067   9.780  15.532 -0.2112  0.1539 -0.0809
11877W        W27008  15.357   9.861   3.410  0.0334  0.1241 -0.1114
11878W        W27009  11.724   8.516   1.046 -0.0866  0.2844  0.1240
11879W        W27010   3.177   4.445   4.157  0.1340 -0.0120 -0.0583
11880W        W27011   9.961   2.104  11.736  0.2551  0.1160 -0.0056
11881W        W27012   2.677  17.502  11.054  0.1359 -0.0376 -0.0722
11882W        W27013   9.502   0.295   2.724  0.0283 -0.1602  0.0509
11883W        W27014  17.037  17.570  15.283  0.0529  0.0917 -0.0403
11884W        W27015  14.102  15.298  13.755 -0.0228  0.0005 -0.0351
11885W        W27016   3.996   0.763  11.513  0.0787 -0.1845 -0.4205
11886W        W27017  10.426  15.854   1.922 -0.0285 -0.2075  0.0157
11887W        W27018   2.928  17.219  13.207 -0.0766  0.1578  0.0258
11888W        W27019  18.179   2.723   5.467 -0.2007  0.2331 -0.1765
11889W        W27020  11.173  12.166  14.370  0.0753 -0.1277 -0.2498
11890W        W27021  15.358   7.835   2.628 -0.0604 -0.2481 -0.1962
11891W        W27022  11.003  11.650  11.815  0.0432  0.0073  0.0250
11892W        W27023  17.898   0.818  11.423 -0.0948  0.1919  0.0033
11893W        W27024  11.814  12.402  15.795  0.3281  0.2288 -0.0418
11894W        W27025   7.599  12.104   1.928  0.1979  0.3420 -0.0846
11895W        W27026   5.244  14.234   1.034 -0.0642  0.2042  0.3211
11896W        W27027   1.415  14.497  13.045 -0.2773 -0.1101  0.1849
11897W        W27028   7.254   4.401   0.890  0.0729  0.0839 -0.0252
11898W        W27029   0.651   1.145   0.491 -0.0018  0.3282  0.2937
11899W        W27030   5.097   5.200  14.339 -0.1223  0.0388 -0.4169
11900W        W27031  16.068  15.107  14.392 -0.0886  0.0184 -0.1776
11901W        W27032   0.885   0.609  10.506 -0.0735  0.0499 -0.0468
11902W        W27033  14.816  16.440  10.058 -0.0368 -0.0714 -0.1140
11903W        W27034   0.397   2.487  12.533  0.0345 -0.0442  0.0467
11904W        W27035   7.949  13.813   3.020 -0.2263  0.0611 -0.2189
11905W        W27036   0.991   2.638   3.207  0.1397 -0.3158  0.3045
11906W        W27037   2.324  14.210   0.720  0.1328 -0.1431 -0.1599
11907W        W27038  14.634   1.997   2.548 -0.3972  0.5388  0.3255
11908W        W27039  15.349   1.977  12.041  0.3825 -0.0387  0.0984
11909W        W27040  13.661  11.910   0.921  0.0313  0.0814 -0.1554
11910W        W27041  12.731   2.980  10.706 -0.2134 -0.0302  0.2301
11911W        W27042  12.851   0.042   1.308 -0.2768  0.0044  0.1711
11912W        W27043  12.260  14.753  10.923  0.1121 -0.0615 -0.3035
11913W        W27044  10.172   9.199  14.245  0.1702  0.0114 -0.1322
11914W        W27045  14.518  17.104  15.511  0.1072 -0.1859  0.2062
11915W        W27046   5.401   4.175  15.768 -0.0653 -0.1613 -0.3298
11916W        W27047  11.146  12.925   0.094 -0.2789 -0.2769  0.0329
11917W        W27048   9.114   0.056  13.878 -0.1035 -0.1476 -0.2383
11918W        W27049  14.907   6.526   3.266 -0.1519  0.0534  0.1073
11919W        W27050   8.947  10.962   2.855 -0.0276 -0.3164 -0.0323
11920W        W27051  10.830   2.876  15.044  0.3180 -0.1909 -0.0448
11921W        W27052  17.477   9.625   2.119 -0.0136 -0.2286  0.0154
11922W        W27053   8.723  12.562   4.147 -0.5593  0.1794  0.0145
11923W        W27054  11.467  10.117   2.510 -0.1095 -0.0303  0.0178
11924W        W27055   8.043  15.868  16.089  0.0061  0.0816 -0.1286
11925W        W27056   1.322  16.755  10.819  0.3922  0.0784 -0.1991
11926W        W27057   9.594  10.663   1.915 -0.0683 -0.0296 -0.0771
11927W        W27058   2.980   2.581   5.810  0.0583  0.2908 -0.0562
11928W        W27059  12.495   1.312   3.121  0.0916 -0.1354 -0.0725
11929W        W27060  10.507   3.891   4.629  0.0263 -0.0124 -0.1101
11930W        W27061  16.436   1.027  11.764 -0.0340 -0.2508 -0.0209
11931W        W27062   0.221  10.199   0.932  0.2614  0.0422  0.2053
11932W        W27063   8.397  18.315   1.005  0.0315  0.0965 -0.1721
11933W        W27064  18.233  16.275   4.222  0.3989  0.1639  0.0807
11934W        W27065   3.238  12.224  15.378  0.3729  0.1295 -0.1539
11935W        W27066   2.465   0.613  13.252  0.1119 -0.0589 -0.0620
11936W        W27067   1.495   8.001   3.453  0.3924 -0.1263 -0.2669
11937W        W27068   6.284   0.721   0.074  0.1658 -0.2174  0.3136
11938W        W27069  18.114  10.170  15.406 -0.1398  0.1164  0.0087
11939W        W27070   5.249   2.221  15.495  0.2237  0.2850  0.2392
11940W        W27071  13.187   6.315  15.456  0.3604  0.0286  0.3611
11941W        W27072   4.504  11.608   3.487 -0.1839 -0.1255 -0.0198
11942W        W27073   9.263  12.844  12.031 -0.1064 -0.0319 -0.0396
11943W        W27074  16.341   4.211  12.173 -0.1284  0.3185  0.2785
11944W        W27075   1.736  13.382   1.095  0.0696 -0.0002 -0.2730
11945W        W27076  14.254  12.397   2.738 -0.2196 -0.0446  0.2894
11946W        W27077  12.129   4.757  11.079  0.0639  0.2523 -0.0814
11947W        W27078   8.289   9.318   0.350  0.0120 -0.3391 -0.1797
11948W        W27079   3.977   5.224   2.468  0.0246  0.2852 -0.0811
11949W        W27080   3.885  12.400  13.331 -0.3152 -0.0779 -0.0336
11950W        W27081  16.179  15.631   4.060  0.1553  0.0069  0.1574
11951W        W27082   1.645  11.053  10.476  0.0591 -0.2559  0.0428
11952W        W27083   9.172  13.600  15.564  0.1444 -0.1263  0.0080
11953W        W27084  16.297  10.275   1.504 -0.2287  0.1241 -0.0372
11954W        W27085  18.176   6.201   4.054 -0.0495 -0.2060  0.1146
11955W        W27086  11.555  13.010   1.439 -0.3626 -0.1632  0.1921
11956W        W27087  14.239  13.342   2.749 -0.2354 -0.0715 -0.0356
11957W        W27088  16.595   1.521   2.049 -0.0938  0.4461  0.1705
11958W        W27089   0.949  13.487  15.839 -0.1306  0.1910 -0.0634
11959W        W27090   2.209   2.736  14.338 -0.2915  0.0758 -0.0089
11960W        W27091  16.576   5.586  13.862  0.1337  0.0710  0.4005
11961W        W27092  13.638  10.975  12.813 -0.2094 -0.1954  0.3758
11962W        W27093   6.780   7.838   3.583 -0.1867 -0.0453  0.2321
11963W        W27094   0.163   1.569   5.047  0.2768  0.0268 -0.0840
11964W        W27095  14.324  10.122   2.156  0.0453 -0.4789 -0.1740
11965W        W27096   0.564  12.633  14.531 -0.2952 -0.0543  0.0210
11966W        W27097   1.390   6.683   5.160  0.0884 -0.4293 -0.4165
11967W        W27098   9.032  11.265  12.257  0.2391 -0.0613 -0.1983
11968W        W27099  16.339   6.258  14.384 -0.0663 -0.2313  0.3124
11969W        W27100   7.115   8.632   0.278  0.1915  0.1574  0.0632
11970W        W27101   4.336  12.085   4.601  0.0426 -0.1072  0.0122
11971W        W27102  17.198  10.940  11.989  0.0436 -0.0718  0.0439
11972W        W27103   7.630   0.562   5.993 -0.1199  0.0636  0.1097
11973W        W27104   7.063   3.781   3.733  0.2360  0.3277 -0.1946
11974W        W27105  17.657   6.429  12.271 -0.0804 -0.1056  0.1876
11975W        W27106   6.029   3.188   4.612  0.3344 -0.0008  0.1088
11976W        W27107   6.402  15.842  13.709 -0.1885  0.4742 -0.0880
11977W        W27108   0.478  18.183  12.077  0.0703  0.3915  0.1177
11978W        W27109   2.163   8.831  15.274  0.1139 -0.3909 -0.0434
11979W        W27110   9.453   1.812   0.611 -0.0964 -0.0215  0.0683
11980W        W27111  14.087  11.857   5.302  0.1725  0.1267 -0.1644
11981W        W27112   1.478  15.077  12.148 -0.1339 -0.2411  0.0183
11982W        W27113  14.523   0.874   0.252  0.0926 -0.1477 -0.0799
11983W        W27114   3.092   9.213  12.498 -0.1930 -0.0849 -0.2583
11984W        W27115   7.258  11.479  14.512  0.1800 -0.0190  0.1787
11985W        W27116  15.803  17.586  10.495  0.3267  0.1047  0.1063
11986W        W27117   1.982  17.657   3.629 -0.2265  0.1688 -0.1485
11987W        W27118   3.047  15.693   1.933 -0.0469  0.2094 -0.2677
11988W        W27119  10.654  11.269  11.157  0.1167 -0.0655 -0.2002
11989W        W27120   6.610   1.702  16.056  0.0648 -0.1257  0.1897
11990W        W27121  17.867   6.479  12.862 -0.0762 -0.1195 -0.0383
11991W        W27122  15.903   1.503   2.306  0.3042  0.1745  0.0384
11992W        W27123  10.388  10.417   3.452  0.0705  0.0409  0.0521
11993W        W27124  10.067   7.629  14.987 -0.1622 -0.1356 -0.2372
11994W        W27125   4.884  12.970   1.097 -0.1266  0.0748 -0.1370
11995W        W27126   3.095  16.643   5.194  0.2889 -0.3132 -0.1733
11996W        W27127   1.456  13.552  12.315 -0.0278 -0.0522  0.0410
11997W        W27128   6.906  15.946   3.435 -0.1428 -0.1158  0.2158
11998W        W27129   4.206   9.523   0.719 -0.3098 -0.2038 -0.1167
11999W        W27130   0.903  13.386  12.211 -0.2359  0.0887  0.0291
12000W        W27131  17.277   5.192  14.013 -0.4597 -0.0999 -0.0734
12001W        W27132  14.801   4.845   4.685  0.0453  0.1371 -0.2302
12002W        W27133  15.107  10.794  10.948 -0.0041 -0.2736 -0.2453
12003W        W27134  18.175   3.589  12.434  0.1869 -0.2950 -0.3476
12004W        W27135  10.336   7.602  12.437 -0.0338  0.0056 -0.0708
12005W        W27136   5.568   8.184  11.492  0.2704  0.0450  0.0413
12006W        W27137  12.359  12.646   4.320 -0.2871 -0.1502 -0.0274
12007W        W27138  12.671  12.660  16.066  0.1428 -0.0431 -0.2308
12008W        W27139  10.801  14.100   3.148 -0.0072  0.0189 -0.0713
12009W        W27140  16.367  15.456   5.334  0.1732 -0.1414  0.1902
12010W        W27141  12.761   4.754   2.288  0.0451 -0.0516 -0.1249
12011W        W27142   3.636  13.249  13.862  0.1169  0.1197  0.0958
12012W        W27143  17.906  13.260   3.169 -0.1568  0.3287  0.0449
12013W        W27144   0.503   5.709   1.759 -0.1145  0.1269 -0.0994
12014W        W27145  10.613   6.914  15.462 -0.2229 -0.0907  0.3247
12015W        W27146  10.308  14.762   1.044  0.0174 -0.1177  0.0453
12016W        W27147   6.137  10.041   4.811 -0.1820 -0.0630 -0.3490
12017W        W27148  11.301  17.990   3.614 -0.1750 -0.1663 -0.0612
12018W        W27149  15.102  16.757   2.799  0.2600 -0.0869 -0.0151
12019W        W27150   5.976   1.500  14.129  0.0639 -0.2665  0.0459
12020W        W27151  13.673   4.753   5.065  0.3293 -0.4201  0.0029
12021W        W27152  12.412  13.995   2.907  0.3413 -0.2643 -0.3243
12022W        W27153   7.611   1.710   2.230  0.2945 -0.1004  0.0942
12023W        W27154   1.406  18.065  12.117 -0.1599 -0.1013 -0.2547
12024W        W27155   0.945   6.223  13.047  0.2212 -0.0850  0.0088
12025W        W27156   6.786  15.224  10.524  0.1297 -0.2331  0.0875
12026W        W27157  16.742  17.852  15.601  0.2950 -0.1159  0.0086
12027W        W27158   1.050   6.593  15.255 -0.4010  0.0187 -0.0546
12028W        W27159   8.040   1.591  13.681 -0.2684 -0.0758 -0.0281
12029W        W27160   4.475  11.722   5.730 -0.1462 -0.1500 -0.1513
12030W        W27161   6.099   2.615  12.101 -0.3413  0.0085 -0.0956
12031W        W27162   1.741  12.722   1.688  0.1735  0.2009  0.4406
12032W        W27163   8.839  14.795   2.720 -0.2832  0.0057  0.0008
12033W        W27164   1.290   0.040   0.051  0.3302  0.1671  0.1207
12034W        W27165   9.838  16.999   1.977  0.1095  0.1194 -0.1856
12035W        W27166  11.099  11.791  15.557 -0.0415  0.0151  0.0737
12036W        W27167   6.891  16.054  16.088  0.0304  0.2329  0.1162
12037W        W27168   8.493  10.344   0.643  0.0471  0.0282 -0.0627
12038W        W27169  12.322   1.052   5.242  0.1071 -0.6712  0.0121
12039W        W27170  14.027   6.676   0.576 -0.2398  0.0855  0.0217
12040W        W27171   3.119   7.602  12.583  0.0436  0.3431 -0.0800
12041W        W27172   7.327   9.519  14.295  0.1633 -0.0489 -0.3925
12042W        W27173  16.881   2.936   1.259 -0.0182 -0.1207  0.1843
12043W        W27174   1.279  14.163   0.799 -0.1391 -0.1212  0.2426
12044W        W27175  17.072   4.079  13.139  0.0002  0.2024 -0.0522
12045W        W27176   4.422   7.048  10.903 -0.0486  0.2586 -0.2958
12046W        W27177   0.349   9.896   4.770  0.3472  0.0623 -0.0694
12047W        W27178   2.882   9.952   1.807 -0.1209  0.1086 -0.2769
12048W        W27179   5.974   3.559  15.495 -0.1585 -0.1012 -0.1487
12049W        W27180  14.815   9.894  14.657 -0.0798  0.3297 -0.1227
12050W        W27181   7.006  14.909   4.774 -0.1447 -0.3157  0.2270
12051W        W27182  14.373   6.664   4.511  0.1360  0.1430 -0.3162
12052W        W27183   4.681  13.142  12.374  0.0052 -0.1583  0.2116
12053W        W27184   3.260  13.905  13.407 -0.1971 -0.0470 -0.0209
12054W        W27185   0.528   4.312  13.395  0.0981 -0.2155  0.3970
12055W        W27186  16.028  10.788   2.561 -0.2489  0.0138 -0.1540
12056W        W27187  15.702  14.428  10.560  0.0279 -0.0291 -0.0661
12057W        W27188  15.365  13.133   4.826  0.0606  0.0447 -0.0764
12058W        W27189  17.121   7.980  11.912  0.1899  0.1473 -0.0950
12059W        W27190  13.976  15.059  11.450  0.1388 -0.0067  0.1039
12060W        W27191   6.081  11.657   0.129  0.0917 -0.1198  0.2452
12061W        W27192   4.915   5.439  15.312 -0.0252  0.0066  0.2323
12062W        W27193   6.010  15.035  10.909 -0.0075 -0.0255  0.0814
12063W        W27194  16.024  11.522  12.408  0.0617  0.1922  0.0865
12064W        W27195  12.925   3.732   2.714  0.1916  0.0766  0.1018
12065W        W27196   9.482  17.877  14.746  0.1426 -0.1594 -0.1289
12066W        W27197  16.046   3.603   5.926  0.0841 -0.0299  0.3008
12067W        W27198   8.363   2.309  16.049  0.1954  0.1479  0.1825
12068W        W27199  14.305   1.106  10.477  0.0733 -0.1079 -0.1620
12069W        W27200   6.238  13.103  11.759 -0.1477 -0.0111 -0.2073
12070W        W27201  16.802  12.600   3.244 -0.0138  0.0574  0.1199
12071W        W27202   2.832   8.928  12.119  0.3150  0.0826  0.2580
12072W        W27203   2.220   9.412  11.694 -0.0959 -0.1533  0.3858
12073W        W27204   4.905  10.194   1.952  0.1810  0.0906  0.1020
12074W        W27205   1.377   6.335   4.681 -0.0183  0.2037  0.1684
12075W        W27206   4.848  12.434  10.993 -0.0692  0.2715 -0.1140
12076W        W27207  15.675   6.577   0.162 -0.0949 -0.4640 -0.3446
12077W        W27208  10.434  14.299  11.794  0.1908 -0.1674  0.1640
12078W        W27209  17.153   1.071  12.820  0.0986  0.1491  0.2977
12079W        W27210  14.426   8.043   0.261  0.0425 -0.0930  0.0490
12080W        W27211   3.658  17.371   4.556 -0.2375  0.0941 -0.0837
12081W        W27212   4.970  11.497  15.052 -0.1269 -0.1087  0.0865
12082W        W27213  14.188   4.513  11.814 -0.1557  0.0248 -0.1135
12083W        W27214  15.849   5.275   9.925  0.0677 -0.1106 -0.1863
12084W        W27215   8.585  12.466  14.778  0.1473  0.1023  0.0345
12085W        W27216  11.999   9.837  10.759 -0.2341 -0.0592 -0.2616
12086W        W27217   2.217   6.035   0.241 -0.2604 -0.1091 -0.1603
12087W        W27218   5.551  12.883   5.809  0.0520  0.0831 -0.0223
12088W        W27219  14.852   3.843  11.094 -0.0299 -0.1339  0.0940
12089W        W27220   5.479   2.696   3.390 -0.0488  0.2256 -0.0512
12090W        W27221  18.289   5.247   0.420  0.0436  0.0172  0.1428
12091W        W27222  17.967   9.181   5.121 -0.2089  0.4652 -0.0013
12092W        W27223   0.834   2.781  12.700 -0.1408  0.0763  0.0929
12093W        W27224   0.890   5.828   5.565  0.1399 -0.1898  0.3141
12094W        W27225  11.509  10.820  11.625 -0.0541  0.2614  0.0916
12095W        W27226   6.062  13.253  14.621  0.0434 -0.4028  0.2053
12096W        W27227  13.105   0.702   4.694  0.3173 -0.1519 -0.0595
12097W        W27228  12.326   0.543  14.666  0.2260 -0.0480 -0.1100
12098W        W27229   0.228   8.070  12.369 -0.1237 -0.0501 -0.0362
12099W        W27230   2.531   5.947   4.068  0.1079 -0.3070  0.0335
12100W        W27231  16.207   2.098  12.644  0.0100  0.1850 -0.1064
12101W        W27232   3.705   7.595   5.072 -0.1342  0.0160 -0.1329
12102W        W27233  10.423   0.288  11.814  0.0438 -0.1239 -0.1010
12103W        W27234  12.001   4.117   4.926 -0.0417 -0.0133  0.3503
12104W        W27235   5.191  14.123   3.695 -0.4093  0.1782  0.2256
12105W        W27236   1.931   2.154  13.749 -0.1421  0.1043  0.2513
12106W        W27237   9.795  14.910  12.907  0.0041 -0.0462 -0.1247
12107W        W27238  16.555  13.689  16.077 -0.0656  0.1903 -0.1838
12108W        W27239   8.978   5.944  11.978 -0.2729 -0.1050  0.3228
12109W        W27240   7.002   0.236  11.372  0.1492 -0.0760 -0.2278
12110W        W27241  12.052   7.820  13.608  0.0595 -0.1956 -0.1931
12111W        W27242  11.862   6.292   4.765 -0.1915 -0.0192  0.4019
12112W        W27243   9.123  11.972  11.654  0.0012 -0.1949 -0.0510
12113W        W27244  14.274   3.448   2.762 -0.0403  0.1556  0.0032
12114W        W27245   1.108   9.491   0.963 -0.2278 -0.2212  0.0418
12115W        W27246   1.689  15.880  11.660  0.0222  0.0821 -0.2860
12116W        W27247  15.137   8.538  13.427  0.0594 -0.0221 -0.0384
12117W        W27248   2.145  15.679  11.847  0.5821 -0.1287  0.0117
12118W        W27249   1.018  15.242  11.934  0.0478 -0.2318 -0.0478
12119W        W27250  17.425  13.994  12.753 -0.3909  0.1485 -0.0087
12120W        W27251  14.264   4.326  15.294  0.0431  0.0852  0.1756
12121W        W27252   2.689  16.528   4.022  0.0575 -0.2181  0.0093
12122W        W27253   1.375  13.277   2.583  0.0016  0.2358 -0.1282
12123W        W27254   6.439   9.173   5.363  0.1083 -0.1085  0.0521
12124W        W27255   2.185   9.547  14.395  0.1266  0.0129  0.2265
12125W        W27256  18.116  16.981   0.495 -0.0990  0.0274  0.1980
12126W        W27257   4.085  10.662   4.465  0.0081  0.1017  0.2428
12127W        W27258   1.650  17.762  10.327  0.0918  0.1488 -0.1098
12128W        W27259  17.193  15.000   1.474 -0.1135 -0.0690  0.2933
12129W        W27260  17.494   7.685  15.425 -0.0890 -0.1279  0.1629
12130W        W27261   3.715   5.540  11.512 -0.0829  0.1657 -0.1128
12131W        W27262  10.003   5.874  15.006  0.0562  0.1204  0.0290
12132W        W27263  13.265   3.160  14.370 -0.1025 -0.0520 -0.2495
12133W        W27264  10.176   6.799   4.400  0.0150 -0.1665 -0.1200
12134W        W27265   3.052   0.901   1.328  0.4685 -0.0264 -0.1128
12135W        W27266   5.703   5.363   0.341 -0.1719  0.1511 -0.0590
12136W        W27267   1.629  17.037  13.167  0.0201  0.0775  0.0619
12137W        W27268  14.448  18.199  11.172 -0.2236 -0.0403  0.2684
12138W        W27269  11.916   7.503   1.070 -0.3159  0.1281 -0.0177
12139W        W27270   5.285  18.296  13.075  0.0428  0.0209 -0.1080
12140W        W27271  16.237  16.557  12.718 -0.0684  0.1165 -0.2265
12141W        W27272  12.808   8.659  10.984 -0.1687 -0.2512 -0.2368
12142W        W27273   6.494   4.297   0.618 -0.0557  0.0523 -0.1003
12143W        W27274  12.395  17.328  10.695  0.1469 -0.1025  0.1088
12144W        W27275  11.489  14.680  10.832  0.1373  0.0516  0.1135
12145W        W27276   9.472   0.306   5.332  0.0341  0.4719 -0.1431
12146W        W27277   8.168  13.868   3.769 -0.4832 -0.2026  0.0517
12147W        W27278  14.005   7.821   3.174 -0.3478 -0.1588 -0.1337
12148W        W27279  15.838  17.540   4.092 -0.0368 -0.0545  0.1860
12149W        W27280   0.160   3.244   2.163 -0.0781 -0.3939  0.3864
12150W        W27281  12.672   3.303   0.539 -0.0418 -0.0691 -0.2233
12151W        W27282   8.427  18.221   3.693  0.1270  0.2224 -0.0981
12152W        W27283  14.669  11.519  11.273 -0.1182  0.0762  0.4276
12153W        W27284   4.378   8.903  13.202  0.0742  0.2286 -0.1996
12154W        W27285  16.465  10.791   5.474  0.0832  0.2076 -0.1101
12155W        W27286  15.427   1.694   2.508  0.0186  0.2224  0.0810
12156W        W27287   8.103  16.491  12.679  0.0252 -0.0202 -0.0919
12157W        W27288  10.099   5.763  13.890 -0.0441  0.0112 -0.0564
12158W        W27289   0.263  15.186  11.738 -0.1530 -0.1309 -0.1154
12159W        W27290  16.329   6.792   1.676 -0.0657 -0.2689 -0.0477
12160W        W27291  18.099   5.496  14.892  0.1359 -0.1734  0.0306
12161W        W27292   2.060  16.157   1.967 -0.0244 -0.3415  0.0197
12162W        W27293  16.081   2.023   3.839  0.5335  0.2880 -0.1184
12163W        W27294   3.673  15.532   4.433 -0.2010  0.0711  0.0204
12164W        W27295   2.601  11.558  15.013 -0.0036  0.1519 -0.1494
12165W        W27296   9.952  16.709  13.520  0.2302 -0.3012 -0.0795
12166W        W27297   0.278   2.438   4.737 -0.0033  0.4118  0.0661
12167W        W27298  11.163   7.829   3.362  0.1263  0.0431  0.0889
12168W        W27299  12.431  14.326   3.593 -0.0471 -0.1081 -0.0109
12169W        W27300   8.891  17.655   0.579 -0.2633 -0.1237 -0.3489
12170W        W27301   9.600  10.324   2.792 -0.1682  0.0233  0.0506
12171W        W27302  11.085  15.692   4.782 -0.1045  0.0754  0.2451
12172W        W27303  16.894  14.439  15.089  0.0145 -0.2080 -0.0937
12173W        W27304  16.395   6.082  12.780 -0.4373 -0.1564  0.1608
12174W        W27305  10.647  18.205  11.252  0.0164  0.2744 -0.0877
12175W        W27306   2.780  17.256   3.444 -0.1689 -0.1635 -0.5088
12176W        W27307   3.966   3.435   0.925  0.0525  0.0539 -0.0849
12177W        W27308  13.934   4.367  13.125  0.3041  0.1065 -0.1110
12178W        W27309   1.689   9.428   6.424  0.1183  0.1651  0.1937
12179W        W27310   2.738   0.083   4.208  0.0606  0.1119  0.0956
12180W        W27311   7.671  13.082  13.729 -0.2507  0.1024  0.1268
12181W        W27312  10.883   9.734   4.111  0.0346  0.0546  0.4240
12182W        W27313  17.006  14.321   3.249 -0.0867  0.2107 -0.0170
12183W        W27314   8.398  11.806  13.281 -0.0326 -0.0159 -0.0897
12184W        W27315  18.247  17.268  15.118 -0.0763  0.2498 -0.2144
12185W        W27316   3.848  16.773  11.663 -0.2644  0.2043  0.1904
12186W        W27317   1.215   4.255   2.840 -0.0249  0.0404  0.1238
12187W        W27318   2.100   3.506   3.351 -0.1771 -0.1866 -0.2765
12188W        W27319  12.304  13.524  11.316 -0.3007  0.3003  0.2246
12189W        W27320   3.517   3.530   5.332  0.0182 -0.1520 -0.1254
12190W        W27321  17.529   9.043   4.185 -0.1991  0.3698 -0.0895
12191W        W27322   5.752  10.379   4.022  0.2052  0.0794 -0.0311
12192W        W27323  11.534   2.775  11.051  0.0765 -0.0735  0.2218
12193W        W27324  10.731   8.091  10.245  0.0018  0.2912 -0.1077
12194W        W27325   0.478   0.346   1.161 -0.0083  0.0586 -0.2660
12195W        W27326   8.193  10.688   2.434 -0.0489  0.1453 -0.0731
12196W        W27327  11.279  15.031   9.889 -0.0836 -0.3654 -0.0227
12197W        W27328  15.180   0.156  12.065  0.2855  0.1392  0.0422
12198W        W27329   5.346   4.114  13.776 -0.2514  0.0544  0.0127
12199W        W27330   2.925  15.271   3.328 -0.1352 -0.2933 -0.0701
12200W        W27331  15.043   5.858   0.504 -0.2500  0.0277  0.3445
12201W        W27332  16.987   5.261  12.733  0.1193 -0.1846  0.2176
12202W        W27333   0.014   8.691   5.284 -0.2390  0.0080  0.3787
12203W        W27334   7.564  16.004  12.621 -0.2779 -0.0093 -0.2694
12204W        W27335   5.617   2.677   2.834 -0.2634 -0.0789 -0.0499
12205W        W27336   5.607  17.805  13.716  0.1432  0.0242  0.0013
12206W        W27337  15.762  15.822   1.875 -0.0707  0.1508  0.0229
12207W        W27338  13.995   1.563   0.073 -0.0868 -0.0822  0.1279
12208W        W27339  14.765  15.071   5.059  0.0332 -0.1783 -0.2101
12209W        W27340   0.259  17.182   1.389 -0.0469 -0.2528 -0.0640
12210W        W27341  12.473  12.536  11.317  0.1319 -0.2129 -0.0966
12211W        W27342   0.515   7.913   0.078 -0.0211 -0.0736  0.2632
12212W        W27343  17.695   7.904   3.812  0.2973  0.2460 -0.2711
12213W        W27344  11.156   3.285   0.037 -0.1591  0.3877  0.1200
12214W        W27345   3.956   2.358  12.045  0.0443 -0.2457 -0.0809
12215W        W27346  10.010  11.652   0.512  0.1409  0.3036  0.1546
12216W        W27347   0.443   4.288   3.309  0.0139 -0.2464  0.3550
12217W        W27348   1.726   9.242  14.556 -0.1663 -0.1099 -0.0711
12218W        W27349   0.097  12.695   0.181 -0.1297 -0.0769  0.2490
12219W        W27350  16.502  17.175  13.272  0.0191 -0.0189 -0.4850
12220W        W27351   4.143   1.764   0.598 -0.0582 -0.3505  0.1251
12221W        W27352  16.110   2.441  15.202 -0.0559  0.2173  0.3375
12222W        W27353   6.073   2.314   0.271 -0.2462  0.0889 -0.0038
12223W        W27354   5.159   9.270   1.965 -0.2134 -0.2242 -0.0371
12224W        W27355  12.930   9.207  14.639  0.0935  0.1666 -0.0817
12225W        W27356   9.055   4.339   3.684  0.1761  0.1314  0.0837
12226W        W27357  10.494  15.060  10.210 -0.2460 -0.1022  0.1927
12227W        W27358   3.148  12.484   5.125 -0.1577 -0.2986  0.0874
12228W        W27359   2.996   5.308   3.793  0.0599 -0.0875 -0.0635
12229W        W27360   9.714   0.783  13.965 -0.1645 -0.0442 -0.0774
12230W        W27361   5.750   3.771  10.682  0.0277  0.0838  0.0348
12231W        W27362  11.911  11.337  14.811 -0.2355 -0.2770  0.3471
12232W        W27363   6.265   9.992  12.054  0.2619  0.1864  0.0092
12233W        W27364   5.098  16.898   4.874 -0.0252 -0.0789 -0.1107
12234W        W27365  14.835   7.582   3.271 -0.2613  0.1515 -0.0558
12235W        W27366   5.671  11.655  10.095  0.1249  0.1275 -0.1486
12236W        W27367   8.254   1.064   3.585  0.2710 -0.0392  0.3739
12237W        W27368   0.590   1.194   2.620  0.0226 -0.2770 -0.1046
12238W        W27369  10.220   3.847  12.113 -0.2932  0.1521  0.0426
12239W        W27370   8.313  11.298  13.216  0.1098 -0.1112 -0.1853
12240W        W27371  15.512   9.469   1.639 -0.1279 -0.3154 -0.1499
12241W        W27372  14.967   2.174  10.383  0.0164 -0.0728 -0.3044
12242W        W27373   9.551  15.778  13.037  0.3138 -0.1936 -0.2681
12243W        W27374   9.897  11.793  11.504 -0.0544  0.2182  0.2244
12244W        W27375   5.946  13.923  16.009 -0.2914 -0.0045  0.1152
12245W        W27376   9.140  17.629   5.361  0.0134 -0.0099  0.0617
12246W        W27377   7.417   4.868   0.684  0.2043 -0.0924 -0.0463
12247W        W27378   7.040   2.894  14.691 -0.0463  0.1492 -0.1159
12248W        W27379   3.484   2.286  16.057  0.1648 -0.3099 -0.2531
12249W        W27380   6.565  10.184   2.206 -0.1625  0.1547 -0.1931
12250W        W27381  11.757  10.155   0.600  0.3050 -0.3146 -0.1548
12251W        W27382  17.017   6.460   1.861 -0.0931 -0.2835 -0.2006
12252W        W27383   6.639   6.076   0.214  0.0633  0.1402  0.0555
12253W        W27384  13.763   6.104  10.954 -0.1472 -0.0272 -0.2579
12254W        W27385  16.381  17.683   1.912 -0.0314 -0.0979  0.2498
12255W        W27386  13.161   4.579  11.769 -0.1358  0.0556 -0.1708
12256W        W27387  12.429   8.355   3.246 -0.0360  0.0100 -0.0884
12257W        W27388   0.074   9.283  13.075  0.0094  0.0654  0.1816
12258W        W27389   1.084   6.259   0.418  0.0852 -0.1344 -0.1415
12259W        W27390  14.921  16.490  11.274 -0.0244 -0.1580 -0.1277
12260W        W27391   3.624   3.090  10.917 -0.1171 -0.5069 -0.0683
12261W        W27392   3.413   2.957  15.598  0.4538  0.0782 -0.2454
12262W        W27393  14.189   0.238   2.164 -0.1637  0.3701 -0.0459
12263W        W27394   4.269   5.729   3.100  0.0766  0.1189  0.3670
12264W        W27395   1.087   6.761   3.445 -0.1847  0.1097 -0.0850
12265W        W27396   0.992   0.183  15.195  0.0269 -0.1049 -0.0848
12266W        W27397   6.810   5.344  12.277 -0.0857  0.2400 -0.1128
12267W        W27398   0.308  14.013  15.487  0.1454  0.0272  0.0657
12268W        W27399  17.752   1.837   2.257  0.4170  0.0566 -0.0229
12269W        W27400   0.889   0.100   4.222  0.0862  0.2336 -0.1843
12270W        W27401   8.038  14.092   1.682 -0.1132 -0.5961 -0.3143
12271W        W27402  16.173  10.618  11.396  0.1439 -0.0520  0.1401
12272W        W27403   7.925   2.689   4.795 -0.1855  0.1539 -0.1529
12273W        W27404  15.802  13.382  13.483 -0.2276 -0.1531  0.0260
12274W        W27405   9.638   6.374   4.057  0.2271  0.2063  0.5231
12275W        W27406  10.809  14.609   1.617  0.2739 -0.1239  0.1507
12276W        W27407   6.414   0.288  14.952  0.2446 -0.1104 -0.2841
12277W        W27408  15.819  17.465   4.618  0.2870  0.0064  0.0524
12278W        W27409  15.953   4.380   5.215  0.2637  0.2588 -0.3887
12279W        W27410   2.893   1.040   4.091 -0.0029 -0.1704  0.0749
12280W        W27411  15.584   4.203   0.580  0.3246 -0.3127 -0.1373
12281W        W27412   7.950   6.799   3.737 -0.1007  0.4608  0.0675
12282W        W27413  11.584  10.392   4.332 -0.1008  0.0939 -0.4255
12283W        W27414  13.196  15.121  14.193  0.0909  0.1811 -0.0709
12284W        W27415   0.716  12.738  13.131  0.1231  0.1186  0.2124
12285W        W27416   6.418  12.211   3.337  0.4301  0.1753 -0.0856
12286W        W27417   6.600  12.614   5.318 -0.1657  0.2875  0.1728
12287W        W27418   7.984  15.611  12.725  0.0389  0.2430 -0.0130
12288W        W27419   4.086   7.990   4.581  0.2620  0.0634  0.1298
12289W        W27420   6.494  17.930  10.502 -0.0721  0.0564  0.0269
12290W        W27421  15.011  10.419   2.717  0.2427 -0.1727  0.1498
12291W        W27422   9.780  17.669  15.766 -0.0179 -0.3893  0.1517
12292W        W27423   6.974   3.585   5.499  0.3044 -0.0911  0.1196
12293W        W27424   1.769  10.452   0.044  0.2117 -0.0653 -0.0335
12294W        W27425  15.100  15.163  12.241  0.2307  0.0241  0.0280
12295W        W27426   9.082  13.796   3.286 -0.0698  0.1866 -0.1014
12296W        W27427  17.955  15.775  12.410 -0.1008  0.4032  0.1282
12297W        W27428   2.259  17.298   3.379  0.1253  0.0493  0.0018
12298W        W27429   3.597   5.384   5.003  0.0633 -0.4133 -0.2210
12299W        W27430  12.759   1.519  14.784 -0.1841  0.1336 -0.0741
12300W        W27431  17.859  13.638  12.829  0.0299 -0.0177  0.1334
12301W        W27432  12.370   2.143   1.449 -0.0564 -0.2188  0.1359
12302W        W27433   9.301   4.333   1.511  0.3819 -0.0009 -0.0160
12303W        W27434  12.336   0.265  12.687 -0.0402 -0.1675 -0.1791
12304W        W27435   2.501   6.168  11.100 -0.0068  0.0191  0.1449
12305W        W27436  11.261   2.642   0.310 -0.0902 -0.1752 -0.2557
12306W        W27437   2.545  14.226  11.506  0.0096  0.2574 -0.2081
12307W        W27438   5.134   8.466  15.513  0.1254  0.3673  0.0551
12308W        W27439  12.678  17.805  15.520  0.2264  0.0014 -0.0733
12309W        W27440  15.674   0.368  11.428 -0.1001  0.0710  0.1126
12310W        W27441   9.769   1.127   2.949  0.1462  0.1068  0.0740
12311W        W27442   3.492   5.270   3.278 -0.1562  0.2413  0.2503
12312W        W27443   8.699   3.022  11.697  0.2123 -0.2024  0.0005
12313W        W27444   6.192  17.621   3.109 -0.0314 -0.0078  0.1890
12314W        W27445  17.802   5.260   0.449  0.1639  0.2191  0.2075
12315W        W27446  17.779   3.721   2.446 -0.3185  0.0199  0.1119
12316W        W27447  12.668   5.725   2.435  0.0779  0.1464  0.2259
12317W        W27448   3.404  12.571   2.502 -0.1767  0.2133  0.2061
12318W        W27449  17.783  11.102  13.738 -0.4337 -0.2316 -0.0538
12319W        W27450   3.226   3.277  13.730 -0.0955  0.0635 -0.1811
12320W        W27451  15.033  17.671   2.566 -0.1932  0.3352 -0.0402
12321W        W27452   7.498   6.252   5.298  0.1454 -0.1585  0.3040
12322W        W27453   9.047   1.007   3.288  0.2780  0.1422  0.0629
12323W        W27454  11.573  16.948   4.237  0.0731  0.2977 -0.2956
12324W        W27455  16.278   8.789  11.052 -0.0456 -0.0579 -0.0805
12325W        W27456  12.832   3.020   1.613  0.1647  0.3089 -0.2827
12326W        W27457   0.585   4.373  11.922  0.0635  0.1473 -0.0670
12327W        W27458   3.268  11.266  10.830  0.2490  0.0320 -0.0748
12328W        W27459   3.142   3.854   0.279  0.0685  0.1847 -0.2259
12329W        W27460  16.634  15.564  11.386 -0.0087 -0.0761 -0.0458
12330W        W27461   8.769  12.985  10.471  0.1293  0.1769  0.0341
12331W        W27462   9.191   3.689   2.100 -0.4207  0.0416 -0.0231
12332W        W27463  12.762   5.152   0.283 -0.1380  0.2113  0.0675
12333W        W27464  17.175  17.190   3.829  0.3388 -0.0203 -0.0026
12334W        W27465  13.601   6.681   2.033  0.0296  0.2434  0.3523
12335W        W27466  17.447   3.227  13.995 -0.2168  0.0898 -0.2045
12336W        W27467  11.028  14.110   4.483  0.0421  0.3168  0.1531
12337W        W27468   7.464   4.533   3.379  0.1328 -0.0865 -0.1112
12338W        W27469   9.866  11.005   2.264  0.1003 -0.0266 -0.2616
12339W        W27470   6.062  17.223  13.027 -0.1664  0.0455 -0.3479
12340W        W27471   6.135  17.407  14.441  0.0100  0.2680  0.0665
12341W        W27472  13.786   8.296  15.735 -0.1545 -0.0666  0.0298
12342W        W27473   4.074  10.852  12.127  0.1073  0.1052  0.2691
12343W        W27474  11.211  17.423   0.282 -0.1579 -0.2587 -0.0488
12344W        W27475  16.490   8.429  11.375  0.0641 -0.0258 -0.0817
12345W        W27476   1.466   1.223   5.582  0.1268 -0.3225  0.1591
12346W        W27477  15.173   6.795   0.879 -0.1998  0.1524 -0.1161
12347W        W27478  17.632  12.237   0.276  0.1215  0.0841 -0.0108
12348W        W27479   9.425   6.246  15.988  0.2347  0.1997  0.1577
12349W        W27480   0.628   3.481  12.513 -0.2397 -0.2534 -0.2271
12350W        W27481   2.546   7.922  12.544 -0.1493  0.0918 -0.3505
12351W        W27482   3.677  17.249   1.200 -0.0079 -0.0838 -0.0357
12352W        W27483   4.797   3.258  13.944  0.2790 -0.0920 -0.2406
12353W        W27484   8.883   8.125  13.105  0.0244 -0.0803 -0.3538
12354W        W27485   4.735   9.086   3.983 -0.0754  0.2523 -0.1617
12355W        W27486   4.574  12.192  15.943 -0.0285  0.3508 -0.2984
12356W        W27487  17.391  13.229   3.091 -0.1885  0.0454 -0.1415
12357W        W27488   3.816  18.004   0.490  0.0586  0.1315 -0.1389
12358W        W27489  17.935   1.203   1.547  0.0019 -0.0948 -0.1923
12359W        W27490   4.514  17.622  11.065 -0.0521 -0.1103  0.1086
12360W        W27491  17.261  15.277   4.706  0.2006  0.0780  0.2046
12361W        W27492   6.568   9.627  14.106  0.1458 -0.0804  0.5372
12362W        W27493  17.306  17.810   0.126  0.0025 -0.0763  0.0321
12363W        W27494   8.637   9.649   5.105  0.0549 -0.1555 -0.1235
12364W        W27495   1.556  13.976  15.124  0.3084  0.1839 -0.0141
12365W        W27496  17.952   9.252  11.209  0.5598 -0.1827 -0.2454
12366W        W27497  16.951  16.273   2.503  0.1810 -0.0862  0.2579
12367W        W27498   1.266   4.133   6.094  0.0392  0.2026 -0.0222
12368W        W27499  17.167  14.521  15.952 -0.0190  0.1995  0.0195
12369W        W27500  14.139   8.384  13.113 -0.3091 -0.0387 -0.0257
12370W        W27501  13.941   5.774   3.098  0.0543 -0.2002  0.0530
12371W        W27502   4.830  13.417  15.532  0.0844  0.1270  0.1236
12372W        W27503  16.271  14.822   0.037  0.0539 -0.2075  0.4381
12373W        W27504  10.815   9.743  10.695 -0.0838 -0.0300 -0.0027
12374W        W27505   3.863  10.661  14.325  0.1965 -0.0638 -0.0562
12375W        W27506  12.844   4.648   1.792  0.1029 -0.1203 -0.0249
12376W        W27507   4.497   1.721  13.016 -0.1225 -0.1507  0.0981
12377W        W27508   1.904  13.612  15.020 -0.0734 -0.0160 -0.0459
12378W        W27509  16.854  10.139  12.200 -0.1829  0.1255  0.2753
12379W        W27510   5.877   9.764   3.768 -0.0371 -0.2143  0.2202
12380W        W27511  13.141  15.326  15.283  0.2380  0.2877 -0.1096
12381W        W27512  13.514  16.722  13.642  0.0086  0.1204 -0.0905
12382W        W27513   8.652   1.199   0.563  0.2892 -0.0046 -0.0682
12383W        W27514   9.974   1.166   2.456 -0.0259  0.3890  0.1408
12384W        W27515   0.431  14.952  13.050  0.0387 -0.3428  0.0737
12385W        W27516  13.136  13.095   2.703 -0.0565  0.1078  0.0390
12386W        W27517   0.524   3.341   5.369 -0.4356 -0.1099 -0.2257
12387W        W27518  13.853   0.109   0.791  0.2840  0.0752 -0.1682
12388W        W27519   1.884   0.121   6.036 -0.0830 -0.3821 -0.1536
12389W        W27520   1.321   4.726  12.421 -0.4286  0.0387 -0.1520
12390W        W27521  13.817  14.022  15.687  0.1765 -0.0888  0.1281
12391W        W27522   1.357  13.374  10.254 -0.5302 -0.3696 -0.0461
12392W        W27523  14.201   7.461  14.679 -0.0762  0.0915  0.1117
12393W        W27524  11.538  13.331  10.680  0.4328  0.2695 -0.0541
12394W        W27525  18.330   1.410   3.360 -0.1265  0.0173 -0.1514
12395W        W27526   1.243   5.693  15.254  0.0627 -0.1902  0.0114
12396W        W27527   2.004   8.366   5.059 -0.0704 -0.1621  0.0123
12397W        W27528  17.603  10.359  14.840  0.2386  0.3370 -0.0446
12398W        W27529   8.375   4.746  11.930 -0.2174 -0.1432  0.2443
12399W        W27530  18.318   2.924  14.078  0.0370 -0.0511 -0.3516
12400W        W27531  10.139  13.931   2.208 -0.0008  0.0161 -0.0306
12401W        W27532   6.431   0.893  13.313 -0.1873 -0.0709 -0.0500
12402W        W27533  17.198  16.306  14.670 -0.1621 -0.1950  0.1306
12403W        W27534  13.195  13.614   2.539  0.1312  0.4168  0.0650
12404W        W27535   1.440   0.916  11.779 -0.2893 -0.0179  0.4017
12405W        W27536   6.117  12.242   0.342 -0.1837  0.2286  0.1097
12406W        W27537  12.307   9.787  14.103 -0.0287  0.0539  0.3781
12407W        W27538  10.979   9.248  15.384 -0.2369 -0.1901  0.3476
12408W        W27539   7.339   5.373  11.194  0.1654 -0.3105  0.0099
12409W        W27540   8.457   3.612  15.142  0.2680  0.1121 -0.0948
12410W        W27541  11.288   2.325  11.215  0.3449 -0.3006  0.0506
12411W        W27542   9.526   8.175   1.640  0.0194  0.1083 -0.0360
12412W        W27543   8.659   2.511   1.742  0.2837 -0.1171  0.1450
12413W        W27544  14.444   3.570   5.930  0.3566 -0.0073 -0.0913
12414W        W27545   6.927  14.202   1.808  0.3393  0.4026  0.0944
12415W        W27546   0.629  11.511   6.133 -0.1484  0.2650  0.0737
12416W        W27547  13.212  10.415   3.133  0.3030 -0.0126 -0.1913
12417W        W27548  15.046   1.222   2.333  0.0702  0.2131 -0.2624
12418W        W27549  12.594  17.986   2.512  0.2056  0.1154  0.4524
12419W        W27550  16.474   5.891  11.202 -0.3356 -0.0592 -0.2351
12420W        W27551  15.788   1.656  10.156  0.0981 -0.1033 -0.0177
12421W        W27552   0.191   9.759   0.591  0.0454 -0.1950  0.2954
12422W        W27553   2.144  14.801   2.206  0.1185  0.0109  0.3363
12423W        W27554  11.726   8.644  11.652  0.0807 -0.0361  0.3616
12424W        W27555  15.609  17.219   5.116 -0.1702  0.0986 -0.1138
12425W        W27556  12.813   9.519   2.508  0.1530 -0.0426 -0.1083
12426W        W27557   2.466   7.863   3.283  0.0695 -0.1309 -0.0599
12427W        W27558   3.958   6.502   2.179 -0.2401 -0.0643  0.2543
12428W        W27559   2.450  17.478   4.385 -0.0603 -0.1499  0.1107
12429W        W27560  15.613   7.593   2.261  0.1935  0.3095 -0.2756
12430W        W27561  16.770  14.841  14.825 -0.3323 -0.1314 -0.2294
12431W        W27562   0.363   1.727   1.869 -0.0898 -0.0673 -0.1121
12432W        W27563  14.414   5.918  12.156  0.1505  0.2213  0.0331
12433W        W27564  11.761   3.149   1.810 -0.1787 -0.2431  0.3371
12434W        W27565  17.348  11.456  14.860  0.0851 -0.2833  0.2333
12435W        W27566  11.682   1.703  12.752 -0.1975 -0.4384 -0.2119
12436W        W27567  12.883  13.398  15.836 -0.3953  0.0884 -0.1368
12437W        W27568  10.848   2.125   9.696 -0.3834  0.0205  0.1391
12438W        W27569   9.527   1.526  15.763 -0.0694 -0.0289 -0.4284
12439W        W27570   1.039   2.514   2.289  0.1186  0.0335 -0.1158
12440W        W27571   9.904   0.386  14.460  0.2641 -0.0037  0.0964
12441W        W27572   5.499  12.786  13.922 -0.3417  0.0548  0.2198
12442W        W27573   6.605  14.487   3.809 -0.0170 -0.1561  0.1702
12443W        W27574   4.785   7.952   3.692  0.0061 -0.0256  0.1126
12444W        W27575  10.210   7.989  10.152  0.2030  0.1681  0.0911
12445W        W27576  10.077   5.797   3.913  0.2087 -0.0014 -0.0073
12446W        W27577  12.453   6.981   4.677  0.1774 -0.0837  0.0757
12447W        W27578   5.474  17.059  16.090  0.0815  0.0223  0.2511
12448W        W27579   9.879  12.788   0.577  0.0488 -0.1507  0.1153
12449W        W27580  14.470   7.852  14.915 -0.1861 -0.1230  0.3712
12450W        W27581   1.900   9.729   1.459 -0.0532  0.0420  0.3273
12451W        W27582  15.598   8.825   0.337  0.0892  0.2170 -0.1633
12452W        W27583   7.890  15.135  12.603  0.2464  0.1217 -0.1530
12453W        W27584  14.574   5.721   0.272  0.0018 -0.1551 -0.2919
12454W        W27585  16.509   4.168   1.266 -0.1281  0.1969  0.1559
12455W        W27586   4.861   2.729  14.011 -0.1460 -0.0207  0.2397
12456W        W27587  10.381  10.758   1.224 -0.2032  0.1700 -0.0836
12457W        W27588   7.571   2.429  12.805 -0.0869  0.0854 -0.1249
12458W        W27589   6.246   5.814  13.393  0.0452  0.0192  0.3057
12459W        W27590   0.097  13.277  14.439  0.1097 -0.1908  0.3010
12460W        W27591  13.303   9.651  11.757  0.0357 -0.0438 -0.0241
12461W        W27592  16.559   6.106  12.196  0.1502 -0.2290 -0.0811
12462W        W27593  12.012   6.752   6.112 -0.0430 -0.0584 -0.1863
12463W        W27594  14.055   8.099  13.956  0.2061  0.0619 -0.0356
12464W        W27595   7.266   9.707  12.915 -0.2724 -0.1542  0.1113
12465W        W27596   9.808  12.964   2.675 -0.1220 -0.1251  0.0416
12466W        W27597  17.481   6.203   2.081 -0.1791 -0.0586  0.0096
12467W        W27598  10.459   8.136   5.547 -0.1562  0.2120  0.1803
12468W        W27599  14.559   7.950  13.889 -0.2322 -0.2151  0.0523
12469W        W27600   5.416  14.731   1.187  0.1197  0.0319 -0.0099
12470W        W27601   7.653   8.527  12.638  0.0207  0.3147 -0.1120
12471W        W27602  15.080  16.921  11.506 -0.0236 -0.0659 -0.1433
12472W        W27603   8.618   2.781  16.021  0.0735 -0.0790 -0.2222
12473W        W27604   2.665   4.481  13.301  0.0172  0.4606 -0.2762
12474W        W27605  14.750  13.738   5.056 -0.0120 -0.0818 -0.1309
12475W        W27606  12.940   4.814   4.347 -0.0145 -0.2319  0.1402
12476W        W27607   6.717  15.457   2.433 -0.3967 -0.0073  0.4910
12477W        W27608  16.149  13.031  14.907 -0.0779 -0.0018 -0.1523
12478W        W27609   9.812  13.797   4.551 -0.4339  0.2266 -0.1844
12479W        W27610   9.872   2.397  10.336  0.2268  0.3732  0.0991
12480W        W27611   4.720  17.880   0.116  0.0980  0.0161  0.0787
12481W        W27612   1.528  16.253  12.775 -0.0356 -0.0191 -0.0083
12482W        W27613  15.110   4.149  13.373  0.2214 -0.0440 -0.2850
12483W        W27614  17.142  17.304   5.177  0.0829  0.2249 -0.1141
12484W        W27615  16.190  14.673   0.517 -0.0110  0.0706 -0.0213
12485W        W27616  16.072   2.138   5.266 -0.0016 -0.0009  0.0712
12486W        W27617  13.868  18.076  10.511 -0.2464  0.1353  0.0250
12487W        W27618   5.434   7.888   4.211  0.0967 -0.1096 -0.1423
12488W        W27619  10.947   7.135  11.408 -0.0624  0.0494 -0.0075
12489W        W27620   1.262   5.328   9.840  0.2603 -0.1176  0.2234
12490W        W27621  11.142   4.835   3.940  0.1684  0.3196 -0.0962
12491W        W27622   7.213   2.396  11.924 -0.2447  0.2962 -0.0668
12492W        W27623   8.184  10.317  11.113 -0.1384 -0.0352  0.0799
12493W        W27624   8.330   3.372   3.080 -0.1093 -0.0342  0.2818
12494W        W27625   8.785   8.317  13.629 -0.0729  0.1648 -0.0264
12495W        W27626   6.980   4.934   0.997 -0.1304 -0.2323  0.0543
12496W        W27627  12.661  16.013  10.810  0.1959  0.0365 -0.2735
12497W        W27628  14.641  12.062  15.161 -0.1382 -0.0620 -0.1578
12498W        W27629  17.721   0.777   4.306 -0.0250 -0.2003  0.0947
12499W        W27630   2.056   3.879  15.295 -0.2482 -0.0554  0.1195
12500W        W27631   2.505  10.948  14.069 -0.1220  0.2032  0.0386
12501W        W27632   4.800   5.275   3.326 -0.3980  0.2161  0.1822
12502W        W27633   1.710  17.059  14.492  0.1472  0.1451 -0.0500
12503W        W27634   0.829  13.675  14.670  0.1545 -0.1217  0.0096
12504W        W27635   4.039   4.425  12.907 -0.1553  0.1222 -0.0035
12505W        W27636   6.509   9.284  11.272  0.0870  0.1641 -0.1535
12506W        W27637  13.293   5.500  12.805  0.0833  0.1782  0.0488
12507W        W27638  10.223  16.608   2.073 -0.1308  0.0967  0.0372
12508W        W27639   0.266  10.669  11.209 -0.2814 -0.3169 -0.1559
12509W        W27640   1.154   4.685   6.099  0.3067 -0.2211  0.2238
12510W        W27641  12.519   2.132  13.633  0.1534  0.0230  0.2294
12511W        W27642   6.177   1.214   3.251 -0.2709  0.1830 -0.0805
12512W        W27643   5.609   4.119   0.761  0.1212  0.1112  0.1979
12513W        W27644   6.791   6.654  15.425 -0.0333  0.0376 -0.0239
12514W        W27645   1.754   3.281   1.221  0.0217 -0.1499  0.0911
12515W        W27646   3.376  11.856   3.161  0.2831  0.0978  0.2209
12516W        W27647  14.641  11.348   2.534 -0.3085 -0.0459  0.2602
12517W        W27648   4.849   5.409  11.476  0.0038 -0.1091 -0.0569
12518W        W27649   0.683  18.133   3.883  0.0878  0.0622 -0.2165
12519W        W27650  11.594   4.779   0.674  0.1475 -0.2298  0.0336
12520W        W27651  15.537   4.073   1.173 -0.1676 -0.2951  0.1564
12521W        W27652  12.065   9.443  16.050  0.1649 -0.0340  0.0512
12522W        W27653  17.242  10.454   2.743  0.2376 -0.0197 -0.0314
12523W        W27654   3.856   0.892  15.373 -0.2944  0.0523 -0.0187
12524W        W27655   9.640   4.406   4.238 -0.1028 -0.0728  0.1039
12525W        W27656  14.014  17.026  15.362  0.1081  0.3178 -0.1074
12526W        W27657  11.270  17.327  14.989 -0.2752  0.2578  0.4651
12527W        W27658  17.161   0.618  15.706  0.0288 -0.2867  0.1769
12528W        W27659   3.551  16.570   5.015 -0.2066  0.1122 -0.1287
12529W        W27660   8.163  15.952   4.759  0.2071 -0.0981  0.0416
12530W        W27661  15.581  12.249  10.341  0.1379 -0.4191 -0.0942
12531W        W27662   9.961  14.076   4.187 -0.1031  0.3540  0.2043
12532W        W27663   5.099   0.419  13.045  0.1778 -0.0582  0.1266
12533W        W27664   6.166   4.973   1.503  0.4179  0.0687 -0.4702
12534W        W27665  12.032   5.558   0.989 -0.3636  0.1078 -0.2883
12535W        W27666   4.028   1.237   4.057 -0.1354 -0.0528 -0.1714
12536W        W27667   4.589   4.007  14.619 -0.0926  0.0211  0.0622
12537W        W27668   0.257   0.766  12.151  0.1100  0.0737  0.2161
12538W        W27669   8.273  12.403   0.089  0.1002 -0.0070 -0.1823
12539W        W27670   5.497  18.168   4.738 -0.0921 -0.1227  0.3083
12540W        W27671  14.048  17.852   0.467 -0.2763 -0.1466  0.0836
12541W        W27672  17.220   1.034  14.447 -0.1131 -0.0506  0.4062
12542W        W27673   6.672   7.779  11.801 -0.2160 -0.0418 -0.4379
12543W        W27674   1.024   7.287   3.258 -0.1781  0.1487  0.2509
12544W        W27675   1.687  10.349   5.140 -0.3786  0.0147 -0.1353
12545W        W27676  12.875   7.655   0.150 -0.1033  0.0066 -0.0963
12546W        W27677  15.274  16.552   1.301  0.2001 -0.0603  0.2805
12547W        W27678  11.471   3.791  13.268  0.1517 -0.1008 -0.0229
12548W        W27679  15.181   6.474   5.649  0.2461  0.1127 -0.1356
12549W        W27680   5.580   8.535  15.143  0.1627 -0.0645  0.3553
12550W        W27681  14.903  14.424   0.865 -0.1616 -0.0828  0.0194
12551W        W27682  11.932   8.769  13.248 -0.0200  0.0249 -0.1567
12552W        W27683  13.499   9.137  12.007  0.0865 -0.3331  0.3382
12553W        W27684   6.073   0.411  11.820 -0.2741  0.4066 -0.0545
12554W        W27685   9.888   1.773  14.843  0.1014 -0.0138  0.2877
12555W        W27686  12.290  13.031   0.031  0.0891 -0.2669  0.3685
12556W        W27687   8.761   3.767  11.860  0.0702 -0.3244 -0.0177
12557W        W27688   6.590  15.467  15.187  0.0954 -0.2585 -0.0746
12558W        W27689   0.880  16.225   0.305 -0.0169  0.0277 -0.0002
12559W        W27690  10.062   5.548  11.878 -0.3917 -0.4198 -0.0348
12560W        W27691  12.782  14.818  13.257  0.2011 -0.1313 -0.0593
12561W        W27692   1.382   1.506  11.747 -0.0861  0.1650  0.1952
12562W        W27693   7.759   8.313  14.890  0.0939 -0.4332  0.0239
12563W        W27694  15.932   5.494   5.086  0.0782  0.1071 -0.1075
12564W        W27695   4.963  11.390   1.910  0.0020 -0.0462  0.0160
12565W        W27696  16.510   7.809  16.094  0.1260  0.0749  0.3266
12566W        W27697   3.027  10.532   3.151  0.2580 -0.2081  0.2213
12567W        W27698  11.058  12.698   0.832 -0.1817  0.0282 -0.0842
12568W        W27699  17.890   5.910   3.646  0.1580  0.0473 -0.1954
12569W        W27700   6.285   6.489  14.455 -0.1305  0.0873  0.3918
12570W        W27701   4.179   7.300   0.175  0.0031  0.1589 -0.0180
12571W        W27702  10.882   5.431   1.089 -0.0015 -0.3983  0.0650
12572W        W27703   3.414  13.733  14.007  0.0150  0.0115 -0.0632
12573W        W27704  16.112   3.574   0.513 -0.0253  0.1964 -0.1340
12574W        W27705   5.071  16.620  12.516  0.0120  0.0906  0.0418
12575W        W27706   7.944  11.128  14.181  0.3230 -0.1449  0.2167
12576W        W27707   2.356   1.612   1.725  0.0908 -0.1766 -0.2254
12577W        W27708   6.924   5.869  16.014 -0.1955 -0.3360  0.0516
12578W        W27709   3.732   7.987   1.650  0.0628  0.1712 -0.1097
12579W        W27710  18.224  14.414   2.785 -0.2702 -0.1790  0.3841
12580W        W27711  13.640   7.856  10.370 -0.0396 -0.3793  0.1927
12581W        W27712  10.950   7.531   3.684 -0.6025  0.1601  0.0724
12582W        W27713   6.094   5.684   5.321  0.1191  0.2949 -0.1655
12583W        W27714  14.695  14.436  10.667 -0.2008 -0.0793  0.1374
12584W        W27715  15.677   0.914   4.983  0.2606  0.1050 -0.2771
12585W        W27716   8.257   7.591   0.788 -0.0069 -0.0647 -0.4849
12586W        W27717   2.124   0.325  13.479 -0.0261  0.1370  0.0384
12587W        W27718   2.634   4.153  15.393  0.1923  0.4816  0.0454
12588W        W27719   2.265  14.993  13.198 -0.1277 -0.0925  0.1079
12589W        W27720   7.887   1.902  12.010  0.0041  0.0110  0.0406
12590W        W27721  13.033   0.433  15.516 -0.2345  0.1329  0.4504
12591W        W27722  15.415  11.807  15.797 -0.1799 -0.0566 -0.0224
12592W        W27723  16.746  16.375  12.644 -0.1038 -0.1496 -0.1362
12593W        W27724   9.344   1.124  12.935  0.1269  0.0094  0.0989
12594W        W27725   4.746   0.984   3.409  0.0083  0.1711 -0.0570
12595W        W27726   1.398  13.644  15.961 -0.2445 -0.3283  0.2601
12596W        W27727  16.853  11.341   0.871 -0.1801 -0.0771  0.1540
12597W        W27728   9.430  13.356   3.820  0.2753 -0.0059  0.0338
12598W        W27729  18.115  12.125   4.726 -0.2452  0.0906  0.1946
12599W        W27730  17.133   2.970   1.705  0.0367  0.0468 -0.0757
12600W        W27731  16.121  12.375  11.650 -0.0208 -0.2026 -0.0343
12601W        W27732  10.892  14.776   2.581 -0.1760  0.6106  0.2437
12602W        W27733   0.430  16.950   2.258 -0.0131 -0.0585  0.0566
12603W        W27734  15.128   9.395  10.715  0.3199  0.0945  0.1927
12604W        W27735   8.171   8.234  15.676  0.0872 -0.1490 -0.0333
12605W        W27736   9.307  13.120  11.266  0.0109  0.0669  0.0872
12606W        W27737   9.655  10.719  11.752  0.2111  0.1665  0.1405
12607W        W27738   9.028  13.019   5.149  0.3053  0.0381  0.0439
12608W        W27739   1.939   6.948  12.440  0.3828  0.1244  0.1338
12609W        W27740   0.705   6.981  15.377 -0.0171 -0.1271  0.1112
12610W        W27741   3.249  13.851  14.574 -0.0687 -0.1187 -0.1458
12611W        W27742  13.890   6.665  14.126 -0.0295  0.3402  0.1118
12612W        W27743   7.822   6.577  15.779  0.3427  0.0417  0.1551
12613W        W27744   7.891   3.127   4.504  0.0565  0.0588 -0.1544
12614W        W27745  17.358  10.477  12.824 -0.1155  0.0201 -0.3004
12615W        W27746  11.881   0.961   3.820 -0.0393 -0.1343  0.1432
12616W        W27747   1.114   9.789   5.406  0.3255 -0.1475  0.0374
12617W        W27748  16.132  13.774  13.520  0.1278 -0.1475  0.0123
12618W        W27749  11.111   8.387  14.639  0.0919  0.3495 -0.0409
12619W        W27750  15.128  16.452   4.146  0.0877  0.2301 -0.1551
12620W        W27751  10.397  11.286   5.369  0.0574 -0.0686 -0.2170
12621W        W27752  12.231  10.065   0.038  0.1170  0.2043  0.2068
12622W        W27753   9.798  13.202  11.079 -0.0455 -0.2785  0.0929
12623W        W27754   8.904   3.427   3.024  0.0698 -0.0952  0.1551
12624W        W27755  14.063  17.623   2.612  0.1845  0.4632 -0.1148
12625W        W27756   5.442  13.576  14.365 -0.0673  0.0870 -0.0450
12626W        W27757   6.596   3.560   3.694  0.1498  0.3522 -0.0718
12627W        W27758   4.787   7.666  15.483 -0.0475 -0.0849 -0.0405
12628W        W27759   8.630   7.595   9.958  0.2895  0.1853 -0.2706
12629W        W27760   7.206  10.021  14.183 -0.0283 -0.0656  0.0002
12630W        W27761   7.546  14.961   1.338  0.0978  0.0276  0.1275
12631W        W27762  13.390   5.109  13.137  0.0165 -0.2821 -0.2673
12632W        W27763   5.348   9.224  13.173  0.1683  0.1661  0.0699
12633W        W27764  12.474  14.045   1.582  0.0565 -0.2120 -0.2348
12634W        W27765   3.015   7.379  15.367 -0.2224 -0.0883 -0.0268
12635W        W27766  16.573   1.238   4.518 -0.1046 -0.2290 -0.3064
12636W        W27767  13.985  12.391   0.764 -0.2635  0.3998  0.5560
12637W        W27768   3.622   3.919  15.650 -0.2864 -0.2979 -0.0471
12638W        W27769  14.470  11.081   4.154  0.4166  0.0905  0.0812
12639W        W27770  18.093  13.135  15.549  0.0223  0.1861 -0.0166
12640W        W27771  17.761  14.003  14.425 -0.0135  0.2025  0.0418
12641W        W27772  10.627  15.891   2.612 -0.1872 -0.2665  0.1285
12642W        W27773   8.248   1.984  10.100 -0.0168  0.1184  0.4979
12643W        W27774  11.378   1.025  15.964  0.1869 -0.1114  0.0318
12644W        W27775   1.718  15.894   0.860  0.0445 -0.0051  0.4343
12645W        W27776   3.880  12.897   0.194 -0.1910  0.0465 -0.0138
12646W        W27777   4.332  12.018  11.668 -0.2713  0.2995 -0.0874
12647W        W27778   3.740  17.689   2.089  0.1900  0.1629  0.0766
12648W        W27779  12.474   1.760  13.988 -0.0136 -0.2115  0.1408
12649W        W27780  15.624   2.380  12.089 -0.1387 -0.0578 -0.2712
12650W        W27781   6.795  13.408  14.988  0.0427  0.0297 -0.0671
12651W        W27782   6.022  10.849  14.020 -0.3227 -0.2949  0.2708
12652W        W27783  12.692   5.326  15.607 -0.3383  0.2942  0.1776
12653W        W27784   1.727  12.054   1.004 -0.1300 -0.0535  0.0655
12654W        W27785   3.977   8.457  11.779 -0.2644 -0.0215 -0.0565
12655W        W27786   5.914  14.461   2.086  0.2994 -0.2366 -0.1506
12656W        W27787   3.068   4.667   0.554  0.2666 -0.1306 -0.0346
12657W        W27788  10.497  14.306  14.378  0.1429 -0.1844 -0.2124
12658W        W27789   8.192   9.818   1.310  0.1010 -0.0805  0.2617
12659W        W27790   7.315  17.238  11.366  0.2647 -0.1677 -0.3447
12660W        W27791  16.287  15.030  12.485  0.2002 -0.0294 -0.0748
12661W        W27792  14.558   7.656   5.007  0.1356  0.1386 -0.0362
12662W        W27793   4.770   2.433   3.749  0.4024 -0.0542  0.0349
12663W        W27794  15.099  15.244   2.332  0.1514  0.1426 -0.1114
12664W        W27795   0.226   9.178   4.090  0.0904  0.0111 -0.0133
12665W        W27796  15.514   1.345  12.936 -0.0366 -0.0584  0.1578
12666W        W27797   6.497   2.562   3.226 -0.0457 -0.3340  0.0214
12667W        W27798  16.990  12.928  12.471  0.0969 -0.2474  0.2246
12668W        W27799   4.590   5.776  12.883  0.1231 -0.1251 -0.0185
12669W        W27800   9.678   8.869  12.167  0.0143  0.1107 -0.1835
12670W        W27801  16.943  11.714  13.839  0.0213 -0.0657  0.0265
12671W        W27802   7.268  15.523   1.379 -0.0128 -0.0299 -0.1110
12672W        W27803  17.355   8.526  14.847  0.0977  0.1358 -0.0620
12673W        W27804   4.667   0.306   6.017  0.0592 -0.1336  0.1481
12674W        W27805  17.597   6.675   0.341  0.1063  0.1818 -0.2068
12675W        W27806  10.816   0.788  15.266  0.0232 -0.0972  0.2215
12676W        W27807  17.697   4.098   5.209  0.0570 -0.0147 -0.0376
12677W        W27808   4.862   6.330   4.307  0.1624  0.2566 -0.2044
12678W        W27809  10.113   5.918  14.409  0.5293 -0.0708  0.0654
12679W        W27810   7.195   2.434  14.590  0.4472  0.3011 -0.1259
12680W        W27811  12.314   3.422  13.376  0.0995 -0.0646  0.1749
12681W        W27812  16.966  16.124   3.762 -0.1132 -0.0526  0.2051
12682W        W27813   8.391  16.918   0.538 -0.0743 -0.0694  0.0774
12683W        W27814   4.300   2.204   3.546 -0.0556  0.1668  0.1588
12684W        W27815   5.561   7.516   6.247 -0.1046  0.1170  0.0994
12685W        W27816  17.313   1.183  14.952 -0.0878 -0.1634  0.2094
12686W        W27817   2.114   8.231  15.325 -0.0732  0.1895  0.0415
12687W        W27818   5.361  12.897   2.401  0.0937  0.2360  0.0968
12688W        W27819   6.839  15.775  11.454  0.2170 -0.1635 -0.1454
12689W        W27820  11.358   0.971  10.047 -0.2307  0.1363 -0.2182
12690W        W27821  14.351   0.485   3.771  0.1669 -0.1330  0.2149
12691W        W27822  12.748  13.519   3.984  0.0316 -0.0726 -0.0490
12692W        W27823   8.335   3.525   5.063 -0.1805 -0.2370 -0.0200
12693W        W27824  17.259  18.282  14.438 -0.2186 -0.1335 -0.2499
12694W        W27825   5.554  17.426  14.164  0.0906 -0.2302 -0.1762
12695W        W27826   2.026  17.657   3.083  0.2057 -0.0411  0.2679
12696W        W27827   4.852   3.422   5.471  0.1710  0.2102 -0.0406
12697W        W27828   0.077   1.587  13.642  0.1331  0.0635  0.0301
12698W        W27829  11.656  12.592  13.165 -0.0674  0.3863  0.0780
12699W        W27830  16.806  11.566   5.177  0.1508  0.2331 -0.0277
12700W        W27831   7.424   6.112  12.551  0.0477 -0.0213 -0.4833
12701W        W27832   4.534  12.201  14.887  0.2113  0.1720 -0.2045
12702W        W27833  12.689  16.153   4.016  0.0876 -0.4621 -0.0248
12703W        W27834  12.750  17.462   4.501 -0.2978  0.3746 -0.1903
12704W        W27835  16.754   6.880   1.969  0.1028  0.0774 -0.1013
12705W        W27836  17.844  17.686   1.114  0.3110 -0.0165 -0.1642
12706W        W27837   1.254  10.357   5.327 -0.0574  0.0525 -0.2447
12707W        W27838  17.274   1.173   3.876  0.0885  0.3258  0.0806
12708W        W27839   6.104  13.613  13.204 -0.0390  0.1079  0.1475
12709W        W27840  17.214   0.632   1.636 -0.0280 -0.1676 -0.0100
12710W        W27841  14.966  12.105   4.685 -0.1418  0.1145  0.1361
12711W        W27842  16.553   0.720  14.920  0.1319 -0.0152  0.0005
12712W        W27843  17.750  14.931   1.547  0.0187 -0.2465  0.1197
12713W        W27844   4.342  17.625   2.350  0.1051  0.1022  0.1808
12714W        W27845  11.942  14.652  10.545 -0.3255 -0.2391  0.6079
12715W        W27846   0.305   5.043  14.943  0.0948  0.0691 -0.3004
12716W        W27847  11.613   9.832  14.331 -0.3807  0.2975 -0.4578
12717W        W27848   6.729  17.220   4.822 -0.2455 -0.2463  0.3704
12718W        W27849  13.258   1.117   3.465 -0.3101 -0.1970 -0.2027
12719W        W27850  11.644  11.318   3.270 -0.0945 -0.1335 -0.0875
12720W        W27851   8.707   4.004  12.965  0.0595 -0.1644 -0.1474
12721W        W27852   3.635  14.035   5.029  0.0225  0.0097  0.0460
12722W        W27853   1.541  17.307  13.566 -0.0292  0.3067 -0.0612
12723W        W27854  11.729   9.309   0.834 -0.2061  0.0075 -0.3105
12724W        W27855   8.180  15.159   4.488 -0.0879 -0.0070 -0.0863
12725W        W27856  13.206  17.637  13.733  0.0511  0.1035 -0.1994
12726W        W27857  16.861   4.641   5.237 -0.1517  0.1217  0.2758
12727W        W27858  12.749   9.405  11.299 -0.0244  0.0634 -0.3114
12728W        W27859  15.300   5.161  16.090  0.3806 -0.1192 -0.2483
12729W        W27860  16.102  11.179  13.993  0.0635 -0.2405  0.1001
12730W        W27861  15.700  12.896   2.523 -0.0533 -0.4345  0.0199
12731W        W27862  15.668  12.027  10.798 -0.1873  0.3422  0.2803
12732W        W27863  10.603   6.316   4.476 -0.3291 -0.1706 -0.0367
12733W        W27864   4.843   1.437   3.786 -0.0166 -0.3426  0.0245
12734W        W27865  16.423   8.509   2.842 -0.3206  0.0011  0.3514
12735W        W27866  15.976   7.588  16.086  0.1073  0.2800 -0.1601
12736W        W27867  16.154   6.752   3.204  0.0540 -0.1584  0.0744
12737W        W27868   7.511   6.747  14.009 -0.1330 -0.3624 -0.2292
12738W        W27869  12.274   6.034   3.872 -0.1202  0.0753  0.0301
12739W        W27870   6.136   2.023  12.879 -0.3481  0.0199 -0.3796
12740W        W27871   9.460  10.568   1.146 -0.2074  0.2442  0.1316
12741W        W27872  13.748  18.143   5.300  0.0282  0.1137  0.2076
12742W        W27873  15.546   8.040   4.182 -0.4325 -0.1024  0.2570
12743W        W27874  12.006  16.146  10.903  0.0102  0.0852 -0.2008
12744W        W27875   3.702   1.212  13.971  0.0425 -0.2224 -0.2907
12745W        W27876  12.187  11.521  11.881  0.0273 -0.1630  0.1962
12746W        W27877  15.132   6.359   3.695 -0.2070 -0.0789 -0.3223
12747W        W27878   9.560   0.435  15.032  0.0847  0.2644 -0.0334
12748W        W27879  17.264  18.023   3.401 -0.1575  0.0976 -0.0558
12749W        W27880   8.320  12.460  11.776  0.1104  0.0613 -0.0418
12750W        W27881   1.359  17.421  14.489  0.1922 -0.2190  0.2380
12751W        W27882   4.865  10.218   0.367 -0.1078  0.1691  0.2502
12752W        W27883   7.419   6.657  11.626  0.0049  0.1013  0.1964
12753W        W27884  18.272  15.414   4.049 -0.0115 -0.2565  0.0175
12754W        W27885   6.598  13.200   3.909  0.0655  0.2016 -0.2444
12755W        W27886   8.404  15.897  11.446 -0.2262  0.0877  0.1549
12756W        W27887  17.896  12.827  12.868  0.2133  0.1277  0.0480
12757W        W27888  14.052   8.828   2.648  0.0911  0.0559 -0.2778
12758W        W27889   8.218   8.699  12.801  0.1394 -0.2543  0.2244
12759W        W27890   8.840   4.136  11.493  0.4067  0.0372  0.0738
12760W        W27891   2.723   0.538  12.137  0.0172  0.1864  0.1632
12761W        W27892   8.906  16.327   2.689 -0.1941 -0.1649  0.2781
12762W        W27893  15.336   2.981  11.356 -0.3101  0.0159 -0.0173
12763W        W27894   2.920   6.938   0.064  0.2795  0.3399 -0.2690
12764W        W27895   1.104  11.868  15.525  0.2513  0.0990  0.3861
12765W        W27896  11.259  16.546  14.057 -0.1305 -0.2053  0.3256
12766W        W27897   7.632   9.140   1.653  0.2811  0.1925 -0.0921
12767W        W27898   4.391  13.600  11.315  0.1014 -0.0971 -0.1773
12768W        W27899   9.426  14.545  13.287 -0.1900  0.2294 -0.2694
12769W        W27900  13.511   2.685  12.799  0.2216 -0.0950 -0.1386
12770W        W27901   5.050   2.548  15.799  0.2681  0.3169  0.1126
12771W        W27902   9.959  14.176  14.338  0.2833 -0.0687  0.1656
12772W        W27903   9.451   1.498   0.111  0.0911  0.1025 -0.0578
12773W        W27904  10.181   8.910   1.759 -0.2533 -0.1583  0.1688
12774W        W27905  11.343   3.302   1.034  0.1212  0.1390  0.1398
12775W        W27906   2.494  13.003  14.689 -0.0494  0.0175 -0.2883
12776W        W27907   7.582   2.022  13.188 -0.0710  0.3849 -0.1815
12777W        W27908  13.775  18.294  14.752 -0.0906  0.2291 -0.0133
12778W        W27909   2.696  17.851  15.330  0.0507 -0.0449  0.0427
12779W        W27910   2.424  12.219   0.413 -0.0785 -0.0483  0.3764
12780W        W27911  13.277   1.057   2.562  0.2732  0.1150  0.1103
12781W        W27912  10.165   5.123  13.961 -0.4313  0.0137  0.1916
12782W        W27913  17.087  11.851  10.569 -0.0226  0.1156  0.0146
12783W        W27914   3.670   5.987  15.155 -0.0295  0.5170  0.1636
12784W        W27915   5.953  16.651  12.981 -0.1694 -0.2247 -0.3964
12785W        W27916  14.250   6.801  11.233  0.0233  0.1499  0.1236
12786W        W27917  16.075   5.643  13.625  0.2778  0.1344  0.0212
12787W        W27918  15.157  10.345   3.270  0.2112  0.2677 -0.0848
12788W        W27919   5.555   8.959   2.848 -0.1967  0.3757  0.0542
12789W        W27920   1.569  11.834  15.287  0.0951 -0.0715  0.0431
12790W        W27921  14.535   9.819  13.980  0.0931  0.0207  0.0715
12791W        W27922   3.915   7.921  10.777 -0.0934  0.1146  0.2168
12792W        W27923  12.977   5.142  13.471  0.1625  0.0946 -0.0139
12793W        W27924  13.495  15.382   5.125  0.1304  0.2417 -0.0456
12794W        W27925  14.813   6.706   3.797  0.0202 -0.0288 -0.1428
12795W        W27926  16.277  16.918  13.768 -0.1717  0.1240  0.1515
12796W        W27927   4.593   8.672   0.645 -0.1339 -0.1120  0.0801
12797W        W27928  11.958  12.233   4.939 -0.0008  0.2414 -0.3091
12798W        W27929  10.439  16.727   5.154  0.0373 -0.2866 -0.2069
12799W        W27930   3.597  12.276   1.375  0.0062 -0.2032 -0.0210
12800W        W27931   8.773  12.002  14.532 -0.1494  0.2022  0.1691
12801W        W27932  10.931   5.951   4.719  0.0491 -0.1851  0.2148
12802W        W27933   7.123   7.163  11.868 -0.0888 -0.1557  0.0159
12803W        W27934  12.105  15.044   1.665 -0.2853  0.0628  0.0197
12804W        W27935   5.320  16.424   1.641  0.0018  0.4208  0.1096
12805W        W27936   0.308   6.875  14.455 -0.3332  0.1791  0.2231
12806W        W27937   5.980   7.182   1.671  0.0132 -0.0176 -0.0851
12807W        W27938   0.606  11.217   4.463 -0.2500 -0.2245  0.1989
12808W        W27939  15.421   5.885   4.797 -0.0668  0.2041 -0.2183
12809W        W27940  11.081  11.964  10.386 -0.1081 -0.1760  0.0635
12810W        W27941  15.458  13.646  13.251 -0.0830 -0.0750 -0.3119
12811W        W27942   6.470  16.992  12.390  0.2682  0.0329  0.0287
12812W        W27943  11.647   5.146  16.012 -0.1593  0.1233 -0.4573
12813W        W27944   6.239  15.861  15.210 -0.2650  0.4828 -0.0811
12814W        W27945  17.950   5.940  13.489  0.3374  0.1042 -0.2263
12815W        W27946  17.129   0.710   5.698  0.0435 -0.1771 -0.0444
12816W        W27947  16.367   9.742  11.290  0.0588  0.2646  0.0769
12817W        W27948  16.028   5.060   2.351  0.3834  0.0010  0.0052
12818W        W27949  13.866  14.548  11.728 -0.3375 -0.0759 -0.6054
12819W        W27950   3.226  17.807  12.339 -0.0412  0.1242 -0.1436
12820W        W27951   1.518   9.562   5.573  0.0856  0.0781  0.1582
12821W        W27952   4.239  11.078  12.597  0.1980 -0.0439 -0.1089
12822W        W27953   3.850  11.389  12.896  0.3204  0.1153  0.1496
12823W        W27954  15.952  13.852   1.618  0.1686  0.3323 -0.2290
12824W        W27955   3.203   0.015  14.581  0.3133 -0.1974 -0.0896
12825W        W27956  13.783  16.069  13.560  0.1812 -0.4516  0.2433
12826W        W27957   5.392   2.273   2.974  0.0866  0.2643 -0.2616
12827W        W27958   2.063   6.069   1.281 -0.2120  0.0269  0.1753
12828W        W27959   4.208   7.730   4.998  0.3073  0.0746  0.0769
12829W        W27960  15.580  16.883  14.432 -0.0015  0.0431  0.0750
12830W        W27961   3.118  13.085   4.775 -0.1901  0.0630 -0.0870
12831W        W27962  13.573   0.498  14.080  0.0369  0.2482 -0.1304
12832W        W27963   1.055   4.120   0.422 -0.5048 -0.0878  0.0836
12833W        W27964  15.900  17.020   4.328 -0.1252 -0.0412  0.0926
12834W        W27965   1.302  14.974  13.022  0.1353 -0.0465 -0.2063
12835W        W27966   8.931   8.963  10.695 -0.0284  0.0340 -0.4602
12836W        W27967   0.049  10.458   4.213  0.0435 -0.2351 -0.0557
12837W        W27968  10.537   7.797  11.956  0.1040  0.0836 -0.3870
12838W        W27969   7.332   7.326  14.218  0.1616  0.1149 -0.0751
12839W        W27970   6.221  13.735   0.269 -0.2219  0.2785 -0.3205
12840W        W27971   1.919   6.651  11.559 -0.1111 -0.1066 -0.1806
12841W        W27972  17.361   5.999   3.601  0.2830  0.1702 -0.2087
12842W        W27973   3.273   4.951  15.397  0.1003 -0.0894  0.3483
12843W        W27974  12.440   0.582   0.086  0.1325 -0.2177 -0.1826
12844W        W27975  13.635   5.172  14.600 -0.1180  0.0919  0.3052
12845W        W27976  12.145   5.687  14.095 -0.0317 -0.2233  0.0419
12846W        W27977   7.662   7.173  11.607  0.1722 -0.1064 -0.2542
12847W        W27978   1.703  10.938  13.697 -0.2847 -0.0790 -0.1297
12848W        W27979   4.594   6.383  15.286  0.0378  0.0557 -0.3586
12849W        W27980  13.401   8.390  14.528  0.2506 -0.2088 -0.1889
12850W        W27981   4.618  11.469  15.405 -0.0734  0.3874 -0.0811
12851W        W27982   3.517  10.631   1.739  0.0585  0.2365 -0.2888
12852W        W27983   3.224  14.997  14.977 -0.1140 -0.2030  0.0157
12853W        W27984  13.623   8.845   4.354  0.1046 -0.1547 -0.1756
12854W        W27985  16.530   1.215   2.802  0.0098 -0.0272 -0.3967
12855W        W27986   5.195  16.248   5.767  0.2214 -0.2365 -0.1879
12856W        W27987  15.154   7.108   9.826  0.1527 -0.1789  0.1102
12857W        W27988   9.014   3.155   6.188 -0.0304 -0.0532  0.1259
12858W        W27989   8.464  17.853   0.761  0.2009 -0.0694 -0.1935
12859W        W27990   8.420   7.357  16.014  0.0746 -0.3029 -0.2324
12860W        W27991  14.130   0.281   2.739  0.0304  0.2720 -0.2056
12861W        W27992  15.601   2.000   4.379  0.1629  0.3006 -0.0109
12862W        W27993  12.109  13.683  13.288  0.1975 -0.1719  0.1032
12863W        W27994  15.814   9.088  14.498  0.3564 -0.1358  0.1936
12864W        W27995  13.041  10.047  12.018  0.0179 -0.2926 -0.3362
12865W        W27996   4.058  12.104  12.896 -0.3123 -0.1025 -0.2889
12866W        W27997   2.451   8.971  11.749 -0.1391 -0.1913 -0.1259
12867W        W27998   9.970  13.612   9.915 -0.1037 -0.0092  0.2844
12868W        W27999   9.623  18.122   1.585 -0.1634 -0.1298  0.0179
12869W        W28000   9.779   3.862  10.382  0.1068 -0.0389 -0.4246
12870W        W28001   6.892   1.958  10.445  0.3749  0.0351  0.1227
12871W        W28002   4.049  15.329   2.524 -0.0202 -0.0737 -0.0987
12872W        W28003  14.988   5.999   5.034 -0.2029 -0.1369  0.0797
12873W        W28004   9.408   4.115  12.362 -0.1038 -0.5220 -0.1867
12874W        W28005   0.093   7.278  14.103  0.1997 -0.0107 -0.0826
12875W        W28006  17.583  13.124  10.671 -0.0121 -0.1458 -0.3337
12876W        W28007   3.232  12.749   0.640 -0.1161  0.0547 -0.0649
12877W        W28008  10.834  15.236  14.305 -0.1175  0.0774 -0.0340
12878W        W28009   6.223  14.711   1.421 -0.0632 -0.0687 -0.0285
12879W        W28010   5.604  17.784  12.273 -0.0518 -0.1947  0.0152
12880W        W28011  10.799  12.098  11.722  0.0354 -0.1832  0.2138
12881W        W28012   7.001   4.560   1.400  0.1297 -0.0585  0.1526
12882W        W28013  10.638   2.984  12.849  0.1908 -0.1832  0.3338
12883W        W28014   6.589  10.248   0.710  0.2913 -0.0692 -0.2126
12884W        W28015   7.988   2.211  13.351 -0.0055 -0.2066  0.0808
12885W        W28016  16.026   1.274  12.802 -0.0351 -0.0436 -0.1415
12886W        W28017   6.830   1.854  15.610 -0.1567 -0.3201 -0.1411
12887W        W28018  12.021  16.665  11.354  0.1058 -0.2067 -0.1539
12888W        W28019   1.582   2.435   2.423  0.1767 -0.1376  0.1007
12889W        W28020  11.335   9.842  15.874 -0.0439  0.1176 -0.1297
12890W        W28021  18.299   5.895  15.780 -0.1577  0.1353 -0.2718
12891W        W28022   9.077  12.340   0.501 -0.3721  0.1088 -0.3982
12892W        W28023  14.776   6.045   1.151 -0.0954 -0.0296 -0.0396
12893W        W28024   4.485   8.523   0.097 -0.0746  0.2898 -0.1406
12894W        W28025   7.067   1.356   1.391 -0.1012 -0.2062 -0.0011
12895W        W28026   1.067   9.534  16.086 -0.1052 -0.0822 -0.2448
12896W        W28027  13.422  13.401   4.497 -0.0747 -0.0564  0.1792
12897W        W28028   8.244   7.513  14.183  0.2938  0.3010 -0.1395
12898W        W28029  12.366  10.700   0.583  0.2525 -0.3189  0.2488
12899W        W28030  16.695   8.874  13.931 -0.0039  0.2785  0.2721
12900W        W28031  11.395   5.581   1.217 -0.1845  0.0428 -0.1080
12901W        W28032  14.798  16.395   2.664 -0.0443 -0.1772 -0.1623
12902W        W28033   8.201   7.663   1.783 -0.1911 -0.0855 -0.0450
12903W        W28034  12.693  10.896   0.089  0.1857 -0.3591  0.1976
12904W        W28035   8.643   2.490   2.633 -0.0473  0.1188 -0.2417
12905W        W28036   4.496  15.405  12.649 -0.0855  0.1834  0.0694
12906W        W28037   6.857  17.288  15.703 -0.0400 -0.0246  0.0312
12907W        W28038  12.516   7.548   4.582 -0.5119  0.0806 -0.2085
12908W        W28039  15.458   3.865   2.621  0.0600  0.0324  0.0204
12909W        W28040   9.604   7.598  15.862 -0.0969  0.1318 -0.0045
12910W        W28041   9.445   4.543  12.723  0.1376  0.0933 -0.1060
12911W        W28042   7.374  14.288   5.174  0.3458 -0.0924 -0.0078
12912W        W28043  16.371  13.827   2.859 -0.2093  0.3253 -0.1727
12913W        W28044   6.919  12.612  10.718 -0.0330 -0.2726  0.2411
12914W        W28045  11.732  17.750   2.357  0.0978  0.0206 -0.0069
12915W        W28046  12.357   2.968   3.135  0.0940 -0.1786 -0.0030
12916W        W28047   8.349   2.258  14.576 -0.0769  0.0485  0.0510
12917W        W28048  15.727  14.181   2.963 -0.1703  0.2409 -0.1450
12918W        W28049  10.767  17.558  15.152 -0.0440 -0.1983  0.2703
12919W        W28050  17.277  17.830  15.701 -0.2301  0.0644  0.2470
12920W        W28051  16.488  16.814  11.876  0.0502  0.0183 -0.2213
12921W        W28052   4.363  12.170  13.406  0.0196 -0.0017  0.1741
12922W        W28053  12.370   7.259   4.222 -0.0616 -0.1376  0.0062
12923W        W28054   2.482   9.146  13.529 -0.1883 -0.0846  0.0687
12924W        W28055   8.912   3.698  10.727  0.0409 -0.1942  0.0921
12925W        W28056   8.621  15.491   0.542  0.1450  0.1362  0.0586
12926W        W28057  11.050  15.560   2.951 -0.2883 -0.0867  0.1573
12927W        W28058   9.442  15.598  13.568 -0.1599  0.2540 -0.0992
12928W        W28059  16.633  13.527   3.200 -0.3828  0.4013  0.2529
12929W        W28060  14.090  11.714   1.749 -0.1890 -0.1566  0.0827
12930W        W28061  17.395   1.760   3.149  0.1835  0.0631  0.0040
12931W        W28062   9.541   7.978   4.972 -0.2493  0.0424  0.0303
12932W        W28063   2.943  10.920  15.521  0.0593  0.3266  0.3414
12933W        W28064  13.863   9.355  15.165  0.0622 -0.2134  0.1560
12934W        W28065  15.605  17.398  11.588  0.2309  0.4173 -0.0605
12935W        W28066   2.249   5.880  12.906  0.1272 -0.0382  0.0230
12936W        W28067  11.142  16.542   5.753 -0.0507  0.0596 -0.0511
12937W        W28068   6.121   2.410   5.748 -0.4683 -0.0691  0.2733
12938W        W28069  15.854   8.864   9.806 -0.0553  0.1215 -0.0092
12939W        W28070   6.813   4.424  11.393 -0.3209  0.0791  0.3343
12940W        W28071   8.429  16.668   3.443  0.2492 -0.0867  0.0463
12941W        W28072   5.886   5.930   1.817  0.1558  0.0153  0.1563
12942W        W28073   5.728   2.873  12.586 -0.1656  0.4263  0.0984
12943W        W28074  10.947  13.291   3.278  0.0490  0.4218  0.0786
12944W        W28075  15.686  11.352  14.182  0.0295 -0.0750 -0.0629
12945W        W28076   7.331   7.371   2.940 -0.1114  0.0428  0.1910
12946W        W28077  15.662   2.504   3.895  0.2282 -0.1642  0.0579
12947W        W28078   5.453   7.635   4.711 -0.0878 -0.0584  0.3257
12948W        W28079   4.092   1.929  12.236  0.3954 -0.1508 -0.0412
12949W        W28080   6.990  11.229   4.338 -0.4181 -0.1847 -0.0543
12950W        W28081  14.840  12.391  14.809  0.1559  0.3887 -0.0365
12951W        W28082  16.495   0.856  15.907  0.0974  0.3354 -0.0709
12952W        W28083  16.053   3.359   1.438  0.2706  0.2300 -0.1191
12953W        W28084   9.758  16.275   2.408  0.4082  0.1418  0.3483
12954W        W28085   4.038   8.527   2.466 -0.3303 -0.1998 -0.2477
12955W        W28086  17.261   3.779   0.934 -0.0900  0.0427  0.1517
12956W        W28087  14.266  13.360  15.227  0.0029  0.2679  0.0009
12957W        W28088  17.350  16.601  14.312  0.0990  0.2873  0.0788
12958W        W28089   0.054  17.774   3.528  0.1067 -0.0198  0.0459
12959W        W28090  10.332   4.046   0.786  0.2069 -0.2226  0.3321
12960W        W28091   2.365  13.593   5.638  0.0131 -0.1003 -0.0035
12961W        W28092   1.071   5.202  12.933 -0.1929 -0.0161  0.0389
12962W        W28093  15.972   7.597   3.550  0.4575  0.0911 -0.1837
12963W        W28094   7.895   3.896  13.664 -0.2948 -0.0039 -0.0349
12964W        W28095   1.085  17.083  12.324  0.0691 -0.1285  0.1861
12965W        W28096  15.199   3.375   3.764  0.2673 -0.0611  0.1856
12966W        W28097   9.004  17.068   0.424 -0.2285  0.1136 -0.2140
12967W        W28098   7.711   7.394  15.613 -0.1428  0.2763 -0.1809
12968W        W28099   0.241   6.027   4.824  0.1568  0.0519  0.1546
12969W        W28100   5.641   9.146  11.504 -0.0516  0.0358 -0.3649
12970W        W28101   7.071   2.902   2.634 -0.0490 -0.2009 -0.0409
12971W        W28102  12.313  13.450   2.687 -0.0689 -0.0068 -0.1920
12972W        W28103   9.233   2.009  14.772  0.1340 -0.0133 -0.3716
12973W        W28104  11.070  10.237   4.122 -0.3525  0.1932 -0.1126
12974W        W28105   8.268   1.569  11.295 -0.0472 -0.2625 -0.1202
12975W        W28106   6.171  12.228   3.821  0.1368  0.1518  0.1295
12976W        W28107  10.271   9.935   0.448  0.0064 -0.0166  0.0854
12977W        W28108   1.459   9.427   0.324 -0.3863  0.0423  0.3757
12978W        W28109  12.005  17.865   1.048 -0.4609 -0.0915 -0.0788
12979W        W28110   6.971   5.827  15.100 -0.0366  0.1063 -0.2137
12980W        W28111  16.622   1.731  12.559  0.0936  0.2095 -0.3228
12981W        W28112  10.251   4.481  14.735 -0.0904  0.0024  0.1932
12982W        W28113   0.840  12.222  13.022  0.4536  0.0209  0.2092
12983W        W28114   8.878   9.945   1.470 -0.0401 -0.0958 -0.3967
12984W        W28115  13.887  12.208   1.708 -0.2416 -0.0868 -0.0145
12985W        W28116  16.555   0.747   2.576  0.0821  0.2257 -0.2983
12986W        W28117  12.046  17.977  13.453 -0.0664 -0.0493 -0.4267
12987W        W28118  17.827  12.876  14.255 -0.1608 -0.0325  0.1597
12988W        W28119  14.692   5.108  15.624 -0.2737  0.0961  0.1243
12989W        W28120  16.195   8.930   5.069  0.1149 -0.2642 -0.1056
12990W        W28121   9.549   4.628   3.644  0.1472  0.1980  0.1229
12991W        W28122  15.127  13.309  13.209 -0.0368 -0.1680 -0.0820
12992W        W28123  16.039   2.252   3.297  0.0640  0.3351 -0.0592
12993W        W28124   6.980   3.576  13.932 -0.0512 -0.0607 -0.2612
12994W        W28125  13.919   4.240   1.462 -0.0966  0.1625 -0.1524
12995W        W28126   7.404   1.284   0.985 -0.0831  0.2873 -0.0604
12996W        W28127   0.257  16.137  13.028 -0.0954  0.1229 -0.2386
12997W        W28128  17.408   2.330   0.795 -0.1187 -0.1470 -0.1761
12998W        W28129  12.341  15.071   4.112 -0.1148  0.3498  0.1005
12999W        W28130  16.175   8.206   1.842 -0.4148 -0.1059  0.1808
13000W        W28131  14.537   8.260  15.248  0.2972  0.1926 -0.3471
13001W        W28132  14.907  17.824   3.638  0.1032  0.3502 -0.0447
13002W        W28133  12.991  13.461  10.967 -0.0108 -0.0973  0.2494
13003W        W28134   7.128   7.852   4.492 -0.2274  0.0133  0.1417
13004W        W28135   9.879   7.927  15.597 -0.0007  0.0906 -0.1980
13005W        W28136   2.567  14.832   5.834 -0.0276  0.0235 -0.2450
13006W        W28137   7.030   8.025   9.980  0.2321 -0.1406  0.1716
13007W        W28138   2.354   3.898   2.964 -0.1141 -0.5938  0.3793
13008W        W28139  18.112   3.778   3.927  0.1348 -0.1975  0.4320
13009W        W28140   6.571   4.832   1.263 -0.1537 -0.0865  0.2865
13010W        W28141   1.550  15.838  11.155  0.1177 -0.1330  0.2472
13011W        W28142   8.329  17.622   5.004  0.0202 -0.0753 -0.1218
13012W        W28143  14.186   8.966   0.584 -0.2835 -0.1066 -0.0549
13013W        W28144   8.234  17.671  12.322  0.2589 -0.0492  0.1917
13014W        W28145   3.142   5.286   5.338 -0.2935 -0.1578  0.1344
13015W        W28146  13.115   1.798  11.608 -0.1250  0.2840 -0.0878
13016W        W28147  15.956  12.576  12.124 -0.0859  0.4018  0.3675
13017W        W28148  17.133   9.934   3.038  0.0157  0.1416 -0.0476
13018W        W28149  13.901   6.540  14.762  0.0812  0.1009 -0.1223
13019W        W28150  13.294   5.056   5.160  0.0385 -0.1853 -0.1270
13020W        W28151   4.216  14.792  15.124 -0.0523  0.0009 -0.0456
13021W        W28152  14.177   0.214   4.138 -0.3079  0.1312  0.2331
13022W        W28153   8.146  14.388  11.913 -0.1661  0.1010  0.1324
13023W        W28154   0.439  10.501  10.194 -0.0843 -0.1554  0.0296
13024W        W28155   5.973   8.030  13.286  0.0450  0.1773  0.1538
13025W        W28156  12.992  12.583   1.340  0.2675  0.1838  0.2037
13026W        W28157   0.092   5.723   0.962  0.1189 -0.2677  0.0026
13027W        W28158   8.860  10.816   3.703 -0.2038 -0.0584 -0.4452
13028W        W28159   3.964   9.045  12.592 -0.0061  0.2016 -0.0644
13029W        W28160   2.723   9.748   5.033 -0.5201 -0.0407 -0.0473
13030W        W28161   2.274   6.982  15.416  0.1676  0.4321 -0.0723
13031W        W28162  16.818   8.086   1.091 -0.1134  0.1685  0.1214
13032W        W28163  12.722  17.568   0.920  0.1764 -0.0520 -0.1389
13033W        W28164   9.176   4.311  13.087  0.3068  0.3719 -0.3340
13034W        W28165   4.900   6.480  12.811  0.1054 -0.1055  0.1042
13035W        W28166   5.833  16.198  12.115 -0.2663  0.2690 -0.0538
13036W        W28167   4.878   7.201  15.314 -0.3366  0.0702  0.4162
13037W        W28168  18.104  10.282  14.924  0.1891  0.3104  0.1735
13038W        W28169  10.888  16.953   4.979 -0.0390  0.0001 -0.2574
13039W        W28170   3.465  15.548  11.443  0.1688 -0.2264 -0.1142
13040W        W28171   0.588  13.981  11.115  0.1356  0.0715  0.0126
13041W        W28172   2.297  17.907   0.826 -0.1571 -0.1549 -0.2282
13042W        W28173  13.186  10.937   0.114  0.2486  0.0616 -0.0734
13043W        W28174  12.525  12.897   1.672  0.0367 -0.1052  0.0283
13044W        W28175   4.817  10.392   3.997  0.0272  0.0322  0.0018
13045W        W28176   8.342   2.558  13.225 -0.1721  0.0107 -0.0467
13046W        W28177   5.818   2.418  15.925  0.0282 -0.0135  0.0923
13047W        W28178  13.290   8.279  10.047  0.0056 -0.0491  0.1865
13048W        W28179  13.537  15.784  11.731 -0.3272  0.0420  0.3783
13049W        W28180  13.085  12.017  10.864 -0.2305  0.0874 -0.0283
13050W        W28181   5.903   3.845  13.081  0.0096  0.1126 -0.2166
13051W        W28182  14.269   8.378   4.174 -0.3220 -0.0148 -0.2091
13052W        W28183   2.012   5.630   3.096  0.2800 -0.0936  0.0597
13053W        W28184   8.976   6.062   1.782 -0.1136  0.1816 -0.1177
13054W        W28185  15.537   9.100  15.333 -0.0335  0.2073  0.0727
13055W        W28186   4.024  17.724   4.597  0.0350  0.1650  0.3219
13056W        W28187  16.553   8.504  12.627 -0.0329 -0.3385  0.1001
13057W        W28188   9.811   8.729   3.086 -0.2537 -0.1888  0.0863
13058W        W28189   2.203   0.989  15.641 -0.1403 -0.0198 -0.1562
13059W        W28190  12.655   5.522   1.709  0.0026 -0.0697 -0.1781
13060W        W28191   2.563   2.186  11.828  0.0593 -0.1478  0.0362
13061W        W28192   7.197   5.927  10.020 -0.1373  0.3123 -0.2508
13062W        W28193   5.902   4.348  15.057 -0.0105 -0.0593  0.1246
13063W        W28194   4.464  18.330  11.608  0.1691  0.2027  0.0443
13064W        W28195  11.999   9.685   0.742 -0.0707  0.0869 -0.2759
13065W        W28196   1.230   8.751  13.824  0.0683 -0.0042 -0.0012
13066W        W28197  17.317  16.963   5.845 -0.0133 -0.0597 -0.0319
13067W        W28198  15.941  17.040   2.010  0.0394 -0.0552 -0.0764
13068W        W28199   5.251   2.040  13.963 -0.0070 -0.2665  0.1650
13069W        W28200   1.840  12.118  14.463 -0.0248  0.0723  0.2208
13070W        W28201   1.338   2.430  14.352  0.0717  0.0088  0.2333
13071W        W28202  10.339  14.260   5.067 -0.1604 -0.0590 -0.2450
13072W        W28203  12.787   4.107  12.904  0.0614  0.0303 -0.0632
13073W        W28204   3.329   6.969   4.300 -0.0283  0.1986  0.0740
13074W        W28205   0.906  12.456  14.126  0.0702  0.1398  0.0339
13075W        W28206   4.573   3.310   0.731  0.1217  0.0762  0.0770
13076W        W28207   2.450  16.353  13.092  0.2685 -0.2559 -0.2854
13077W        W28208   4.123   8.782   3.544 -0.1677  0.2309  0.0722
13078W        W28209  11.315   5.711   3.157  0.0490  0.1436  0.2845
13079W        W28210   0.743  15.750  15.278 -0.2575  0.0709  0.0112
13080W        W28211  13.535   0.563   3.441 -0.1279  0.0937  0.1221
13081W        W28212   4.790  12.751  11.376  0.0203  0.1930  0.0289
13082W        W28213  18.076  14.444  15.229  0.2314 -0.1191  0.0307
13083W        W28214   2.391   2.587   5.709 -0.0893 -0.2131  0.5243
13084W        W28215  11.137  10.286  15.972 -0.1899 -0.0128 -0.0891
13085W        W28216   7.131  13.797   3.952 -0.2783 -0.2376  0.0793
13086W        W28217  11.243   6.839   1.841 -0.3238 -0.1559 -0.1311
13087W        W28218  17.356  17.691   3.804 -0.0081 -0.1401  0.0784
13088W        W28219  12.963  12.467  15.661  0.0934  0.0908  0.0335
13089W        W28220  12.089  13.073   3.114 -0.1223  0.4296 -0.1353
13090W        W28221   1.870  12.077  11.236 -0.0156 -0.1538  0.1148
13091W        W28222   9.555  12.279  13.931  0.0510  0.0085  0.0435
13092W        W28223   6.376  17.296  13.960  0.0795  0.2020  0.1520
13093W        W28224  15.988  10.182  13.921 -0.2547 -0.0277  0.0140
13094W        W28225   1.674   4.331  14.801 -0.2166  0.2980  0.0587
13095W        W28226   9.309   8.508  13.546 -0.0189 -0.1270  0.1573
13096W        W28227  13.390   1.997  13.074  0.0167 -0.0105  0.1585
13097W        W28228  10.092  13.294   3.026  0.3642 -0.3455 -0.4040
13098W        W28229  11.899   2.549  13.201 -0.0334  0.1192 -0.2375
13099W        W28230   7.533   0.572  15.599 -0.0969  0.0852  0.0282
13100W        W28231  14.324   9.161   3.916  0.1369  0.0895  0.2042
13101W        W28232  12.724   3.219   1.064 -0.2319 -0.0656  0.0581
13102W        W28233   3.582  11.043   4.841 -0.0038  0.0539  0.2839
13103W        W28234  10.523   9.630   4.478  0.1225 -0.1983  0.0527
13104W        W28235  11.636   8.116  12.466  0.3865  0.3080  0.1924
13105W        W28236  15.999   1.717   6.109 -0.1642  0.0487 -0.2908
13106W        W28237   8.338   4.574   4.378  0.2595  0.0078 -0.1684
13107W        W28238  17.560  11.107   1.620 -0.1617  0.2626 -0.0690
13108W        W28239  12.616   9.020  13.327 -0.1310  0.2334  0.1444
13109W        W28240  16.058   8.823   2.147  0.3778  0.1551  0.0356
13110W        W28241   1.179   4.893   5.408 -0.3126 -0.3223 -0.1295
13111W        W28242  15.625  15.734   0.921  0.5210 -0.0455 -0.1829
13112W        W28243  14.318   2.957  15.120 -0.0934 -0.0587  0.0163
13113W        W28244  17.898   8.214   3.128  0.0683  0.0994 -0.1594
13114W        W28245  14.790  10.398   4.666 -0.0466  0.0546 -0.1528
13115W        W28246   1.377   5.404   1.233 -0.1086 -0.2178 -0.2931
13116W        W28247   9.403  11.836  11.127  0.0623 -0.1185 -0.3233
13117W        W28248  11.675  13.359   5.571 -0.1794  0.0518  0.1006
13118W        W28249  17.258  17.435  11.838  0.0747  0.1611  0.1599
13119W        W28250   8.929  12.605   2.821 -0.1494 -0.1880  0.2384
13120W        W28251   4.424   9.160   0.266 -0.0693 -0.2706 -0.0559
13121W        W28252  11.968   2.084  15.032 -0.3584 -0.3093  0.1282
13122W        W28253   1.207   3.513   0.515 -0.1606 -0.0299  0.3111
13123W        W28254   4.602   6.751   1.887 -0.4597  0.1697  0.2765
13124W        W28255   2.727  11.679  14.132 -0.0485 -0.0476 -0.1341
13125W        W28256   2.082  17.075  12.637  0.0055  0.1607 -0.2982
13126W        W28257   8.925   6.535   1.944 -0.1174  0.0634 -0.1090
13127W        W28258   3.005   2.668   4.466  0.3056 -0.1954  0.3486
13128W        W28259  10.011   5.434  11.367  0.1583 -0.0747 -0.1355
13129W        W28260   5.066  10.466  13.774  0.2446  0.1875 -0.0949
13130W        W28261   7.768   2.257  14.527  0.1350  0.0691 -0.0577
13131W        W28262  14.488  11.277  10.696 -0.3313 -0.0339  0.2783
13132W        W28263   2.741  13.421   2.076 -0.1273  0.0436 -0.1887
13133W        W28264   2.842   2.486  12.089 -0.0989 -0.3006 -0.0043
13134W        W28265   0.813  17.125   2.867 -0.0016 -0.0484 -0.0478
13135W        W28266   6.812   0.007  14.176 -0.1132 -0.1012  0.3108
13136W        W28267   4.609  16.822   1.598  0.3253 -0.0898  0.3063
13137W        W28268  14.388   5.540  14.222  0.2165 -0.1432  0.2580
13138W        W28269   9.963   8.453   4.698  0.1717  0.3174  0.0966
13139W        W28270  16.220  13.775  14.158  0.0112 -0.1595  0.1694
13140W        W28271  17.968  10.489   3.157 -0.2738  0.1589  0.2175
13141W        W28272   2.942   7.007   3.361 -0.0157  0.2009 -0.2125
13142W        W28273  16.679   9.144   3.577  0.0755  0.0506 -0.0286
13143W        W28274  13.816  11.560  13.769 -0.1056  0.0019 -0.1130
13144W        W28275   0.043   4.136  13.147 -0.1135 -0.0752 -0.0825
13145W        W28276  13.140   7.710  13.891  0.2403 -0.0434 -0.3350
13146W        W28277  17.377   8.075   9.853 -0.2745  0.0456 -0.1390
13147W        W28278  12.020  17.652  12.469 -0.1531  0.1344 -0.1433
13148W        W28279  13.710  18.003   1.681  0.1119 -0.1479 -0.0088
13149W        W28280  18.059   2.489  14.126  0.3929  0.0574 -0.0924
13150W        W28281  16.242   2.507   1.336 -0.0970  0.0771 -0.0015
13151W        W28282   6.023  12.110  15.985 -0.0886  0.0010  0.0122
13152W        W28283   9.897   1.692  11.378 -0.2594 -0.2482  0.0271
13153W        W28284  14.750  16.730  14.010  0.2343 -0.0787  0.1906
13154W        W28285   6.882  15.408   4.871  0.0955  0.4031  0.2299
13155W        W28286  12.773   1.045   1.338  0.1813 -0.2827  0.2477
13156W        W28287   8.459   0.676   1.792  0.3747  0.0629  0.1215
13157W        W28288  12.742   2.490  14.228  0.0328  0.1763 -0.0416
13158W        W28289  13.712   7.654   4.043 -0.1470  0.2571  0.0070
13159W        W28290   9.863  13.781   0.800 -0.2709 -0.2045  0.1097
13160W        W28291   5.326  17.018  12.313 -0.1963  0.1132 -0.0451
13161W        W28292  13.644   1.453  14.392 -0.5020 -0.4332 -0.3349
13162W        W28293   9.362   8.008  13.311 -0.1478 -0.1012  0.2416
13163W        W28294  15.091  16.107   4.820 -0.1692 -0.4479 -0.0201
13164W        W28295   2.223  15.987  11.310  0.0970  0.2746  0.0488
13165W        W28296   3.989  16.272   1.329 -0.2063 -0.0539  0.2685
13166W        W28297  17.674   7.805   3.332  0.0094  0.3820 -0.0461
13167W        W28298   5.482  13.718   3.446  0.1151 -0.0669 -0.2363
13168W        W28299  10.526  11.362   3.405  0.2399 -0.1037 -0.2537
13169W        W28300  10.522   7.393  15.263  0.0398  0.0718  0.2700
13170W        W28301   8.600   6.535  13.086  0.0163 -0.0093  0.1927
13171W        W28302  11.781   1.320  16.067  0.0163 -0.2358 -0.1558
13172W        W28303   3.716  16.346  11.402  0.0281  0.0027  0.1056
13173W        W28304  15.277  16.245  10.280 -0.0348 -0.2678  0.2500
13174W        W28305  16.038  10.921  15.383  0.0816  0.1873  0.1075
13175W        W28306   1.346  11.089  11.284 -0.3271  0.2747  0.1555
13176W        W28307  12.898   8.923  12.878  0.2561  0.0012 -0.1199
13177W        W28308  11.007  11.958  13.054  0.1955 -0.2555 -0.1033
13178W        W28309  14.524   1.689  12.953 -0.1556  0.0328  0.3168
13179W        W28310   2.084   9.923  11.570  0.1525 -0.3340 -0.2275
13180W        W28311   5.110   6.827   5.952  0.0758 -0.0579  0.2654
13181W        W28312  16.089  18.182  14.852 -0.1311  0.0431 -0.2324
13182W        W28313  11.686  10.970  14.529  0.2494 -0.1783  0.0901
13183W        W28314  12.239  13.229  13.241  0.1478 -0.0415  0.1053
13184W        W28315  16.354  14.234  15.424  0.0811 -0.3461 -0.1800
13185W        W28316  15.400  15.507   1.989  0.1958  0.0549  0.0408
13186W        W28317   0.951   0.029  12.274  0.0739  0.1127  0.2282
13187W        W28318  14.938   4.668   3.610 -0.2655 -0.0808  0.1436
13188W        W28319   0.561   7.038  11.376 -0.2397  0.1497 -0.1110
13189W        W28320  17.781  12.376  12.546 -0.0301 -0.2913  0.2552
13190W        W28321  14.963  14.117  10.124 -0.0644 -0.1743  0.1346
13191W        W28322  14.364  10.915  10.201 -0.2775 -0.1043 -0.0270
13192W        W28323   6.726   9.118  16.013 -0.1089  0.1629 -0.0295
13193W        W28324   7.849  16.997   2.702  0.1048 -0.0707  0.1631
13194W        W28325  16.275  15.467   1.941 -0.1241 -0.0588  0.0498
13195W        W28326  13.381   1.858   3.993  0.1344  0.2587  0.0489
13196W        W28327  11.857   8.274  13.512 -0.1263 -0.1511  0.1637
13197W        W28328   7.693   4.964  11.197 -0.0156  0.3833 -0.2968
13198W        W28329   4.973   9.475  12.755 -0.2175  0.0348  0.2431
13199W        W28330  18.070   5.594   0.071  0.3566  0.1811  0.1632
13200W        W28331  16.615  13.002   0.600 -0.2592 -0.0667 -0.0193
13201W        W28332   9.202   2.495  14.525  0.1597  0.1777  0.1039
13202W        W28333  17.092   3.920   5.741  0.0477 -0.1542  0.0426
13203W        W28334   4.189   5.509   2.088 -0.1811 -0.1190  0.0286
13204W        W28335  17.596   3.911   3.756 -0.1746  0.2030  0.0141
13205W        W28336  15.535   6.899   2.210 -0.1358  0.1507 -0.2095
13206W        W28337   8.186  15.441   3.641 -0.0569 -0.1275  0.2831
13207W        W28338  13.408  13.915   1.960 -0.0268 -0.3784  0.1871
13208W        W28339   2.241   3.505  13.467 -0.0054  0.0718 -0.1072
13209W        W28340  11.310   8.626   1.292  0.1028 -0.1334  0.0658
13210W        W28341  16.996   9.048   2.530  0.0550 -0.1081 -0.2574
13211W        W28342   9.377   3.596   0.252  0.1029  0.1497 -0.1594
13212W        W28343  14.352  17.165   4.578 -0.0207 -0.0932 -0.0222
13213W        W28344   9.489   9.889  13.319 -0.1914  0.1624  0.0403
13214W        W28345  14.177  13.698   4.918 -0.0011 -0.2298  0.0785
13215W        W28346   8.389   6.077   5.308  0.0009 -0.0912 -0.0126
13216W        W28347  10.945   3.924   4.878  0.0298  0.1761  0.0388
13217W        W28348  14.280   3.585   0.209  0.0859 -0.2377 -0.0234
13218W        W28349  13.383  10.270   3.577 -0.1786 -0.3736  0.1696
13219W        W28350   3.794   5.359  12.484 -0.0891 -0.0297 -0.2478
13220W        W28351  12.833  11.044  15.029 -0.2824 -0.0629  0.0323
13221W        W28352   3.029  10.814  10.955  0.0456 -0.2105 -0.1877
13222W        W28353   5.081   2.175   4.099  0.1563 -0.2042  0.1122
13223W        W28354   1.063   2.293   1.713  0.2976  0.1631  0.3220
13224W        W28355  12.166  12.953   2.608  0.0697  0.1679  0.1988
13225W        W28356  16.965   4.414  14.943  0.0066  0.2749  0.3475
13226W        W28357   5.837   0.781   5.737  0.2608  0.0099  0.1554
13227W        W28358   0.809   7.458   3.951  0.0786  0.2930 -0.1231
13228W        W28359  13.666   8.873  15.004 -0.0150  0.2501 -0.4144
13229W        W28360   2.409   0.053  14.806 -0.2278 -0.3016  0.2849
13230W        W28361  18.250  14.080   0.341 -0.1223  0.2978 -0.1960
13231W        W28362  16.955  15.959  11.464  0.1587 -0.1221 -0.0086
13232W        W28363   7.488   1.974  11.588 -0.0178  0.1322  0.0391
13233W        W28364   9.065   2.186  10.547  0.1498 -0.0060  0.1123
13234W        W28365   6.489  13.079  13.730 -0.1191 -0.0828 -0.0993
13235W        W28366   4.928   9.621   1.517 -0.3588 -0.2052 -0.2204
13236W        W28367  11.891   2.417  12.564 -0.2561 -0.2937 -0.0419
13237W        W28368  10.943  13.151   4.580 -0.0428 -0.1097 -0.1947
13238W        W28369  14.774   6.771   2.696 -0.1979  0.0122  0.2184
13239W        W28370  17.239   8.331  15.851  0.3077 -0.0045 -0.0287
13240W        W28371  12.311   6.511   4.742  0.1898  0.0310 -0.0671
13241W        W28372  16.210  10.177  15.863  0.0180 -0.0103  0.0970
13242W        W28373   6.675  15.131   2.005 -0.1217 -0.2623  0.0559
13243W        W28374   4.604  10.441   2.242 -0.0385 -0.2241 -0.1446
13244W        W28375   3.101  16.398  15.347  0.1298  0.1115 -0.1132
13245W        W28376   9.680   8.063  11.854  0.0725  0.2213  0.1039
13246W        W28377   2.341  15.078   5.414  0.1596 -0.1688 -0.3970
13247W        W28378   9.072  15.089  15.848 -0.2241  0.1497  0.0578
13248W        W28379   9.209  12.226   1.559  0.0218 -0.0248  0.1773
13249W        W28380  16.718  13.146  12.017 -0.0538  0.2354 -0.2392
13250W        W28381  16.249  12.023   9.749  0.2119  0.3799 -0.2665
13251W        W28382  17.866   8.880   3.217 -0.0782 -0.1083 -0.1858
13252W        W28383   8.152   0.732  12.658  0.3182  0.2087 -0.2583
13253W        W28384  15.890   2.102   1.140  0.0011 -0.0723  0.1828
13254W        W28385   1.457   3.099  12.239  0.2156  0.0972 -0.0058
13255W        W28386  13.017   5.139  12.467 -0.0741 -0.1268  0.0620
13256W        W28387   5.818  18.227   0.175 -0.1147 -0.1918 -0.2085
13257W        W28388   3.709   2.745  10.422  0.0067 -0.1253  0.3362
13258W        W28389   2.276   4.324   2.728  0.1550  0.1905 -0.1074
13259W        W28390  12.559   0.376  15.176  0.0578 -0.0884  0.1121
13260W        W28391  17.947   3.263  13.691 -0.0549 -0.0754 -0.1892
13261W        W28392  11.735  10.773  12.713  0.1120  0.0298  0.0822
13262W        W28393   0.891   6.362  10.936 -0.0570  0.3301  0.0190
13263W        W28394   8.789  11.388   4.669 -0.2441  0.1582  0.0092
13264W        W28395  16.325  11.993   4.607  0.0346 -0.1238  0.2136
13265W        W28396   8.622   7.428  12.374 -0.2196 -0.1524 -0.2513
13266W        W28397   7.143  12.964   3.321 -0.0424  0.0265  0.2389
13267W        W28398   1.608  11.833  14.150 -0.2684 -0.1415 -0.0747
13268W        W28399  12.933  13.582  14.287  0.0648  0.0413 -0.1675
13269W        W28400  16.123  11.736   3.265 -0.0180 -0.1493  0.1315
13270W        W28401   6.773  10.110  12.103  0.1634 -0.1433 -0.2248
13271W        W28402  11.474  15.862  11.019  0.2547  0.0748 -0.0884
13272W        W28403  11.291  15.240   0.695 -0.0663  0.1692  0.0990
13273W        W28404   7.945   2.348  12.417 -0.0033  0.2532  0.1305
13274W        W28405   5.408  12.704  15.574  0.1167  0.0891  0.1418
13275W        W28406  17.138   1.899  12.880 -0.2181 -0.3383  0.2073
13276W        W28407  13.597   4.898  15.591 -0.1020  0.2783  0.1791
13277W        W28408   7.100   5.039  13.741  0.2393  0.1061 -0.3572
13278W        W28409   0.872   5.904   3.050  0.0436 -0.1095 -0.0611
13279W        W28410   9.970   1.297   1.813 -0.1082 -0.0354  0.0225
13280W        W28411   1.753   7.872  12.243  0.4056  0.3183 -0.1052
13281W        W28412   1.938   7.699  15.373  0.1236 -0.1145  0.1581
13282W        W28413  11.145   6.289  15.528 -0.1918 -0.0967  0.1750
13283W        W28414  15.629   3.159   0.078 -0.2773  0.1663  0.2941
13284W        W28415  17.977  13.606   4.158 -0.1641  0.0982  0.2551
13285W        W28416  12.124   5.892   0.640  0.1695 -0.0868  0.3156
13286W        W28417   2.990  13.566  12.655 -0.3388  0.1259 -0.2466
13287W        W28418   5.285  11.722  14.164  0.0266  0.0241 -0.0486
13288W        W28419  12.874  12.384   3.510  0.1386 -0.0018 -0.2017
13289W        W28420   2.250   7.776   0.021  0.2538 -0.1109  0.0276
13290W        W28421   5.512  17.943   1.824  0.1011 -0.2394  0.3382
13291W        W28422   4.957   8.444   2.267  0.1445  0.1799  0.0921
13292W        W28423  16.437   8.453  14.922 -0.0758 -0.0130 -0.0833
13293W        W28424   5.245   5.864  12.166  0.0705  0.0118  0.0213
13294W        W28425  14.192   2.184  12.279 -0.0223 -0.1890  0.2752
13295W        W28426  12.917   3.223   2.488  0.0540 -0.0317 -0.0892
13296W        W28427   3.556  11.411   0.705 -0.2157  0.0842 -0.2123
13297W        W28428  18.097  15.997  13.865  0.1519  0.2388 -0.0518
13298W        W28429  13.163  10.993   4.024 -0.1162 -0.0342  0.0164
13299W        W28430   1.422   2.469   0.033  0.0398 -0.0155 -0.1628
13300W        W28431   3.408   9.944   2.980 -0.2882  0.0785 -0.0764
13301W        W28432  11.609   5.783   1.624 -0.0156  0.1795 -0.0937
13302W        W28433   4.918   4.625   0.855 -0.1689 -0.3029  0.0488
13303W        W28434   7.214   9.144  15.274  0.0202  0.0181  0.1050
13304W        W28435   7.000  10.610   4.397 -0.2803  0.0718 -0.0452
13305W        W28436   4.716  11.306  16.033 -0.1223 -0.0419 -0.1057
13306W        W28437   0.306   4.754   3.164  0.1760  0.1121 -0.2559
13307W        W28438  17.251  15.970  15.577 -0.1136 -0.2368 -0.1776
13308W        W28439   5.776   9.036  12.962  0.1325 -0.1276  0.1477
13309W        W28440   7.836   5.967   3.228  0.1045  0.2548 -0.4183
13310W        W28441  18.013  18.295   3.469  0.1151  0.1079  0.0593
13311W        W28442   6.977   4.312   1.912  0.2615  0.1646 -0.1166
13312W        W28443  17.125  13.055  15.220  0.1431  0.1470  0.0153
13313W        W28444   3.899   9.189  14.074  0.1833  0.0544  0.3153
13314W        W28445   8.541  18.175   4.173 -0.0866 -0.0072 -0.1655
13315W        W28446   4.623  16.766   5.247  0.0852  0.0196  0.0689
13316W        W28447   9.904  13.677  14.537 -0.1800 -0.1467  0.0904
13317W        W28448   2.179   2.768  10.154 -0.1311 -0.2709 -0.0150
13318W        W28449   5.033   0.007   1.727  0.3981  0.0687  0.0863
13319W        W28450   8.323  16.706   4.883 -0.0787 -0.2540  0.2484
13320W        W28451  17.666  16.220  14.379 -0.0888  0.2647  0.0333
13321W        W28452   3.819   8.992  15.561 -0.5145  0.1870  0.1737
13322W        W28453   8.652  17.820   1.647  0.1148 -0.1933 -0.0987
13323W        W28454   3.433  17.525  11.409  0.1670  0.0257 -0.0140
13324W        W28455   2.355   4.381   1.986  0.0702  0.1130  0.0579
13325W        W28456  18.217   9.407  13.760  0.0887 -0.1682 -0.3066
13326W        W28457   3.088  16.741  14.562 -0.2399  0.0881  0.0920
13327W        W28458   8.904   3.371  13.001 -0.1935  0.2827 -0.0977
13328W        W28459   0.711  17.369   1.424 -0.0677 -0.1818 -0.1183
13329W        W28460  13.513  10.929  14.125  0.1897 -0.1085  0.0405
13330W        W28461  16.633   1.841  11.846  0.0024 -0.1762 -0.0435
13331W        W28462  11.224   6.267   3.129 -0.2851  0.0077 -0.1146
13332W        W28463  14.071   9.261   2.419 -0.2925 -0.2234 -0.1594
13333W        W28464   3.404   7.224   1.426 -0.4501 -0.1800  0.1596
13334W        W28465   5.221   6.666   0.465  0.2453 -0.1772 -0.0027
13335W        W28466  10.370   3.952  10.978  0.1355  0.0821  0.2121
13336W        W28467   7.880  17.095   5.504  0.0680 -0.2734  0.0650
13337W        W28468   3.506   1.218  15.113 -0.0436 -0.0187  0.0590
13338W        W28469   3.222  18.297   4.067 -0.2406 -0.0373  0.3669
13339W        W28470  15.949  14.090  12.542 -0.2628 -0.0541  0.5074
13340W        W28471  14.956   0.221  14.706  0.2790 -0.1031 -0.2925
13341W        W28472  10.698  14.192  14.844  0.1808  0.0025 -0.2438
13342W        W28473  12.028   5.058   3.609 -0.1153 -0.2943 -0.1011
13343W        W28474   3.754  11.173  10.795  0.5692  0.0132  0.1962
13344W        W28475   7.693   6.807   0.134 -0.1933 -0.0431 -0.0517
13345W        W28476   2.202  12.316   5.290 -0.2195 -0.1581 -0.0703
13346W        W28477   0.174  13.259   1.887 -0.0884  0.1832 -0.2254
13347W        W28478   9.579  10.988   1.426 -0.1883 -0.3309 -0.1936
13348W        W28479   1.109  16.687   1.103 -0.3180  0.1168  0.0939
13349W        W28480   7.920  17.608  16.088  0.2448  0.1099  0.0714
13350W        W28481   5.837   2.086   5.436 -0.0949  0.1707  0.0234
13351W        W28482  15.391  13.737   1.440  0.2042  0.1055  0.1223
13352W        W28483  12.479   9.909  12.702  0.1981 -0.1188  0.0090
13353W        W28484   0.514  18.096   0.746 -0.1722 -0.1719  0.0188
13354W        W28485   0.245   5.103  13.571 -0.1782  0.3939 -0.1963
13355W        W28486  17.993  12.347  10.559 -0.0384 -0.1341  0.1103
13356W        W28487  15.328  11.846   5.054 -0.1599  0.0909 -0.0639
13357W        W28488  16.794  13.067   3.063 -0.2076  0.0911 -0.2118
13358W        W28489  12.039  16.621  14.130  0.0754 -0.1878 -0.2309
13359W        W28490   6.591   1.070   3.640 -0.1210  0.1725  0.0783
13360W        W28491   6.177  11.998  11.363 -0.1747  0.0389 -0.1920
13361W        W28492  12.993   6.656   1.196 -0.2230  0.0018  0.0302
13362W        W28493   5.028   9.024   0.687 -0.0129 -0.0730  0.0673
13363W        W28494  18.158   7.764   4.124  0.2024 -0.1050 -0.2939
13364W        W28495   7.623   4.447   5.681 -0.2465  0.0661  0.1741
13365W        W28496   6.423   6.521   1.421  0.2009  0.1012 -0.0192
13366W        W28497   9.580   3.498   3.729  0.2422 -0.1416 -0.0231
13367W        W28498   1.853  11.429   5.499  0.3708  0.1482  0.0580
13368W        W28499  13.911   1.011  13.463  0.1173 -0.3906  0.3226
13369W        W28500   2.472  16.990  15.834 -0.4012 -0.0226 -0.2112
13370W        W28501   0.855   6.933  12.536  0.2874 -0.0480  0.2768
13371W        W28502   4.884   8.011   4.171 -0.0822 -0.1349  0.2025
13372W        W28503  10.207  10.298  16.057  0.1040  0.2117 -0.3292
13373W        W28504  17.454  15.342  13.886 -0.0038  0.1004  0.0964
13374W        W28505   0.151  13.984   4.427  0.0146 -0.1079 -0.1040
13375W        W28506   5.773   8.474   2.479 -0.1928 -0.2088  0.0760
13376W        W28507  14.815   0.137   0.376  0.3500  0.3858 -0.2581
13377W        W28508   3.496   7.127   0.924 -0.2459 -0.0854  0.0825
13378W        W28509   0.736  16.727  14.572 -0.2038 -0.2045 -0.2058
13379W        W28510  12.957  11.886  11.451  0.3069  0.0796  0.1118
13380W        W28511  15.110  13.652   0.523 -0.1415  0.2087  0.1026
13381W        W28512  12.792   8.581   2.303 -0.2074  0.2286  0.1993
13382W        W28513   6.844   8.778  15.333 -0.1550  0.1237  0.1662
13383W        W28514  14.104  12.892  12.011 -0.1531  0.1232 -0.0352
13384W        W28515  16.396  18.131   5.663  0.3364 -0.0748 -0.0587
13385W        W28516  14.049   4.645   1.706  0.0269 -0.0039  0.1375
13386W        W28517   0.366   4.990   3.785  0.1491 -0.2974 -0.0135
13387W        W28518  14.749  13.750   0.234  0.1600 -0.2064 -0.2373
13388W        W28519  12.412  17.765  10.479 -0.1182  0.2108  0.1308
13389W        W28520  14.288   8.606  14.545 -0.0277 -0.1323  0.2124
13390W        W28521  13.832  17.878   2.289  0.2062 -0.2284  0.3717
13391W        W28522  11.736   9.040  16.093 -0.1340  0.0930 -0.0552
13392W        W28523   7.965  13.155  10.255 -0.3426  0.2696  0.2518
13393W        W28524   3.530  17.208  12.344  0.1711 -0.0397 -0.0605
13394W        W28525   8.145   1.205   5.353  0.0498  0.0360  0.2900
13395W        W28526   0.832  10.162   5.047 -0.4463  0.0561  0.0719
13396W        W28527  17.371   1.776  15.854  0.0404 -0.2376 -0.3204
13397W        W28528  11.048   6.750  15.285  0.2482  0.1857 -0.2969
13398W        W28529   1.480   2.626   1.830 -0.1016  0.1769 -0.0256
13399W        W28530   6.888  16.602  15.969  0.1634  0.1321 -0.0962
13400W        W28531   4.140   4.913  11.094  0.0777 -0.1996 -0.1085
13401W        W28532  12.111  11.048  13.917  0.3139  0.0156 -0.0325
13402W        W28533   8.287  17.115  15.953  0.1551  0.1070  0.0541
13403W        W28534  14.146  14.842  10.601 -0.1225  0.0326 -0.1238
13404W        W28535  14.282  10.988  12.770  0.2916  0.2241  0.0102
13405W        W28536   5.673   2.373   1.478  0.0839  0.1402  0.1485
13406W        W28537  12.913   2.956   4.023 -0.0972  0.1010  0.0250
13407W        W28538  15.100  15.534   0.030 -0.2952 -0.1859  0.1924
13408W        W28539   5.068   0.677  12.121  0.0505 -0.0075  0.1739
13409W        W28540   1.038   6.613  15.731  0.1668 -0.1559 -0.1419
13410W        W28541   9.866  11.994   0.841 -0.0938 -0.0127  0.1340
13411W        W28542   5.934  17.154  11.196  0.0673  0.1006 -0.0070
13412W        W28543   2.797   2.089   2.322  0.3250 -0.0908 -0.1451
13413W        W28544   5.758   7.449   2.548  0.0388  0.0668  0.1298
13414W        W28545  11.057  17.864   0.618 -0.1173  0.1392  0.1808
13415W        W28546  16.390  14.663   4.792  0.1772  0.3879  0.0733
13416W        W28547  17.812   4.602  15.816 -0.3532  0.1123  0.0302
13417W        W28548  14.779   6.556  15.321 -0.1330 -0.1206 -0.3290
13418W        W28549  11.014   1.724  15.178  0.0739 -0.1404  0.0332
13419W        W28550  17.453  13.555   5.325 -0.4127  0.1401 -0.0471
13420W        W28551   8.367  13.604  13.423  0.0748  0.1246  0.2006
13421W        W28552  11.264  15.410  11.203 -0.2625 -0.0018  0.3296
13422W        W28553  12.999  15.593  10.337 -0.0357 -0.0857 -0.1284
13423W        W28554  11.594   8.614   5.116  0.1456  0.1330 -0.0959
13424W        W28555   0.462   5.949   0.542 -0.3044  0.3167  0.0733
13425W        W28556  17.639  15.766   0.732 -0.2715 -0.4136 -0.0693
13426W        W28557  13.802  15.867   5.291 -0.0362  0.1057  0.0367
13427W        W28558   9.984  17.100  14.910 -0.1421  0.0450 -0.3318
13428W        W28559   4.814  16.666   0.634  0.0974 -0.0817 -0.1540
13429W        W28560   6.162  11.848   5.157  0.0322 -0.1423 -0.1754
13430W        W28561   5.601   8.070  12.634  0.2126 -0.0172  0.1316
13431W        W28562   7.965  16.951  10.036 -0.0078  0.0233 -0.0295
13432W        W28563  16.320   2.854   2.508 -0.0126  0.0091 -0.1418
13433W        W28564   5.594  13.459  11.029  0.0862 -0.0074  0.0195
13434W        W28565  18.051   0.279   5.441 -0.0531 -0.1014  0.2044
13435W        W28566   8.464  11.694   1.976  0.1891  0.0920  0.2828
13436W        W28567  16.314  15.894  14.856 -0.0124 -0.0337 -0.1090
13437W        W28568   2.409  12.307  12.261  0.1929  0.2918 -0.1428
13438W        W28569  12.435  11.875  14.382 -0.1308  0.0143 -0.2298
13439W        W28570   8.194   2.181  11.075 -0.2958 -0.3968 -0.1355
13440W        W28571   5.360  13.789   4.809  0.2497  0.1234 -0.2555
13441W        W28572   5.740  17.133   2.447  0.3243 -0.0193  0.2182
13442W        W28573   3.887   7.142  13.915 -0.1652 -0.1149  0.2118
13443W        W28574  10.502  12.163   4.489  0.1203 -0.4129 -0.1600
13444W        W28575   8.320  12.086   1.126  0.1022 -0.3535  0.2576
13445W        W28576   2.459  10.882  15.740  0.0504 -0.1994  0.0777
13446W        W28577   2.078  17.042   3.017  0.0375 -0.0091  0.0439
13447W        W28578   5.915  11.739   2.256 -0.3599 -0.1850 -0.1124
13448W        W28579   9.688   5.731  14.593 -0.2067  0.0058  0.0580
13449W        W28580  14.592   0.419  14.346 -0.1205  0.2316  0.2195
13450W        W28581  16.271  10.726   3.936 -0.0688 -0.1457 -0.2070
13451W        W28582   0.812   5.345   2.523  0.0960 -0.1015  0.3430
13452W        W28583  11.146  16.938  11.112 -0.1948  0.0688 -0.1604
13453W        W28584   7.069  10.389  13.797  0.4901 -0.2258 -0.0255
13454W        W28585   8.914   4.250  12.521 -0.3199  0.0018  0.0088
13455W        W28586   9.141   1.853   0.238 -0.2005 -0.1562  0.0922
13456W        W28587  11.828   0.572  13.436  0.2555  0.1335 -0.0530
13457W        W28588   9.748   8.899   4.661  0.0734 -0.1002  0.0731
13458W        W28589   5.672  17.541  11.305 -0.0410  0.0614  0.0499
13459W        W28590   0.735   1.982  15.794 -0.2337  0.2019  0.0021
13460W        W28591   5.331   3.706   2.545  0.0565 -0.2336  0.1535
13461W        W28592  11.926  11.945  10.583  0.0238 -0.3500  0.0978
13462W        W28593   7.854  17.718   5.185  0.0114  0.2696 -0.4196
13463W        W28594  15.467   9.020  10.722  0.0798 -0.0816 -0.1545
13464W        W28595  15.837  16.314   2.496  0.2014 -0.4268  0.0762
13465W        W28596  16.355   1.709  13.503  0.0714 -0.2374  0.0163
13466W        W28597  15.752  10.038  10.669  0.1593  0.0503  0.0011
13467W        W28598  17.771  16.258  15.412 -0.0545 -0.0623  0.0895
13468W        W28599  12.670   8.483  15.699 -0.1172  0.1037 -0.1099
13469W        W28600   9.646  15.815   2.293 -0.3973  0.1835  0.0193
13470W        W28601   4.274   1.697   3.591 -0.1852  0.3746  0.0672
13471W        W28602  13.583   8.949  13.909  0.0613  0.1577 -0.0754
13472W        W28603  12.152  17.462  15.177  0.1500 -0.0625 -0.0588
13473W        W28604   6.434   5.670   0.963  0.1589  0.2605  0.1560
13474W        W28605  13.610  17.605  12.145  0.1181 -0.3363 -0.2886
13475W        W28606  12.417   3.241  15.862  0.0517  0.0031 -0.1421
13476W        W28607   7.572  11.569  13.359 -0.0142  0.3776 -0.0214
13477W        W28608  18.016   5.556  12.293  0.1854  0.0819 -0.0399
13478W        W28609   9.834  11.197  15.136 -0.0093  0.0725 -0.1216
13479W        W28610  14.473  17.538   4.235  0.2252  0.1111 -0.0475
13480W        W28611   7.142   2.037  15.920 -0.1269 -0.1990  0.0076
13481W        W28612  17.521   7.860  13.885  0.0274 -0.2168  0.0200
13482W        W28613   4.120   4.823   4.545  0.1005 -0.0931 -0.0387
13483W        W28614   8.449  15.611   1.031  0.3458  0.2525 -0.1718
13484W        W28615  10.818   2.787   0.678 -0.1347 -0.1057 -0.1176
13485W        W28616   9.578   0.767   5.288  0.0362  0.0968 -0.2638
13486W        W28617  10.321  10.494   5.616  0.3257  0.1631  0.3116
13487W        W28618   5.295  12.179   4.896 -0.0841 -0.0911  0.1531
13488W        W28619   3.749   6.958  14.990  0.3190 -0.2258  0.1270
13489W        W28620  16.973   6.029  11.428  0.1571 -0.1738  0.2918
13490W        W28621   7.292  10.489   0.823  0.0538  0.2930  0.0626
13491W        W28622  14.026  12.493  13.503  0.0009 -0.0590 -0.1080
13492W        W28623   6.369   1.915  10.391  0.1629  0.0062  0.1773
13493W        W28624   0.424   1.536  12.757  0.0988 -0.1755 -0.0360
13494W        W28625  17.980   8.332   4.129  0.0836  0.0568  0.0175
13495W        W28626  15.881  14.211   5.566  0.1742 -0.2997  0.0036
13496W        W28627  14.425   0.919   4.017  0.0538  0.2847  0.2530
13497W        W28628   3.938   9.175   0.218  0.1344 -0.0221  0.0018
13498W        W28629   0.582   9.961  15.484 -0.0277  0.0829  0.1413
13499W        W28630  11.383   9.626  10.754 -0.0616 -0.0270  0.1585
13500W        W28631  15.070  12.751  13.057  0.1211  0.0881 -0.1060
13501W        W28632   7.134  15.593   6.173  0.2570  0.1814 -0.0392
13502W        W28633   9.540  17.975  11.972  0.1172  0.0144 -0.2736
13503W        W28634   0.675   2.925  10.166  0.0011 -0.1176  0.1111
13504W        W28635  13.075  14.338   3.497  0.0188  0.0599 -0.2010
13505W        W28636   1.690  17.249   2.100 -0.4295  0.2335 -0.3315
13506W        W28637   3.758   6.804   0.330 -0.0592  0.0452 -0.1538
13507W        W28638   5.839   1.532   4.164 -0.0151 -0.4049  0.1778
13508W        W28639  16.513   1.311  16.093 -0.0328 -0.0183 -0.0019
13509W        W28640   8.727  13.378  15.360  0.1821  0.2148 -0.1234
13510W        W28641   7.334   9.720   3.599 -0.1861  0.1969 -0.2783
13511W        W28642   5.551  17.165  13.168  0.1084 -0.0783 -0.0890
13512W        W28643  10.454  17.122  14.715 -0.1743  0.0464 -0.1567
13513W        W28644   6.103   2.282   3.409  0.2457  0.0070  0.2788
13514W        W28645  11.125   2.304   1.640 -0.0088  0.1032 -0.1968
13515W        W28646  16.488  15.739   4.921 -0.0027  0.1774 -0.1797
13516W        W28647   9.243   4.305   0.079 -0.2555  0.2604 -0.0671
13517W        W28648  15.017  14.445   4.181  0.1626  0.1981 -0.0644
13518W        W28649   4.780   9.495   4.350 -0.0194  0.0415 -0.1220
13519W        W28650   8.427  13.263  12.098 -0.0478 -0.1649  0.1099
13520W        W28651  16.457  12.791  14.011 -0.2473 -0.4820  0.2028
13521W        W28652  13.153  10.440  13.297  0.1498  0.0121  0.0412
13522W        W28653  15.313   2.909  13.637 -0.3881 -0.3799  0.1233
13523W        W28654   5.802  12.622  13.516  0.0094 -0.1540  0.0464
13524W        W28655   5.115   2.565   5.013  0.0749  0.0958 -0.2169
13525W        W28656  16.024   2.841   0.189 -0.1872 -0.0949  0.0610
13526W        W28657   4.453   5.062   2.395  0.1979  0.3479 -0.0653
13527W        W28658  17.087   7.786   3.381 -0.0115 -0.2819 -0.0534
13528W        W28659  14.297   5.061  13.934 -0.2590 -0.0090 -0.3996
13529W        W28660  12.735  16.130   2.171 -0.1400  0.1749  0.1572
13530W        W28661  13.022   2.183   1.430  0.2904  0.0263 -0.0328
13531W        W28662   2.651   7.071  14.747 -0.1964 -0.3155 -0.0687
13532W        W28663  11.135  17.841  12.695  0.3569  0.2144 -0.0146
13533W        W28664  15.124   1.997  14.111  0.1430 -0.1893  0.3160
13534W        W28665   8.695  12.500  11.417 -0.0298 -0.3132 -0.1480
13535W        W28666  18.295   2.768  13.572  0.2694  0.0252 -0.4049
13536W        W28667   5.970  10.972  14.492 -0.0254  0.2657 -0.4984
13537W        W28668   0.662  14.969   3.911 -0.2707 -0.3855 -0.1885
13538W        W28669   3.103   3.760  15.254 -0.2759 -0.0819  0.2299
13539W        W28670  14.777   7.248   2.366 -0.1420  0.0426 -0.0609
13540W        W28671   3.133  10.790   4.607 -0.0950  0.0287 -0.3628
13541W        W28672   5.013  15.421  11.737  0.2745 -0.1074 -0.0307
13542W        W28673   3.729  11.654   4.055 -0.1659  0.0558 -0.2315
13543W        W28674   8.557  11.252  10.941  0.2367 -0.1146 -0.3616
13544W        W28675   5.589  15.205  14.222 -0.2377 -0.0886 -0.0573
13545W        W28676   8.046   5.835   5.941 -0.3101 -0.1910 -0.0883
13546W        W28677   5.280   9.246   3.246 -0.2462  0.0815 -0.0056
13547W        W28678  10.607   5.372   0.458 -0.1952  0.0068  0.2305
13548W        W28679  14.728   3.678  10.616 -0.0695  0.0676 -0.4162
13549W        W28680  17.346   7.358  15.899 -0.0160 -0.5396  0.0350
13550W        W28681   0.832   5.812   2.219  0.0879  0.1931  0.0960
13551W        W28682   8.999   8.353  15.397 -0.1193 -0.1214 -0.2399
13552W        W28683  11.820  17.579   0.495 -0.2243  0.1906  0.1046
13553W        W28684  10.836   2.948   3.737 -0.2727  0.1323  0.0343
13554W        W28685   7.541   2.936   0.858 -0.1944 -0.1644  0.0505
13555W        W28686   1.002   8.116   0.017  0.0069  0.1936 -0.0716
13556W        W28687   1.325   6.515   2.866  0.1141 -0.1567 -0.4316
13557W        W28688   8.196  14.717   4.211 -0.1682 -0.1260  0.1006
13558W        W28689  10.513  10.021  11.221 -0.0047  0.1132 -0.0853
13559W        W28690  12.875   9.372   4.783  0.1558 -0.1773  0.2613
13560W        W28691  16.893   1.003   3.537  0.1281  0.0985 -0.1223
13561W        W28692  14.941  10.787   5.422 -0.1670  0.0319  0.0400
13562W        W28693   5.974  11.982  11.797  0.1582 -0.2342  0.0318
13563W        W28694   7.846  12.015   0.902 -0.0504  0.3022  0.2151
13564W        W28695   8.600   8.586  10.615 -0.4182 -0.4334 -0.2446
13565W        W28696  16.294  15.806  14.352 -0.0887 -0.2063 -0.0312
13566W        W28697   7.686  16.179  14.639 -0.1278  0.2076  0.0771
13567W        W28698   7.583   7.734   2.371  0.0384  0.2535  0.0111
13568W        W28699  15.400  10.014  14.414 -0.2732  0.0423 -0.1193
13569W        W28700  13.333   6.692  11.291 -0.1564 -0.0787 -0.1023
13570W        W28701  14.953  10.333   5.147 -0.4752  0.0504 -0.0966
13571W        W28702   7.428  16.263  11.193 -0.1985  0.0964  0.2575
13572W        W28703  13.902  14.204  12.457 -0.0073  0.1181  0.0548
13573W        W28704   8.618   4.706  12.375  0.0751  0.0540 -0.0481
13574W        W28705   4.838  13.234  12.850  0.1962 -0.1413  0.1619
13575W        W28706   5.750   4.642  12.560 -0.0204  0.0309  0.0944
13576W        W28707   6.870  10.396  12.566 -0.2334  0.0761  0.2324
13577W        W28708  13.680  15.097   3.492 -0.1482 -0.0380 -0.1489
13578W        W28709  10.902  11.445   5.421 -0.2955  0.2729  0.0505
13579W        W28710  13.164  15.803  14.545  0.0908 -0.1759  0.3657
13580W        W28711  15.465  13.878   2.539  0.1790 -0.0412  0.2121
13581W        W28712   1.806   3.495   3.808  0.2536  0.0383 -0.2829
13582W        W28713  10.792   4.467  15.735 -0.0086 -0.4199 -0.0301
13583W        W28714   0.445  14.020  14.064  0.2648  0.3055  0.2228
13584W        W28715   2.636  15.415   2.039 -0.3003 -0.0870 -0.0480
13585W        W28716  15.293  16.414  11.694  0.0127  0.1541  0.0087
13586W        W28717  12.896   9.793   2.933  0.0788 -0.2998 -0.1215
13587W        W28718   4.684   6.149   2.035 -0.0581 -0.0332 -0.2058
13588W        W28719  17.087   4.044  15.963 -0.0513  0.0896  0.1981
13589W        W28720   8.189  17.675   4.533  0.1381 -0.0505 -0.3699
13590W        W28721  10.204   9.170   2.188 -0.0956  0.0570 -0.1241
13591W        W28722   7.594   8.581   0.130 -0.0476  0.0383  0.0710
13592W        W28723   4.406   3.855   2.495  0.0636  0.0500  0.0509
13593W        W28724  15.571   7.085   4.214 -0.0557  0.4263  0.0309
13594W        W28725   4.511   1.012  14.204 -0.1415  0.1297  0.2462
13595W        W28726  17.427  10.868  14.169 -0.0273 -0.1033  0.1496
13596W        W28727   1.083  14.766   1.719  0.1168 -0.0006  0.0896
13597W        W28728  15.379   6.610   9.927  0.3362 -0.3151 -0.0462
13598W        W28729   8.863  15.912  13.377 -0.1883 -0.0621  0.0689
13599W        W28730  11.056  14.317   2.460 -0.0177  0.2016  0.1976
13600W        W28731   8.311  12.110  11.299 -0.1324 -0.0927 -0.1700
13601W        W28732   2.892   2.354   3.514 -0.0156 -0.0016  0.1132
13602W        W28733  12.714  12.933  15.627 -0.2242  0.0071 -0.0304
13603W        W28734  14.411  12.661  14.466  0.2505  0.1879  0.1947
13604W        W28735  15.324  15.503   3.646  0.1035  0.0646 -0.0711
13605W        W28736  16.039  12.265   1.260  0.0293  0.4013 -0.2407
13606W        W28737   8.346  11.336   4.955  0.0383 -0.3091 -0.1574
13607W        W28738   2.761   2.566   1.532 -0.0642  0.3247  0.1564
13608W        W28739  15.924  12.267  11.184  0.0783  0.1396 -0.0125
13609W        W28740   2.147  18.327  14.368 -0.0598  0.2682 -0.0899
13610W        W28741  14.420  16.593   4.566  0.1608 -0.4491  0.0058
13611W        W28742   9.454   1.203  15.343  0.3867  0.2487  0.0291
13612W        W28743  16.701  15.429   0.243 -0.1344  0.3503 -0.2210
13613W        W28744   1.469  10.604   1.073  0.1803  0.2254 -0.1273
13614W        W28745  14.817   9.393   3.156  0.0810  0.1302 -0.0260
13615W        W28746  15.216   4.880  15.590  0.1543 -0.0598 -0.1283
13616W        W28747  13.213  17.277   0.067  0.0219 -0.0612  0.2078
13617W        W28748   1.969  16.678  12.171 -0.0970 -0.0600  0.0917
13618W        W28749  16.392   0.310  14.568  0.0347  0.2525 -0.2350
13619W        W28750  14.703  13.131  14.410 -0.2424 -0.0303  0.3932
13620W        W28751   8.766  10.669  14.457 -0.0403 -0.0611  0.1858
13621W        W28752   0.751   3.632  11.506 -0.0997  0.0270 -0.0821
13622W        W28753  11.218   2.260  14.011  0.1814 -0.1526 -0.0527
13623W        W28754   2.981   2.578  12.981  0.1944  0.0415  0.1118
13624W        W28755   3.824  17.308  10.469  0.2787  0.2461 -0.0601
13625W        W28756  10.649   8.037   4.314 -0.5243 -0.0590 -0.4797
13626W        W28757  12.799  15.842  12.150 -0.1496 -0.1029  0.4886
13627W        W28758  17.202   0.740  14.828  0.2077  0.0512 -0.1971
13628W        W28759  12.738   1.746   3.368 -0.2510 -0.1142  0.2733
13629W        W28760  12.864   0.715  13.396  0.4829  0.2599 -0.2006
13630W        W28761   8.155  13.184  13.534 -0.1466  0.2720 -0.4704
13631W        W28762  13.386   6.454   0.893  0.2083 -0.0818 -0.0931
13632W        W28763  14.758   5.578   4.118  0.0186  0.1509  0.0164
13633W        W28764   8.053   3.283  14.344  0.1436 -0.2610 -0.1837
13634W        W28765   4.671  11.864   2.771 -0.2799  0.1175  0.2780
13635W        W28766  14.885  11.076  11.409  0.2310  0.2760  0.3663
13636W        W28767   6.089  12.403   5.387 -0.0281  0.1735  0.3338
13637W        W28768  17.168  17.015   0.313  0.0593 -0.1640 -0.3332
13638W        W28769  16.407   7.201   5.563 -0.1488 -0.2401  0.0580
13639W        W28770  11.857   5.305  13.178 -0.0077  0.1353 -0.1344
13640W        W28771   1.840  15.055  11.130  0.0729 -0.0877  0.0195
13641W        W28772   3.813   9.819  12.362 -0.1429 -0.0686  0.2858
13642W        W28773   3.887   2.450   3.562 -0.2910  0.0068 -0.0919
13643W        W28774  14.305  11.379  15.986  0.1023 -0.2586  0.1084
13644W        W28775   7.060  12.854  14.878 -0.1217 -0.0564 -0.2376
13645W        W28776   8.121   8.306  12.448  0.3115 -0.0587 -0.0692
13646W        W28777  10.313   9.585  12.033  0.2553  0.2638 -0.1823
13647W        W28778   9.585   6.336  11.188 -0.0923 -0.0178 -0.0024
13648W        W28779   6.286  12.628  13.021  0.2240 -0.2253  0.1206
13649W        W28780  15.490   9.295  14.864  0.2431 -0.1841  0.2429
13650W        W28781  11.904  10.881   1.085 -0.4370 -0.1363 -0.0280
13651W        W28782   4.312  14.611  14.158 -0.0137 -0.3460  0.5558
13652W        W28783   6.561   3.910  13.167 -0.1463  0.0346 -0.1099
13653W        W28784  11.734  17.991  13.948 -0.0369  0.0450  0.2007
13654W        W28785  16.110   0.852   2.851 -0.1918  0.0038 -0.0752
13655W        W28786  13.759   1.105   3.289 -0.2393  0.1024  0.2411
13656W        W28787   8.181   5.258  12.932  0.1623  0.0996 -0.2776
13657W        W28788  16.010  12.195  13.572  0.0899 -0.0386 -0.0386
13658W        W28789   4.966   9.949  12.440  0.2122  0.0653  0.2278
13659W        W28790   0.208   7.367   2.659  0.0870 -0.1205 -0.2057
13660W        W28791   1.667   2.605   5.285  0.1018 -0.2103  0.1013
13661W        W28792  12.572  15.064  14.143  0.2694  0.2477  0.1246
13662W        W28793   6.499   9.068  14.072 -0.0907  0.0538  0.0626
13663W        W28794   3.203   3.209   1.472 -0.0699  0.0983 -0.0282
13664W        W28795  16.060   7.961   3.937  0.2440  0.1117  0.0371
13665W        W28796   0.930  17.458  15.189  0.2963  0.0792 -0.1274
13666W        W28797   4.072  12.077   5.510  0.3604  0.3001 -0.0958
13667W        W28798   3.036  12.481   4.195  0.0875 -0.0035 -0.2920
13668W        W28799  12.974  16.454  15.323 -0.0948  0.2255  0.0551
13669W        W28800   9.317   6.103   4.385  0.1412 -0.0467 -0.3183
13670W        W28801  13.416  12.945  14.339 -0.1207  0.2682 -0.2790
13671W        W28802  17.479   2.545   4.654  0.1581 -0.0996  0.0245
13672W        W28803   7.594  14.580  11.908 -0.0588  0.0895 -0.1881
13673W        W28804  10.290   9.941   1.875  0.1311 -0.2468  0.0118
13674W        W28805  13.176   5.980  14.084  0.0138  0.1639  0.0876
13675W        W28806  16.599  14.301  11.346 -0.0571 -0.1583  0.0625
13676W        W28807   3.301  17.125   4.277 -0.1545 -0.1926 -0.0238
13677W        W28808  12.488  13.308   3.511 -0.0255  0.2457  0.1749
13678W        W28809  13.316   8.102   4.904  0.1821  0.2485 -0.2251
13679W        W28810  18.160  13.215  13.936  0.2343  0.0445  0.0309
13680W        W28811  12.208  16.134   2.450  0.2736 -0.0130 -0.2577
13681W        W28812   6.864  17.977  14.743 -0.1600  0.0676  0.2795
13682W        W28813  12.663  11.480   3.221  0.1570 -0.2054 -0.1784
13683W        W28814  10.697  10.089   3.704 -0.2512  0.0048 -0.1773
13684W        W28815  13.698   7.730  13.824 -0.0130  0.0023  0.0355
13685W        W28816   9.483   9.085  10.757  0.0078  0.4460  0.0282
13686W        W28817  10.925   9.791  14.806  0.1396  0.2238 -0.0763
13687W        W28818   3.221   3.330  16.065  0.2478 -0.1939 -0.0452
13688W        W28819   6.321  12.977  15.975 -0.1439  0.0542 -0.0306
13689W        W28820  13.188   3.605   5.836  0.1718  0.1134 -0.0426
13690W        W28821  11.226   1.725   2.821 -0.3595 -0.2581  0.1779
13691W        W28822  10.833   0.664  13.302 -0.4319  0.1821 -0.1778
13692W        W28823   8.255  10.783   1.578 -0.1047  0.2338  0.0776
13693W        W28824   2.700   0.470  14.023 -0.1110  0.0230 -0.1463
13694W        W28825  13.178  17.942  12.854 -0.0562 -0.2023 -0.1827
13695W        W28826   0.757  17.774  15.583  0.3342  0.0103  0.3284
13696W        W28827  12.652  15.352   1.595 -0.1692  0.0126 -0.0376
13697W        W28828   2.960   9.192  13.986  0.1234 -0.1162  0.0220
13698W        W28829  15.128   4.323   1.348  0.1597 -0.3162 -0.2345
13699W        W28830   3.516  13.059  14.926  0.0386 -0.3155 -0.0187
13700W        W28831  11.350   8.437  13.295 -0.1573 -0.0177 -0.0287
13701W        W28832  11.014  13.435   5.044  0.3483 -0.0121 -0.3655
13702W        W28833  10.633  17.350   4.712 -0.0132  0.0282 -0.0832
13703W        W28834  13.552   6.007  15.614 -0.1015 -0.1078  0.3193
13704W        W28835  12.913   9.920  11.514 -0.1659 -0.2468 -0.0289
13705W        W28836  12.551   7.424  10.840 -0.0223 -0.1460 -0.0717
13706W        W28837  14.121   3.207   3.526 -0.1206 -0.5149 -0.0363
13707W        W28838  11.133  16.394   9.779 -0.3679 -0.1271 -0.0375
13708W        W28839  10.576  12.794  13.182  0.0733  0.1128 -0.2387
13709W        W28840   6.969  12.705  11.203  0.2219  0.4890  0.1427
13710W        W28841   0.498   8.802   2.927 -0.2909  0.2290 -0.0129
13711W        W28842   9.231  12.655   3.191 -0.3259  0.0370 -0.0494
13712W        W28843  16.312  18.175  15.371 -0.0184 -0.1356  0.0059
13713W        W28844  11.469   9.509   1.756  0.0782 -0.1894 -0.0437
13714W        W28845  16.875  17.802   1.208  0.1491  0.1720  0.0943
13715W        W28846  16.521  13.481   0.427  0.2432 -0.1653  0.1170
13716W        W28847   9.741   4.157  11.592 -0.1233  0.0283  0.0042
13717W        W28848   3.582  17.078   1.991 -0.2455 -0.1495 -0.0055
13718W        W28849   7.966   5.754   5.356 -0.0360 -0.0968 -0.0176
13719W        W28850  13.508   6.940  14.378 -0.1414  0.0655  0.1495
13720W        W28851   5.686   5.767  11.851  0.0608  0.1269  0.1979
13721W        W28852   7.980  11.130  12.164 -0.0800  0.1640  0.0106
13722W        W28853   9.344  12.177  15.612 -0.0497 -0.0498 -0.2867
13723W        W28854  18.099   6.923  12.800  0.1156 -0.0004  0.1162
13724W        W28855  13.314   6.533   3.541  0.1368 -0.1921 -0.0146
13725W        W28856   2.811  12.910   5.212 -0.0556  0.0858  0.0831
13726W        W28857  14.744   2.697  15.367  0.1011  0.0114 -0.1456
13727W        W28858   9.436  18.182  13.198 -0.0004  0.0723  0.1632
13728W        W28859   8.836  11.670  13.016 -0.2881  0.1850  0.1007
13729W        W28860   0.986  11.175   4.107  0.0960 -0.0441 -0.0863
13730W        W28861   2.551   2.495   4.724 -0.3758 -0.1761  0.1734
13731W        W28862  13.111  12.346  10.375 -0.0456 -0.3461 -0.1644
13732W        W28863   7.730  11.162   0.232 -0.0271  0.0454 -0.1058
13733W        W28864  16.125  12.143  14.027 -0.1861  0.0810 -0.1718
13734W        W28865  16.685   6.940   4.427  0.1590 -0.2089 -0.0585
13735W        W28866  16.316   6.722   4.707 -0.1044  0.0820  0.0289
13736W        W28867   0.531   3.753   3.406  0.1511  0.0126 -0.1477
13737W        W28868  18.006   3.331  15.226  0.2088 -0.2434 -0.0875
13738W        W28869   5.718   3.745   1.622  0.0554 -0.2548 -0.0120
13739W        W28870   6.477  12.622  10.913 -0.2375  0.0532 -0.0700
13740W        W28871  17.563   4.194  15.709 -0.1130  0.3026 -0.1008
13741W        W28872  17.762   9.618  11.869 -0.0753  0.3087 -0.2608
13742W        W28873   3.710   0.494   4.168 -0.2392 -0.1362  0.0138
13743W        W28874   2.327   6.106   3.037  0.0579  0.3919  0.0170
13744W        W28875   5.415   5.122  15.410  0.0652 -0.0050 -0.0557
13745W        W28876   8.166   2.097   5.581  0.0088  0.1894  0.0214
13746W        W28877   6.203   4.760  11.613  0.0331  0.1427 -0.0595
13747W        W28878  17.985   5.610  13.877  0.1468  0.2167  0.3188
13748W        W28879  13.131   4.108   2.017  0.1291  0.1924 -0.1802
13749W        W28880   6.596   6.099  13.078  0.2321  0.0167 -0.2159
13750W        W28881   6.619   2.075  13.076  0.1464  0.0971  0.1951
13751W        W28882   8.947   8.852  13.403 -0.1897  0.2386 -0.1307
13752W        W28883  17.814  12.914   5.729  0.3491 -0.2304 -0.0504
13753W        W28884  12.044   6.584  13.833  0.1837  0.1416 -0.2708
13754W        W28885   0.409   4.068   0.554  0.3535  0.0724  0.0660
13755W        W28886  10.725   0.326  12.847  0.0659  0.1076  0.0326
13756W        W28887   8.753  14.782   4.052  0.2998 -0.1762  0.1204
13757W        W28888   5.649   9.320  15.134  0.0081  0.1466  0.3521
13758W        W28889   9.890   6.332  15.189 -0.1263  0.0568 -0.5020
13759W        W28890  16.812  11.880   4.788 -0.1286 -0.1329 -0.0217
13760W        W28891   6.433  13.915  14.585 -0.2452  0.1574 -0.0717
13761W        W28892  12.097  10.446   0.963  0.0160 -0.0971 -0.0274
13762W        W28893  15.674   6.641   3.102 -0.0346  0.2511 -0.4140
13763W        W28894  17.052  17.393   4.680 -0.0988 -0.1478  0.0745
13764W        W28895   4.999  14.494  15.032 -0.0835  0.1672  0.1904
13765W        W28896   4.971   4.768  14.673  0.0787  0.4355 -0.1435
13766W        W28897  15.744   7.737   1.173  0.0877 -0.1063 -0.3980
13767W        W28898  11.511   5.846  12.033  0.1553  0.3323  0.0649
13768W        W28899  14.322  17.739  10.352 -0.1824  0.0872 -0.2620
13769W        W28900   0.967   0.710  15.511 -0.3087 -0.1665 -0.0428
13770W        W28901  18.014  18.285  12.997 -0.2106 -0.1234 -0.2279
13771W        W28902   1.185  15.952  13.044 -0.1844  0.0759  0.0999
13772W        W28903  15.160   2.130   3.303 -0.2248  0.3033 -0.0020
13773W        W28904  15.218   9.645   2.803  0.2307  0.2036  0.0999
13774W        W28905  11.736  15.315  15.842 -0.1423 -0.4799 -0.0988
13775W        W28906  12.528   5.196   0.958  0.0534  0.0768  0.1519
13776W        W28907  12.265   9.399  15.635 -0.0585 -0.2649  0.4191
13777W        W28908  14.111   5.039   2.415 -0.1276  0.1679 -0.0033
13778W        W28909  17.041  17.043  14.555  0.0828  0.1978 -0.1043
13779W        W28910  17.451   4.213  12.779  0.1616  0.0801 -0.2322
13780W        W28911  15.282  12.607  15.551  0.0700  0.2457  0.1159
13781W        W28912  17.270   0.189   1.354 -0.0083  0.1595  0.0850
13782W        W28913   7.014  13.620  15.883  0.0105 -0.2422  0.0045
13783W        W28914  16.626   4.215  15.259 -0.2101 -0.1115  0.1202
13784W        W28915  12.667   6.885   0.856 -0.2346  0.2278 -0.0434
13785W        W28916  17.674  18.148  14.737  0.0476 -0.4058  0.0926
13786W        W28917  15.750  16.366   1.898 -0.3090 -0.1280  0.0320
13787W        W28918  10.792   6.341   1.102 -0.1604 -0.1258  0.0755
13788W        W28919   2.397  13.305   3.834 -0.1063 -0.0187  0.0398
13789W        W28920   8.244   8.732  14.896 -0.0359  0.2352 -0.0883
13790W        W28921   8.709  13.934  11.531 -0.4164 -0.1480 -0.0680
13791W        W28922   2.795   9.060  11.007  0.3503  0.0363  0.2113
13792W        W28923   5.975   0.494   6.422 -0.4615 -0.0472 -0.0640
13793W        W28924   7.460   1.198   0.174  0.2902  0.2180  0.0827
13794W        W28925  16.567  13.785   4.649  0.1794 -0.2660  0.1350
13795W        W28926   5.787  13.658  13.956  0.1959  0.1891  0.0227
13796W        W28927   1.022  16.965   5.541  0.0228  0.0249 -0.1515
13797W        W28928  14.675  13.572   4.240 -0.0792  0.1334 -0.0315
13798W        W28929   9.981   5.469  16.042 -0.1776 -0.1410 -0.1308
13799W        W28930   3.798   3.871   2.641 -0.1022 -0.0036 -0.2232
13800W        W28931  18.198  10.023   4.593 -0.0687  0.0943  0.0975
13801W        W28932   7.382   6.506  15.986  0.2284  0.2253  0.0383
13802W        W28933   9.792   1.752  13.401  0.1474  0.3237  0.2593
13803W        W28934   9.569  16.928  14.615  0.1269 -0.2222 -0.2272
13804W        W28935  16.049   1.099   4.286  0.1647  0.0559  0.1218
13805W        W28936  13.420   0.979   4.416 -0.0407 -0.0689  0.3362
13806W        W28937   0.468  13.629  14.353  0.4121  0.2554 -0.0164
13807W        W28938  17.455  16.082  11.367  0.0996  0.1341 -0.0034
13808W        W28939   9.211   8.569  14.564  0.1162  0.1541 -0.1453
13809W        W28940  11.215  15.630  13.007  0.0578 -0.1437 -0.1263
13810W        W28941   3.245   3.336  15.012 -0.0131  0.2413 -0.1132
13811W        W28942  10.174  17.586   0.890  0.0848 -0.1732  0.0318
13812W        W28943   7.375  17.752  11.604  0.1703  0.1924 -0.3055
13813W        W28944   1.104  13.018  15.846 -0.0100  0.3079  0.4211
13814W        W28945   7.804  11.991  11.072  0.2414  0.2312  0.0755
13815W        W28946  13.393  11.643  15.875  0.3113  0.0797 -0.2295
13816W        W28947   0.660   8.458   0.109 -0.1771 -0.0627 -0.0786
13817W        W28948  17.623  17.731   0.610  0.4371 -0.0241 -0.0556
13818W        W28949   0.318  14.198   2.076  0.2275  0.0887  0.0144
13819W        W28950   6.744  17.222  10.170 -0.1174 -0.3172  0.1234
13820W        W28951   0.279  13.004  11.892  0.0851  0.3067 -0.1651
13821W        W28952  12.449   4.556  12.946  0.1192  0.2361  0.0615
13822W        W28953   9.274  13.500  14.138  0.0504 -0.0703 -0.0098
13823W        W28954   3.362  14.621  11.028 -0.0346 -0.2139 -0.4584
13824W        W28955  11.452  12.909  11.079 -0.0888 -0.0348  0.0777
13825W        W28956   0.144   5.552   3.331  0.0021  0.1478  0.2193
13826W        W28957   1.099   7.828  13.565 -0.1748  0.1595 -0.0868
13827W        W28958   7.959   2.984  11.180 -0.3572 -0.0735  0.2754
13828W        W28959  13.759   4.833  10.431  0.1156  0.0367 -0.0195
13829W        W28960   2.714   8.944   1.508  0.2747  0.0967 -0.0942
13830W        W28961  10.379   7.738  15.866 -0.1142 -0.1315  0.0218
13831W        W28962   1.392   6.976   3.068  0.0514 -0.2964  0.0065
13832W        W28963  11.581  13.593  14.489  0.4086  0.2030  0.1246
13833W        W28964  14.908   2.044  12.808 -0.0211 -0.0089  0.3043
13834W        W28965   9.099   0.080   3.871 -0.0422  0.1616  0.3719
13835W        W28966  16.518  17.458  13.694 -0.0969  0.4182 -0.1136
13836W        W28967   4.012   7.738  13.876  0.0300  0.0326  0.1823
13837W        W28968   6.265   9.028   4.247  0.1532  0.0461  0.1490
13838W        W28969   3.465   4.515  14.667  0.3032 -0.0983 -0.2833
13839W        W28970   3.752  12.383   2.823  0.0527 -0.1735  0.1485
13840W        W28971  14.030   0.293   4.998 -0.2246 -0.1861 -0.1545
13841W        W28972  11.318   5.533   4.508  0.2302  0.3043  0.2480
13842W        W28973  11.077   4.472  10.903 -0.1641  0.0249  0.1958
13843W        W28974  14.617  12.804   1.172 -0.3770  0.0740 -0.3704
13844W        W28975  10.150  15.866   1.420 -0.3404 -0.1419 -0.0810
13845W        W28976   6.080   9.298  13.272 -0.1827  0.0339 -0.3882
13846W        W28977   7.602  13.302   0.565 -0.1078 -0.0497 -0.3516
13847W        W28978   5.383   0.997  12.318  0.0034 -0.1268 -0.2155
13848W        W28979  16.985   1.366   1.104  0.1162  0.1404  0.2615
13849W        W28980   7.829  15.015   4.030 -0.3315  0.0183 -0.0279
13850W        W28981   0.977  11.135   2.960  0.0358 -0.2401  0.2462
13851W        W28982  11.793  10.994  15.593  0.2961  0.2269 -0.1568
13852W        W28983   3.577  15.431   0.774 -0.2143  0.1438 -0.0833
13853W        W28984   1.643  11.504   2.711  0.3060  0.3065  0.0833
13854W        W28985  17.074  13.565   0.155 -0.0762 -0.0553 -0.0187
13855W        W28986   5.210   0.869   4.398 -0.2821 -0.2549  0.2235
13856W        W28987   3.809   4.968   0.080 -0.2264  0.1323 -0.1943
13857W        W28988   7.861   6.948  10.672  0.0816 -0.1686 -0.0270
13858W        W28989   4.337   4.597   6.014 -0.0188 -0.0667  0.0552
13859W        W28990   2.332   2.349  14.028  0.2226  0.0326 -0.4280
13860W        W28991  15.062   6.916   5.395 -0.0268  0.1171 -0.3469
13861W        W28992   7.044  16.674   0.764 -0.1728  0.2670 -0.0381
13862W        W28993   5.763  16.066   4.109 -0.0514 -0.0013 -0.0376
13863W        W28994   2.341  17.907   3.957  0.3033 -0.2888 -0.2128
13864W        W28995  18.297  13.301   4.926  0.0284  0.2769 -0.0819
13865W        W28996   5.522   6.409  15.633 -0.3017  0.2553 -0.0506
13866W        W28997   7.572  11.183   0.978  0.0721 -0.2874  0.3496
13867W        W28998   7.345  14.974  15.640 -0.2826 -0.1148  0.0898
13868W        W28999  15.281  10.370  12.360  0.0646  0.1518 -0.4103
13869W        W29000  16.545  14.705  15.283  0.0910 -0.2986  0.0446
13870W        W29001  11.184   7.906  14.898  0.0234 -0.3520 -0.0447
13871W        W29002  16.598   0.280  14.094  0.0216  0.0830  0.0554
13872W        W29003  13.766   3.672   2.049  0.2297 -0.4674 -0.0287
13873W        W29004  10.998   9.362   4.490  0.1336  0.2933 -0.1049
13874W        W29005  12.322  11.677   3.655  0.4941  0.0817  0.3054
13875W        W29006  15.436   7.481  12.084 -0.2136 -0.4231  0.0792
13876W        W29007  16.557  17.724  14.194 -0.1442 -0.2954  0.0512
13877W        W29008  11.623  16.597  11.123  0.0510 -0.2549 -0.0392
13878W        W29009   6.545   8.941   1.593  0.0584  0.3857  0.1338
13879W        W29010  11.990   2.156   2.553 -0.0277 -0.1057  0.0321
13880W        W29011  15.997   2.691   5.388  0.1658 -0.0184 -0.0252
13881W        W29012  13.611  10.830   3.250 -0.2395  0.0660 -0.0159
13882W        W29013   2.887  12.512   0.299  0.1997  0.1951  0.3608
13883W        W29014   2.037  11.931   0.351  0.2099 -0.0576  0.0045
13884W        W29015   1.683  16.236  15.148  0.1155 -0.1353  0.0550
13885W        W29016  11.684   7.374  10.839 -0.3620 -0.0873  0.0779
13886W        W29017   8.722   0.720   3.564  0.2994  0.0378 -0.2536
13887W        W29018   5.443   7.822   2.801  0.0913 -0.0000  0.1205
13888W        W29019  17.119   0.375  12.636 -0.0895  0.2219 -0.2622
13889W        W29020   4.904  14.276  13.212  0.0908  0.2329  0.0821
13890W        W29021  12.115  10.248   4.216 -0.0036  0.0596  0.1121
13891W        W29022   5.379   5.557  15.142 -0.0365 -0.2836  0.1838
13892W        W29023   6.226   4.687   6.182  0.2620  0.2060  0.2658
13893W        W29024  12.849   7.635   3.689 -0.0244 -0.0094 -0.0433
13894W        W29025  13.384  17.997   2.089  0.2905  0.2112 -0.0680
13895W        W29026  10.459   3.471   1.304 -0.0527  0.0427 -0.0500
13896W        W29027   9.581  11.790  10.694 -0.0384 -0.1138  0.1953
13897W        W29028   7.615  12.434   2.811  0.0762  0.2229  0.2671
13898W        W29029  13.403   6.603  14.794  0.0571  0.0194  0.0408
13899W        W29030   7.184   7.675   5.032  0.2010  0.1918 -0.4458
13900W        W29031   6.805   3.525   1.292 -0.2638 -0.0520  0.2331
13901W        W29032   7.135  14.478   4.552 -0.0364 -0.4552  0.1009
13902W        W29033  15.235   6.971  14.222  0.3252 -0.2817  0.0024
13903W        W29034   4.614   0.762  11.923 -0.0381 -0.0554 -0.3654
13904W        W29035   6.859   7.432  14.244  0.0592 -0.0760 -0.2578
13905W        W29036   1.914  10.111  15.278 -0.1484  0.0195  0.2075
13906W        W29037   7.447   1.614   4.525  0.2195 -0.0393  0.0429
13907W        W29038   6.775   8.223   5.323  0.0597  0.0246 -0.0187
13908W        W29039   3.867   6.333   9.895  0.0547 -0.0425 -0.0079
13909W        W29040  10.987   6.853  13.012  0.3628 -0.0786  0.1509
13910W        W29041  14.082   8.988  15.372 -0.1773  0.0759  0.0927
13911W        W29042   6.614  13.724  12.938  0.1107 -0.1001 -0.0451
13912W        W29043  15.558   3.481  14.415  0.3116 -0.0467 -0.0240
13913W        W29044  16.232  14.144   4.735 -0.2597 -0.0335 -0.0532
13914W        W29045  16.619   1.757   0.052  0.0182 -0.0449 -0.0290
13915W        W29046   5.441   6.067  10.896  0.1563  0.0458  0.0222
13916W        W29047   2.354  14.621   3.718  0.2890  0.1085 -0.0300
13917W        W29048  10.625  18.095   1.993 -0.3661 -0.0841 -0.0506
13918W        W29049   1.689  11.064  13.177 -0.1810 -0.2489  0.1587
13919W        W29050   5.952   6.567  15.898 -0.1193  0.4596 -0.0094
13920W        W29051  11.544  11.600  15.638 -0.1839 -0.0951  0.0555
13921W        W29052  17.624  13.636   2.953  0.2905  0.0923  0.1006
13922W        W29053   0.278   0.285  14.238 -0.2055  0.1080 -0.2875
13923W        W29054   0.327  10.174  12.615 -0.1204  0.0604  0.0850
13924W        W29055   1.453  11.031   0.184 -0.2900 -0.0214 -0.0123
13925W        W29056  10.848   5.708   5.234  0.2249  0.5335 -0.1128
13926W        W29057  11.323  11.985   0.590  0.2214 -0.2294 -0.1107
13927W        W29058  15.653   4.758  15.390 -0.0419  0.0721  0.1663
13928W        W29059   9.450  16.111   1.872 -0.0042  0.0722  0.1281
13929W        W29060  10.590  13.499  14.083 -0.1415  0.1441  0.1854
13930W        W29061  13.262   3.196  15.685  0.0054  0.6318  0.1545
13931W        W29062  17.193   0.354   5.382  0.0244  0.0795  0.0369
13932W        W29063   7.475   6.470  14.880  0.0734  0.1313  0.0624
13933W        W29064   9.184   1.329   0.644  0.0145 -0.2513 -0.0779
13934W        W29065   4.988  12.942   3.189 -0.0358  0.3634 -0.1427
13935W        W29066   9.287   5.008   4.962  0.1287  0.2249 -0.2417
13936W        W29067  17.688  14.138  13.702  0.1539  0.1558 -0.0679
13937W        W29068  10.325  18.257  13.794  0.1883 -0.1183 -0.1140
13938W        W29069  15.356  15.998  11.449 -0.3025  0.3121 -0.1534
13939W        W29070   7.094   9.733  11.903  0.1132  0.0075 -0.0803
13940W        W29071  11.731   1.436   3.913 -0.0778  0.0609  0.1276
13941W        W29072  16.073   8.234  11.650  0.1227  0.3054  0.0884
13942W        W29073   4.426  10.673  15.174 -0.0118  0.3493 -0.2242
13943W        W29074  17.141  10.486   5.979  0.1679  0.1964 -0.1636
13944W        W29075   9.671  12.366   5.363  0.2867 -0.0239  0.0674
13945W        W29076   2.304   0.982   4.307  0.1403  0.0464  0.1602
13946W        W29077   1.786   7.911   0.213 -0.0701  0.1509  0.1092
13947W        W29078   9.050   6.361  15.440 -0.4358  0.3008 -0.2324
13948W        W29079   9.703   1.197   4.353 -0.0499  0.0406 -0.1991
13949W        W29080   5.311  11.725   3.140  0.0913 -0.1022 -0.1792
13950W        W29081  14.747   4.564   3.130 -0.2586 -0.4121 -0.0089
13951W        W29082   6.979   2.673   5.219  0.1583  0.2725  0.2112
13952W        W29083  13.986  15.667   0.134 -0.1036 -0.0952 -0.1504
13953W        W29084  16.769  17.834   5.875 -0.3100  0.2266  0.1192
13954W        W29085  10.724   2.456   0.250  0.0235 -0.0835 -0.4714
13955W        W29086  13.493   3.962  11.763 -0.0038 -0.1387 -0.1169
13956W        W29087  12.623   7.735   2.168  0.1593  0.0242 -0.2092
13957W        W29088   1.034   2.021   1.244  0.1262 -0.1673  0.1209
13958W        W29089  13.555   7.189   0.270  0.2242  0.0914  0.2074
13959W        W29090   1.541   3.558  13.720  0.0204  0.4113 -0.2574
13960W        W29091   0.830   6.360  13.562 -0.1238 -0.0586  0.0788
13961W        W29092  11.414  18.175   4.907 -0.1571 -0.2699  0.1091
13962W        W29093   4.895   3.547  15.922  0.1017 -0.7452  0.0761
13963W        W29094   6.803   5.836   4.389 -0.0413 -0.0949 -0.1107
13964W        W29095   2.493   8.960   2.846  0.0786 -0.0013 -0.4176
13965W        W29096  10.969   0.886   5.324 -0.1784 -0.1110  0.1391
13966W        W29097   8.021   8.517  10.507  0.1377 -0.2478 -0.0669
13967W        W29098  16.060  17.172   3.803  0.0595  0.0018 -0.0251
13968W        W29099   6.500   8.124  14.936 -0.0880 -0.4382 -0.2027
13969W        W29100   6.369   9.832  10.052 -0.0255 -0.1204 -0.1803
13970W        W29101   8.475   4.965   5.556 -0.0255 -0.0685 -0.1407
13971W        W29102  11.470  14.390   4.654 -0.2236  0.2291 -0.0384
13972W        W29103   5.356   2.957   5.331 -0.1582  0.2293  0.0626
13973W        W29104  11.273  11.829   1.128 -0.0472  0.0816 -0.0254
13974W        W29105  10.156  16.007  12.057  0.1761 -0.2335 -0.0099
13975W        W29106  11.681   2.143  15.797 -0.2487 -0.0433  0.2784
13976W        W29107   9.630   1.255  10.096 -0.0297  0.0389 -0.0269
13977W        W29108  13.664  11.904  12.929 -0.3858 -0.1417 -0.0395
13978W        W29109   3.873   6.525   5.470 -0.1430 -0.2979 -0.5736
13979W        W29110  11.790   6.270  12.140  0.0695  0.2347 -0.1439
13980W        W29111   9.326   0.179   1.884  0.0989  0.1445  0.1972
13981W        W29112   3.774   8.808   4.354 -0.0514  0.1695  0.1754
13982W        W29113   5.524   0.255   0.512 -0.1707  0.1190  0.1074
13983W        W29114   9.124   2.321  15.229  0.1827 -0.1624  0.2537
13984W        W29115  14.160  16.293  12.132 -0.0340 -0.0956  0.1052
13985W        W29116  11.553  15.421   3.189 -0.0478  0.1700  0.2883
13986W        W29117   1.879  10.480  12.468  0.1872 -0.0266 -0.1838
13987W        W29118  16.579   9.083  10.186  0.4166 -0.2765  0.0220
13988W        W29119  15.227  12.126   3.531 -0.0357  0.2144 -0.0070
13989W        W29120   5.054   5.368  11.967 -0.0247 -0.0987  0.0645
13990W        W29121   0.660   1.444  10.987  0.0611  0.1267  0.1226
13991W        W29122  13.075   1.658   4.887  0.2678 -0.0797 -0.1178
13992W        W29123   0.419  15.015  14.411  0.0155  0.4622  0.0941
13993W        W29124   5.145  18.318  15.124 -0.1089  0.3542  0.0834
13994W        W29125   4.451   9.113  14.114 -0.3874  0.2077  0.1132
13995W        W29126  17.073   0.092  13.058  0.0802  0.0105 -0.0738
13996W        W29127  16.890   4.550  11.466  0.1904 -0.0931  0.1565
13997W        W29128   6.081   7.631  13.626 -0.1405 -0.3228 -0.1646
13998W        W29129   1.209  16.865  14.504  0.0556 -0.2139 -0.0290
13999W        W29130   4.906   3.014   1.728  0.1074 -0.1119 -0.3988
14000W        W29131   9.727   9.215  14.018  0.0786 -0.2023  0.1310
14001W        W29132  12.844  15.640   2.245 -0.1639  0.1047 -0.0763
14002W        W29133  10.843   8.080   2.272  0.0193 -0.0051  0.1164
14003W        W29134  12.716   8.156  13.043  0.2463 -0.3500 -0.1583
14004W        W29135  11.995   8.012   0.975 -0.0469  0.0716 -0.1946
14005W        W29136  17.754  12.984   1.187  0.3114  0.1111  0.1524
14006W        W29137  16.129  12.412   5.309  0.0419  0.1363 -0.0389
14007W        W29138   7.392   7.697  12.911  0.2825 -0.2028 -0.2612
14008W        W29139   1.508   3.958   3.829  0.0905  0.0925  0.0790
14009W        W29140  14.184  16.240  10.938  0.1319 -0.1930  0.0843
14010W        W29141   6.183   3.811   3.521 -0.3305  0.3411 -0.1682
14011W        W29142  16.310   1.024  11.265  0.2917  0.0424 -0.1932
14012W        W29143  14.362  16.443   3.640 -0.0655 -0.0712  0.1981
14013W        W29144  11.927  14.393   3.640  0.0876 -0.0600  0.1396
14014W        W29145  12.920  15.416   4.950 -0.0664 -0.0194  0.1364
14015W        W29146  11.004  10.648  14.673  0.1887  0.1494 -0.3057
14016W        W29147  16.167  11.343  15.633  0.0662  0.1159 -0.3902
14017W        W29148  16.877   0.633  13.670 -0.0886  0.0329 -0.4679
14018W        W29149   6.325  17.337   2.434 -0.0047 -0.1024 -0.0839
14019W        W29150  14.940  11.401   1.338 -0.2022 -0.4227  0.0354
14020W        W29151  14.340   5.624  15.478  0.0267 -0.1059  0.2977
14021W        W29152   9.528   6.964  11.923 -0.1988  0.3056 -0.1593
14022W        W29153  15.577   4.625   0.255 -0.0708 -0.0644 -0.1269
14023W        W29154   3.441  10.029   0.557  0.0213  0.1377  0.1895
14024W        W29155  17.932   3.268  14.262  0.1569  0.0821  0.2223
14025W        W29156   4.920   3.862  13.925 -0.3925  0.0835  0.0400
14026W        W29157   0.725  14.049  10.019  0.0743 -0.1500  0.0450
14027W        W29158  11.786   9.403   2.795  0.1649 -0.3659 -0.2780
14028W        W29159   5.714   7.596  11.633  0.0350 -0.1085 -0.0301
14029W        W29160  13.734   1.326   2.791 -0.2502  0.0163 -0.0318
14030W        W29161  16.996   2.080   2.876 -0.0352 -0.0934 -0.0136
14031W        W29162  13.998  11.040   3.407 -0.0303  0.0027 -0.2058
14032W        W29163  13.820  17.719  11.618 -0.1415  0.2824 -0.3835
14033W        W29164   1.531  15.590   6.168 -0.4822  0.0325  0.0763
14034W        W29165   7.969   5.547   1.282 -0.2578 -0.1937 -0.1695
14035W        W29166   1.186  15.244   2.392 -0.2918  0.2902  0.0822
14036W        W29167   7.412  14.165   3.684  0.1390  0.0759 -0.0818
14037W        W29168  14.163  17.313  11.570  0.0541  0.0852 -0.2620
14038W        W29169   8.717   1.172   2.708 -0.0061 -0.0202  0.1559
14039W        W29170  13.348   1.686   0.027 -0.0955  0.0743 -0.0411
14040W        W29171   5.097  10.991   9.900 -0.2024  0.2177  0.0966
14041W        W29172   1.350  16.851   2.151  0.1523 -0.0071  0.5030
14042W        W29173   7.277   2.201   3.141  0.2593  0.3010  0.0020
14043W        W29174  10.469   6.994  11.200 -0.0381 -0.3055  0.2048
14044W        W29175  13.769  11.262   2.203  0.0427 -0.2740  0.1109
14045W        W29176  10.832   8.061  13.138  0.0594  0.0023  0.0902
14046W        W29177   9.084  16.457   4.856 -0.2688  0.0923  0.1653
14047W        W29178   1.031  16.159  15.853  0.1493  0.0836 -0.0319
14048W        W29179   7.022  18.144   4.053  0.1810  0.1715 -0.0256
14049W        W29180  11.010   7.247   4.519 -0.1027  0.0676 -0.3086
14050W        W29181   1.716  17.010   4.845 -0.2675  0.0554 -0.2696
14051W        W29182   5.976   8.537  14.825 -0.0277 -0.1488  0.3303
14052W        W29183  14.933   7.419  14.302 -0.0933 -0.0340 -0.1314
14053W        W29184   1.128  17.622   0.572  0.2165  0.3177  0.1171
14054W        W29185  15.575   0.637   4.103 -0.3033 -0.2561 -0.0503
14055W        W29186   4.625  13.221   1.994 -0.1129  0.0356 -0.1814
14056W        W29187   8.070   7.405  15.038  0.0137  0.0609  0.1150
14057W        W29188   0.205  15.700  11.742 -0.3643  0.1087  0.4629
14058W        W29189   1.369  12.892  13.993  0.1063 -0.1663  0.2151
14059W        W29190  16.479  12.330  14.392  0.2308  0.0132 -0.1783
14060W        W29191   6.777  15.712   0.381 -0.0093 -0.0107  0.1668
14061W        W29192  17.946   5.925   2.152 -0.2388  0.3501 -0.2314
14062W        W29193   3.439  14.325  10.621 -0.0476 -0.1253 -0.2717
14063W        W29194   9.137   9.843  11.391  0.0880  0.1850 -0.2444
14064W        W29195  14.318  18.046  11.746 -0.1719 -0.2902  0.0653
14065W        W29196  16.816  16.352   0.541 -0.0153  0.0375 -0.0783
14066W        W29197  11.362   7.873   3.938 -0.1788 -0.2520  0.3056
14067W        W29198  18.153   2.529   4.002 -0.2380 -0.0587 -0.0223
14068W        W29199   1.779   4.665  15.409  0.0531 -0.1265 -0.0167
14069W        W29200   2.222  12.835  12.890 -0.2242 -0.3300  0.1432
14070W        W29201   5.361   9.058  12.636 -0.1466 -0.2559  0.2196
14071W        W29202  17.832  11.854  11.128  0.0959  0.0274  0.1957
14072W        W29203   9.059   1.692  12.304 -0.3124 -0.2273  0.2185
14073W        W29204  11.800  10.482   3.269 -0.0322  0.1789  0.1018
14074W        W29205  17.328  11.014   0.037  0.2050 -0.0193 -0.1509
14075W        W29206  15.654  13.814  13.733 -0.0088  0.0291 -0.2384
14076W        W29207   9.951   2.412   0.371  0.3876 -0.1619  0.1213
14077W        W29208  11.787  14.082  15.313  0.2238  0.0648 -0.0324
14078W        W29209   2.150   3.504   5.105 -0.0339 -0.0790  0.0947
14079W        W29210  13.277   5.116  13.951 -0.1296 -0.1530 -0.0805
14080W        W29211   4.242   8.231   5.094  0.2253 -0.1590 -0.1546
14081W        W29212  11.682  15.472  12.862 -0.3968  0.1946  0.0661
14082W        W29213   0.289   2.976   5.035 -0.0379 -0.2870 -0.0759
14083W        W29214   5.322   8.068   0.787  0.0830 -0.0337  0.0080
14084W        W29215  13.240   8.057   1.328  0.0107 -0.0312  0.2406
14085W        W29216  15.378  12.381  14.608 -0.1812  0.2104 -0.0830
14086W        W29217   6.373  10.951   1.332 -0.0558 -0.2312  0.1268
14087W        W29218  14.565   6.058  15.243  0.2478 -0.0123 -0.0574
14088W        W29219   2.791  14.947  11.978  0.0994  0.1332  0.0016
14089W        W29220  13.047  10.914  12.093  0.0681  0.1922  0.0942
14090W        W29221  16.327   5.015  15.039 -0.0612 -0.1578 -0.2069
14091W        W29222  11.506  12.054   4.185  0.0599  0.0739 -0.1358
14092W        W29223   1.823  16.648   1.988  0.0909  0.1787 -0.1051
14093W        W29224  15.055   8.789   2.516  0.0977 -0.0245 -0.3087
14094W        W29225  14.007  13.073  11.144 -0.1871  0.3118 -0.1292
14095W        W29226  10.735   2.057  15.483  0.0491  0.1793 -0.0249
14096W        W29227   0.284   6.155   1.026  0.3829 -0.2136 -0.2209
14097W        W29228   6.144  11.035   5.603  0.0476  0.0644  0.1881
14098W        W29229   4.068   7.479   2.711  0.1040 -0.2526  0.3770
14099W        W29230   0.109   1.048  15.113 -0.4605  0.0032  0.3159
14100W        W29231   4.824  11.818  14.652 -0.1358  0.0698 -0.2665
14101W        W29232  11.114   1.235  14.554  0.2295 -0.2669 -0.0353
14102W        W29233   3.166   8.160   2.630 -0.0397  0.0816  0.2655
14103W        W29234   3.550   6.823   1.771  0.3600 -0.0403  0.3075
14104W        W29235  10.478   8.616  12.483 -0.2843 -0.1443 -0.1974
14105W        W29236   1.971  15.575  14.374 -0.2761  0.0001  0.0143
14106W        W29237   5.614  13.654   4.301  0.1042 -0.0271  0.0325
14107W        W29238  10.566  11.052  14.413  0.2653  0.1457 -0.2300
14108W        W29239   6.236   5.292  14.967  0.2180  0.0237  0.1007
14109W        W29240   2.029  11.755   1.436  0.1255  0.1027  0.0483
14110W        W29241   8.936  10.523   3.318 -0.0608  0.1422 -0.2638
14111W        W29242  14.050  11.266  13.161 -0.2945 -0.2109 -0.0610
14112W        W29243   8.509   2.933  12.920 -0.0984  0.0622  0.0641
14113W        W29244   1.965  16.230  13.439  0.2825  0.0336  0.1379
14114W        W29245  13.407  18.008  10.761  0.1057  0.1406 -0.1820
14115W        W29246   2.147  13.298  13.071  0.3131  0.1837  0.2247
14116W        W29247   6.258  15.393   3.285 -0.1802  0.0334 -0.2486
14117W        W29248  11.337   8.232  13.729  0.2168 -0.0368  0.3374
14118W        W29249   2.590   0.526  14.561 -0.1165  0.1932 -0.0906
14119W        W29250  10.101  10.572   6.050 -0.0467 -0.0167  0.0218
14120W        W29251  16.924  10.849   0.348  0.0402 -0.4238  0.2355
14121W        W29252  12.132  11.819   0.920  0.2718 -0.0576 -0.0664
14122W        W29253  12.639  17.328  13.150  0.3296  0.0944  0.0343
14123W        W29254   8.685   7.881   1.812 -0.0632 -0.0190 -0.0903
14124W        W29255   9.950  12.881  10.760 -0.4895  0.1714 -0.3726
14125W        W29256   2.552  14.173   2.780 -0.2051  0.1400  0.1864
14126W        W29257  16.019   0.631  15.541  0.4476 -0.2826 -0.0556
14127W        W29258   2.710   0.553  10.989  0.0680  0.1655 -0.3600
14128W        W29259   0.211   2.397   1.437 -0.0923 -0.0323 -0.1169
14129W        W29260  11.529   3.112  11.488 -0.0936 -0.2080 -0.2688
14130W        W29261   7.113   1.139   4.526  0.0825  0.2138 -0.1110
14131W        W29262  17.449   8.692   0.985 -0.0805  0.1623 -0.2308
14132W        W29263   0.190   5.383  15.984 -0.1225  0.0831 -0.2176
14133W        W29264   2.405   3.393   1.644  0.0195  0.3484  0.2525
14134W        W29265   2.172  11.426  14.117  0.1515 -0.3190  0.0044
14135W        W29266  14.614  17.524   1.282 -0.1006 -0.0454 -0.0670
14136W        W29267  11.822  16.177   2.135  0.1488  0.0092  0.0610
14137W        W29268   9.181  10.893  14.692  0.3247  0.0757 -0.2501
14138W        W29269  15.746  11.023   4.157  0.0831 -0.0166  0.0318
14139W        W29270  10.716  16.852   1.932 -0.2800  0.3652 -0.0779
14140W        W29271  11.836  10.679   0.542 -0.3015 -0.3060 -0.1820
14141W        W29272  16.331  12.563  13.574  0.1494  0.0146  0.2364
14142W        W29273   2.694  11.300  15.684 -0.1432 -0.0113  0.1197
14143W        W29274   3.436   0.478  10.710  0.0844 -0.2808  0.0596
14144W        W29275  18.246   6.079  13.889  0.1127 -0.1715 -0.0021
14145W        W29276  14.532   6.164   4.486  0.3247  0.2814  0.6315
14146W        W29277   5.977   9.092  11.021  0.0788 -0.3218 -0.0215
14147W        W29278   0.320  14.401  12.802  0.0996 -0.2254  0.2982
14148W        W29279  10.881  16.667  16.056  0.1110  0.1056 -0.4009
14149W        W29280  18.224   0.355   3.253  0.0830  0.1565  0.0093
14150W        W29281  12.045   2.962  12.430  0.1592 -0.4172  0.0692
14151W        W29282   2.569  11.675   1.560  0.1050 -0.2335 -0.1426
14152W        W29283  13.673   6.519  15.648  0.3297 -0.1784  0.0764
14153W        W29284  16.174   5.235   4.795 -0.1966  0.2548 -0.0358
14154W        W29285   0.413   9.252   1.825  0.0875  0.2424 -0.2449
14155W        W29286   1.054  17.852  14.216  0.0598 -0.2844 -0.0437
14156W        W29287  16.520   1.255  15.099 -0.4133 -0.0424  0.1527
14157W        W29288   2.168   1.084  13.425 -0.3944 -0.0099  0.0383
14158W        W29289  11.578  15.114   5.818 -0.0711 -0.1563 -0.0430
14159W        W29290   6.529  17.566  12.361  0.0831 -0.1259  0.0086
14160W        W29291  14.792  10.088  12.486 -0.0762  0.0563  0.2081
14161W        W29292  15.600   5.559   1.040 -0.2163  0.0570  0.1658
14162W        W29293   9.105   4.051  14.037  0.2147  0.0199  0.1401
14163W        W29294   5.935  14.850   0.067  0.1344  0.0541  0.2025
14164W        W29295   7.116   1.694  14.225 -0.1660  0.2273 -0.1676
14165W        W29296   1.906   5.051  15.118  0.0570  0.1769  0.1902
14166W        W29297   8.094   5.836   2.815 -0.0129 -0.1830 -0.0994
14167W        W29298  12.991  16.143  14.085  0.0185  0.0987 -0.3303
14168W        W29299   7.582  10.044   3.228  0.1103  0.2070  0.3133
14169W        W29300   1.877   2.546   6.580  0.1539  0.1230 -0.1662
14170W        W29301   0.669   2.478  13.051  0.1397 -0.1730 -0.1255
14171W        W29302   5.742   5.545   1.100  0.3671 -0.1597  0.2139
14172W        W29303  14.294   9.054  14.302 -0.0038 -0.3827 -0.1016
14173W        W29304  15.938   7.696   2.667 -0.0901 -0.4835 -0.4901
14174W        W29305   5.513  15.274  11.931  0.3015 -0.2108  0.5333
14175W        W29306  14.471  15.908   1.757  0.1115  0.0580 -0.2699
14176W        W29307  15.804   1.267  11.474  0.0287 -0.1024 -0.1334
14177W        W29308   0.281  12.977   4.055  0.0309 -0.0354 -0.2339
14178W        W29309   5.035   3.611  15.479 -0.2887 -0.1328 -0.1294
14179W        W29310   1.750   5.980  15.395  0.1374  0.0620 -0.0511
14180W        W29311   3.692  10.980   2.113  0.1443 -0.1055  0.0879
14181W        W29312  11.548   1.670  12.156 -0.1448 -0.2220 -0.1516
14182W        W29313   0.662  15.300   0.833 -0.3436  0.0490  0.1724
14183W        W29314   9.377  11.447  15.063  0.1703 -0.2368  0.0994
14184W        W29315  12.312  17.907   4.528  0.1201  0.1637  0.0463
14185W        W29316  17.728  10.956  10.953  0.0124 -0.3114  0.0750
14186W        W29317   3.543   7.102   3.819 -0.1562  0.2544  0.0926
14187W        W29318   7.776  17.387   2.381  0.1687  0.1567  0.3788
14188W        W29319  13.285   0.296   1.240  0.1106  0.2363  0.1117
14189W        W29320   8.011  14.806   5.532 -0.1889 -0.0409  0.3995
14190W        W29321   6.721  13.038   0.651 -0.1313 -0.1309 -0.3099
14191W        W29322   5.979   1.711   3.314  0.1251  0.0426  0.1067
14192W        W29323   3.949  15.175  12.703 -0.1109  0.1197 -0.0079
14193W        W29324  10.632   4.881   0.296 -0.3563 -0.1676  0.1218
14194W        W29325  12.504  13.050   2.136 -0.1175  0.2223 -0.2324
14195W        W29326   9.863   4.759   2.985 -0.1459 -0.0253  0.2013
14196W        W29327   5.473  17.164   0.476  0.0385 -0.1336  0.0671
14197W        W29328  14.005   5.608   5.536  0.1227 -0.2278  0.0478
14198W        W29329   8.596  14.530   1.278 -0.2332 -0.1568  0.0208
14199W        W29330   6.941   2.980   4.826  0.3226  0.2258 -0.0781
14200W        W29331  10.950   2.122   2.929 -0.1616 -0.0474 -0.3731
14201W        W29332   5.224   2.919  11.796  0.1380  0.0915  0.0676
14202W        W29333  15.826   2.254  11.285 -0.0920 -0.0105  0.1674
14203W        W29334  15.607   4.173  14.193 -0.1075 -0.1314  0.0750
14204W        W29335   0.905   9.581  14.751  0.0779  0.1497 -0.0465
14205W        W29336  12.214   6.767   1.740  0.1218  0.0646 -0.0661
14206W        W29337   2.306  11.482   2.026  0.4045  0.1157  0.0260
14207W        W29338  17.463   3.438  15.036 -0.2243  0.2815 -0.0028
14208W        W29339   6.101  11.386   1.000  0.1312 -0.0501 -0.0278
14209W        W29340   9.102   5.363   5.286  0.0140  0.0526  0.2138
14210W        W29341   3.909   5.863  12.224  0.0683 -0.1957 -0.2800
14211W        W29342   7.655  12.007   1.406 -0.1769 -0.0623 -0.0453
14212W        W29343  17.246   6.263   0.340 -0.1504  0.1369 -0.1130
14213W        W29344   4.469   1.479  12.568  0.1068 -0.0141 -0.1116
14214W        W29345  17.851   4.429  11.167 -0.1438  0.0675 -0.1454
14215W        W29346   1.916   5.608   1.440  0.1103  0.0730 -0.2044
14216W        W29347   4.918   0.481  11.618  0.2513  0.1067  0.0883
14217W        W29348  13.661  17.059  14.978  0.1047  0.0605  0.1257
14218W        W29349   6.984  14.511  11.785  0.0356  0.1696  0.0705
14219W        W29350   6.811   3.930   0.268  0.1050 -0.1886  0.2707
14220W        W29351   3.258   1.229   2.685 -0.0931  0.0302  0.2597
14221W        W29352  14.031   1.242  14.687  0.0736 -0.1527  0.2428
14222W        W29353  11.131   8.442  12.780 -0.0635  0.2122 -0.0257
14223W        W29354   1.311  17.003   5.106  0.0586  0.0308 -0.0416
14224W        W29355  11.988   3.850  13.200  0.0362 -0.0567  0.3384
14225W        W29356   4.759   6.249   1.061 -0.2046 -0.2842  0.1290
14226W        W29357   2.395   1.664  11.565 -0.1716  0.1132 -0.0141
14227W        W29358   8.122   2.381   0.496 -0.1700  0.0789  0.1086
14228W        W29359  13.050  10.324   5.685  0.1946 -0.0238 -0.2618
14229W        W29360  11.941   9.456  15.148 -0.1440 -0.1464 -0.5185
14230W        W29361   0.781  11.020   0.400  0.2299 -0.0984  0.0782
14231W        W29362  16.917  18.282   1.060  0.4379  0.1214 -0.1605
14232W        W29363   7.206   0.486  14.590 -0.0061 -0.1308 -0.0525
14233W        W29364   8.205   9.323   0.865  0.2662  0.0865 -0.0621
14234W        W29365  13.269  17.148  12.767  0.0255 -0.1236 -0.0540
14235W        W29366  11.748   0.659   2.816 -0.4035  0.2052 -0.0159
14236W        W29367   2.973   0.179   0.278  0.0978  0.0695  0.0031
14237W        W29368   9.855   4.747  12.920 -0.0273 -0.4581  0.0117
14238W        W29369   6.684  13.108   1.653 -0.2697  0.2232 -0.1612
14239W        W29370  17.446  15.042  14.671  0.0429 -0.1067 -0.3588
14240W        W29371  14.446  11.772  15.707 -0.3030 -0.0868 -0.1647
14241W        W29372  11.901   7.196   5.033  0.1371  0.0592 -0.4071
14242W        W29373   9.968   3.367  12.251  0.0552 -0.1339  0.1136
14243W        W29374  10.044  10.536  12.072 -0.0870  0.0842 -0.0254
14244W        W29375  18.244   3.762  11.819 -0.0713  0.0698  0.1413
14245W        W29376  16.052  16.149  13.983  0.2000 -0.1690  0.0738
14246W        W29377  10.191  16.403   1.352 -0.0811 -0.1278 -0.1682
14247W        W29378   3.552   4.867  11.647  0.1213 -0.1340 -0.2292
14248W        W29379  17.583   6.206   1.239 -0.0443  0.2273  0.0304
14249W        W29380  12.306   7.381   0.228 -0.1997  0.2048  0.2266
14250W        W29381   3.987   0.657  13.527  0.1957  0.0732  0.0744
14251W        W29382   7.792   5.380   5.698  0.1686  0.0267 -0.2291
14252W        W29383   0.444   1.392   3.628  0.0005 -0.1444 -0.1655
14253W        W29384   9.280   6.716  12.425 -0.1682 -0.1014 -0.0768
14254W        W29385   9.905  11.123   0.519  0.2141  0.1580  0.2241
14255W        W29386   2.711   5.005   5.002 -0.1552  0.0647  0.6420
14256W        W29387  15.174   8.935  14.652 -0.4744 -0.1270  0.1836
14257W        W29388   5.308   2.628  12.833  0.1829 -0.3791 -0.2404
14258W        W29389   8.048  17.647  10.890 -0.0206 -0.3294 -0.0024
14259W        W29390   8.469   9.370   2.261  0.2020  0.4056  0.0063
14260W        W29391  11.066  16.801   3.524 -0.3277  0.2713  0.0715
14261W        W29392   1.236  14.738  14.259 -0.1237  0.3308 -0.1560
14262W        W29393   9.930  11.971   3.469  0.0091 -0.2304 -0.1207
14263W        W29394  14.517  16.599  15.387  0.2200  0.0240 -0.3706
14264W        W29395  18.327  14.821   5.291  0.0305 -0.0071  0.0055
14265W        W29396   7.834  16.769  13.817 -0.4037  0.2959  0.0564
14266W        W29397  15.552   8.498  10.801  0.0090 -0.2616 -0.0621
14267W        W29398   5.365   3.711  12.859  0.1790 -0.0999  0.1097
14268W        W29399  11.944   2.599  10.644 -0.0746 -0.0445  0.0062
14269W        W29400   0.138  14.467   0.059 -0.2506  0.0857  0.0742
14270W        W29401   7.497   1.310  14.860  0.1261 -0.2789 -0.2280
14271W        W29402  11.983   1.909  12.290  0.0032 -0.0806 -0.3403
14272W        W29403   4.521  12.985  10.089 -0.0569 -0.1035  0.1358
14273W        W29404   5.273  15.616   0.564  0.0775  0.1623 -0.2428
14274W        W29405   7.224   2.121   4.729 -0.1051  0.0700  0.4131
14275W        W29406   9.722  16.426  10.849  0.1552 -0.0238 -0.2639
14276W        W29407  17.644  16.390   0.393  0.1770  0.0876  0.4246
14277W        W29408   2.660   2.811   0.322  0.1635 -0.4656 -0.2008
14278W        W29409  15.380  15.059   0.997 -0.3347  0.1395 -0.1263
14279W        W29410   7.408  12.216   1.041 -0.1472 -0.4759 -0.2345
14280W        W29411   4.491   2.177  11.098  0.1705 -0.0356 -0.1845
14281W        W29412  17.457   0.653  15.277  0.3220  0.0195 -0.0483
14282W        W29413   3.887   0.191   0.546 -0.0413 -0.1175  0.1618
14283W        W29414   5.799   9.297   4.975  0.1478 -0.0317 -0.2261
14284W        W29415  17.770  16.893   3.379  0.3471 -0.0112  0.1620
14285W        W29416  15.040   0.031  14.038  0.1040 -0.0360 -0.0868
14286W        W29417   1.444   1.114   5.101  0.1849  0.2387  0.0918
14287W        W29418   9.164   6.415  14.605 -0.0326  0.1638 -0.1502
14288W        W29419   1.242   9.594  11.161 -0.1630 -0.1009 -0.1559
14289W        W29420   8.133   9.478   3.968  0.0502  0.0561  0.0527
14290W        W29421   4.201   0.889  15.735 -0.0529  0.0882  0.2249
14291W        W29422  14.197  10.118   3.425  0.2959  0.0327 -0.2270
14292W        W29423  15.865  16.009  15.599 -0.0804 -0.2009 -0.0163
14293W        W29424   1.197   5.116   6.380  0.2220  0.0041 -0.1070
14294W        W29425  17.690   7.953  14.415 -0.0138  0.0048 -0.2143
14295W        W29426   1.981  16.477   1.560  0.0809  0.0024 -0.0467
14296W        W29427  15.931  15.665   1.420  0.1467 -0.1094  0.0139
14297W        W29428   7.815  15.847   0.395 -0.1357 -0.2329  0.3833
14298W        W29429   7.036   6.670  12.915  0.1980  0.0224 -0.1697
14299W        W29430  16.258  10.132  10.220 -0.3742  0.3083  0.2292
14300W        W29431  10.082  10.316  14.414 -0.1675  0.0596 -0.0448
14301W        W29432  11.915  14.826   0.339 -0.1825 -0.3421 -0.0474
14302W        W29433  12.373   5.874   2.010  0.0751  0.4534 -0.0419
14303W        W29434  11.602  18.047   0.616  0.0125  0.0196  0.1550
14304W        W29435  10.111   4.045  14.235  0.0131  0.0582  0.1474
14305W        W29436  12.313  10.727  13.593  0.0703 -0.0569 -0.1366
14306W        W29437  18.270  16.437   6.344  0.0055 -0.1611 -0.0348
14307W        W29438   8.301   8.228   1.967 -0.1438  0.2639 -0.2389
14308W        W29439   6.601   4.787   1.732 -0.1358  0.0007 -0.1979
14309W        W29440   1.235  15.676   2.739 -0.0581  0.0317 -0.0806
14310W        W29441   6.883   1.840   0.329  0.1244 -0.1921 -0.0069
14311W        W29442   6.546   6.813   2.781 -0.0278 -0.1133 -0.1514
14312W        W29443  12.375   9.816   4.101 -0.1959 -0.2382 -0.1007
14313W        W29444  11.752   8.977  14.969  0.0077  0.1597 -0.0275
14314W        W29445   4.740  18.085   5.773 -0.0701 -0.1347 -0.0427
14315W        W29446  11.684   4.758  10.581 -0.0191 -0.2111  0.1697
14316W        W29447  12.432   2.150   3.269 -0.1417 -0.1207 -0.0225
14317W        W29448   0.618  10.142  15.923  0.1136 -0.1193  0.3070
14318W        W29449   7.697  12.743   5.121  0.3739 -0.1304 -0.0160
14319W        W29450  14.294  17.012   3.443 -0.1840  0.2103 -0.1154
14320W        W29451  17.072   4.349  13.680  0.0868  0.1065  0.0960
14321W        W29452   8.947  15.196  11.119 -0.1190 -0.2452 -0.1498
14322W        W29453  12.917   7.043  12.688 -0.0267 -0.0832 -0.0075
14323W        W29454   1.219   0.322  14.754  0.1747 -0.1132 -0.1906
14324W        W29455   1.409  13.069   4.033 -0.3092  0.0081  0.1024
14325W        W29456  15.177   1.307   4.092 -0.2246  0.2195  0.0934
14326W        W29457  17.859   4.365   1.693  0.1768 -0.1627  0.0911
14327W        W29458  16.166  11.826   6.077  0.0923  0.1501  0.0930
14328W        W29459   4.864   4.869  12.540  0.0796 -0.4934 -0.2890
14329W        W29460   4.640   5.321   2.026 -0.0541 -0.2739  0.1838
14330W        W29461   7.257  13.900  11.164  0.3915  0.1291  0.0812
14331W        W29462   8.959   5.574   2.154  0.0076 -0.0782  0.2461
14332W        W29463   7.529  15.115  15.108  0.0714 -0.1586  0.0066
14333W        W29464   3.786   4.045   0.292 -0.3307  0.2037  0.1679
14334W        W29465   8.529  13.886  14.478 -0.0515 -0.2615 -0.3707
14335W        W29466   3.917  17.872   3.714 -0.1314  0.0312  0.0379
14336W        W29467  12.905   1.234  13.227  0.1090 -0.2229 -0.0340
14337W        W29468   3.983  12.754   4.571  0.0533  0.3276  0.1288
14338W        W29469   8.760   1.371  14.243  0.3329 -0.0492 -0.3124
14339W        W29470   0.207   4.875   1.315 -0.0425 -0.1264  0.0315
14340W        W29471   7.408   7.286   5.944 -0.2311 -0.1779  0.5578
14341W        W29472  13.837  15.327   1.969  0.0619  0.3729  0.2676
14342W        W29473   4.982   5.668   5.725  0.1215 -0.1875 -0.3159
14343W        W29474  11.953  13.371   1.287  0.1230 -0.0134 -0.3082
14344W        W29475  18.145  12.550  13.242 -0.0902 -0.1570 -0.3057
14345W        W29476  15.036   7.018  14.655 -0.0651 -0.4061  0.2289
14346W        W29477  14.359   2.074   4.722 -0.3137  0.0862  0.2490
14347W        W29478   7.419   6.586  10.775  0.3857  0.2640 -0.0909
14348W        W29479   9.862   9.335   5.686 -0.2921  0.1109  0.0123
14349W        W29480   3.089   0.265  11.127  0.3433 -0.0678  0.2742
14350W        W29481  13.083  17.984   2.566  0.1748 -0.1363  0.2969
14351W        W29482   6.735   2.803  13.902 -0.0847 -0.0161  0.3261
14352W        W29483  11.322  11.702   2.836 -0.2010  0.2289  0.0124
14353W        W29484  13.445   4.936   0.898  0.0348 -0.1171 -0.1588
14354W        W29485   1.407  11.854   1.875  0.2910  0.0384  0.0400
14355W        W29486  17.863   6.925  12.338 -0.1460 -0.0247 -0.1046
14356W        W29487  13.644   1.234  12.220  0.3344 -0.2082 -0.1742
14357W        W29488   4.395   7.300  12.727  0.1492 -0.0552 -0.1614
14358W        W29489   0.877   8.267   6.319  0.1852  0.2012 -0.1528
14359W        W29490  16.945  10.360   5.431 -0.1833 -0.2846 -0.1820
14360W        W29491   9.817  11.215  10.640 -0.2140 -0.0451 -0.1226
14361W        W29492   9.883   6.151   1.647 -0.2727 -0.1453  0.1100
14362W        W29493   2.240  15.597   5.553 -0.0872 -0.1461  0.1725
14363W        W29494   1.944  13.738   0.457  0.0841 -0.1579 -0.1562
14364W        W29495   4.036   2.473   6.144 -0.2955  0.0304 -0.1065
14365W        W29496  17.174   3.920   5.164 -0.1124  0.0376 -0.2571
14366W        W29497   3.639   5.352  15.407  0.2153 -0.1763  0.1175
14367W        W29498   2.574   6.508   3.189  0.0904 -0.0733  0.1685
14368W        W29499   2.948   6.032  12.357  0.0264  0.0695  0.4360
14369W        W29500  15.968  14.978  11.816 -0.0690  0.1000 -0.0588
14370W        W29501  11.841   0.656  11.777 -0.4109  0.0444 -0.0745
14371W        W29502   1.420   4.011   3.272  0.2471  0.0978 -0.2830
14372W        W29503   3.498   1.427  15.719 -0.0473 -0.0915  0.1878
14373W        W29504   7.773   2.002   3.252  0.0668  0.2544 -0.2092
14374W        W29505   0.512   2.700  11.725  0.0234 -0.1213 -0.1989
14375W        W29506   1.633  13.131   4.885  0.1810  0.1387 -0.3723
14376W        W29507  12.791  17.950   1.521 -0.1203  0.3292  0.0515
14377W        W29508   5.630   7.528   5.309 -0.1422 -0.1600  0.0872
14378W        W29509   3.773  11.874  11.807 -0.0942  0.0993 -0.2249
14379W        W29510   4.711  15.093  14.518  0.3663  0.0179 -0.0889
14380W        W29511   4.752   4.127   4.254  0.1551  0.3114  0.2694
14381W        W29512  11.786   5.575   4.660 -0.1401 -0.0274 -0.1220
14382W        W29513  16.230  11.162  13.450 -0.4241 -0.4009  0.0902
14383W        W29514  11.449  12.407  15.247  0.1442  0.2844  0.0038
14384W        W29515  12.455  15.725   2.595 -0.1374  0.0092 -0.0469
14385W        W29516  15.410   5.844  11.847 -0.3152 -0.1114  0.0350
14386W        W29517   0.043  12.688   5.870 -0.0848 -0.1430 -0.0522
14387W        W29518  12.578   8.907  11.984 -0.3076 -0.1659 -0.1173
14388W        W29519  14.171   5.491  11.445 -0.2253 -0.2912 -0.0438
14389W        W29520  10.567   6.228  11.549  0.2126 -0.1426  0.1069
14390W        W29521  10.348   2.063  12.157  0.1789 -0.2185 -0.2055
14391W        W29522  12.748   9.117  10.760 -0.2206 -0.1538 -0.0934
14392W        W29523   6.437   9.013  12.249  0.1701 -0.1134 -0.2695
14393W        W29524  15.053  12.272   2.392 -0.0989 -0.1038 -0.1535
14394W        W29525  11.211   4.180  13.102  0.2029  0.0370  0.0422
14395W        W29526   2.780  10.443   1.720  0.0672 -0.2151 -0.3901
14396W        W29527  11.634  12.596   0.112  0.0146 -0.1629  0.2085
14397W        W29528  11.479  10.178  15.117 -0.2474 -0.4621  0.0081
14398W        W29529   2.197  18.168  12.644  0.2660 -0.0072  0.1501
14399W        W29530   8.073   7.655   2.521 -0.0176 -0.2318 -0.2676
14400W        W29531  15.067  15.292  11.752  0.0826 -0.1513 -0.3521
14401W        W29532   1.546  12.726   2.267  0.2385  0.0746  0.2598
14402W        W29533  10.500   6.577   3.415  0.0460 -0.1091 -0.1454
14403W        W29534   6.151  14.632  13.960  0.0336  0.4393  0.0461
14404W        W29535  13.096  13.964   5.962 -0.0915  0.0623  0.1343
14405W        W29536  16.983   8.951  13.189 -0.0458 -0.1483 -0.5638
14406W        W29537  14.981   8.395   0.140 -0.1143 -0.1669  0.3352
14407W        W29538   1.568   8.888   0.340 -0.1343 -0.1478 -0.2911
14408W        W29539  16.866   7.345   3.618 -0.3727  0.2124 -0.0974
14409W        W29540  17.805  14.272   2.456  0.0213 -0.1104  0.0836
14410W        W29541   1.630   5.832   4.613 -0.2725  0.1844 -0.0742
14411W        W29542   6.882  16.987  14.065  0.1369 -0.4619 -0.0987
14412W        W29543   3.770   7.673   2.189  0.2699  0.0461  0.2122
14413W        W29544  15.330  12.513   0.464 -0.0198 -0.1828  0.1310
14414W        W29545  12.005  17.468   5.632 -0.3222  0.1488 -0.2012
14415W        W29546   5.018  16.055  12.753  0.1136 -0.2451  0.0118
14416W        W29547  17.604   9.516   4.948 -0.0776  0.2053 -0.3576
14417W        W29548   1.217  10.576   0.161 -0.2047 -0.0187 -0.0970
14418W        W29549   8.056   0.428   1.041  0.1886  0.3087 -0.0110
14419W        W29550  14.548   7.305   3.679  0.0480 -0.1554  0.2044
14420W        W29551   8.169   3.811   2.880 -0.2473 -0.3076 -0.3847
14421W        W29552  16.751  11.061  11.825 -0.0453  0.0168 -0.2003
14422W        W29553   9.545   1.980   4.201 -0.0831  0.0440 -0.2631
14423W        W29554  15.905   2.179   6.323  0.1109  0.1538  0.0102
14424W        W29555   3.707   9.742  14.004 -0.1846  0.1192 -0.3019
14425W        W29556   9.396  16.979   1.086 -0.1523  0.1059  0.3408
14426W        W29557   8.654   9.464  12.136 -0.0874 -0.1367 -0.2444
14427W        W29558   4.990   6.244   0.625  0.0412 -0.0242 -0.1684
14428W        W29559  15.575   2.080   3.587 -0.2073 -0.1324  0.1354
14429W        W29560  16.656  16.953  11.359  0.0432 -0.2372  0.1439
14430W        W29561   8.931   5.992   0.016 -0.3221 -0.2799 -0.3533
14431W        W29562  12.256  17.391  12.812  0.0103 -0.2518 -0.0524
14432W        W29563  15.962  12.491   3.269  0.1071  0.1904 -0.0097
14433W        W29564  15.560   8.315   0.358 -0.0598 -0.1340  0.0856
14434W        W29565   3.396   7.576  15.021 -0.1151  0.0369 -0.0462
14435W        W29566  17.948  13.829   3.292  0.0468  0.1106  0.0772
14436W        W29567  15.036   6.765  11.683 -0.0470  0.0015  0.0241
14437W        W29568   4.907  12.310  13.281 -0.2293  0.1695  0.2822
14438W        W29569  15.135   6.218  12.060  0.0835 -0.0464  0.0680
14439W        W29570   9.804  12.836   3.796 -0.2830 -0.0272  0.0970
14440W        W29571   3.160   5.879   2.806  0.1720  0.0973 -0.0926
14441W        W29572   7.439  18.025  12.057  0.1384 -0.1926 -0.0657
14442W        W29573  14.209  13.763   2.533 -0.4140  0.0523  0.0023
14443W        W29574   9.491   9.619  14.141 -0.2828  0.1915 -0.0770
14444W        W29575  12.439   8.671   0.565  0.0216 -0.1771 -0.0098
14445W        W29576   6.280   7.352   2.042 -0.1840 -0.1678  0.4852
14446W        W29577   4.719  14.072  12.591 -0.0063  0.1646 -0.0090
14447W        W29578   3.295   2.826  11.149  0.0127 -0.0726 -0.2452
14448W        W29579  12.053   4.240   1.818  0.1513  0.1937 -0.0292
14449W        W29580  17.249  11.063  12.583 -0.1460 -0.2838  0.3078
14450W        W29581   8.181  13.552   1.410  0.0658  0.0084 -0.1748
14451W        W29582   0.140   3.634  13.519 -0.1677  0.0183  0.0394
14452W        W29583   4.447  14.988   0.919 -0.0469 -0.0672 -0.2740
14453W        W29584  16.378  16.709   4.662 -0.1422 -0.3082 -0.0239
14454W        W29585   9.469  15.183  11.851 -0.1330  0.1676  0.3047
14455W        W29586  12.509  11.623   2.218 -0.0370 -0.1561  0.0995
14456W        W29587   5.574   5.941  14.899  0.1118 -0.0382  0.0737
14457W        W29588  12.494   9.583   0.820  0.1097  0.0043 -0.1407
14458W        W29589  17.741  10.367   2.715  0.1176 -0.0589 -0.2124
14459W        W29590   3.792   8.200   2.898  0.0605 -0.0720  0.1569
14460W        W29591  11.290   6.294   9.805 -0.1182 -0.0734  0.0127
14461W        W29592   0.709  15.920  13.044  0.0524 -0.0780 -0.0864
14462W        W29593  11.841  12.946  11.783 -0.2513 -0.0538  0.0679
14463W        W29594  16.355   6.028  13.856  0.2666  0.0921 -0.0314
14464W        W29595   9.896  16.811   2.487  0.0368 -0.0517  0.3149
14465W        W29596  10.158   7.195   2.277 -0.0406 -0.3670  0.0092
14466W        W29597   4.592   4.264  10.614 -0.0741 -0.2431  0.3493
14467W        W29598  14.718   1.199   4.960 -0.1264  0.1049  0.1726
14468W        W29599   1.326   5.428   0.714 -0.0711 -0.2959  0.0281
14469W        W29600   6.668  14.336   0.417 -0.0548  0.0908 -0.0422
14470W        W29601   2.581  13.906  15.139 -0.2528  0.0642 -0.1420
14471W        W29602  14.160  10.782   1.532 -0.0406 -0.1984 -0.4426
14472W        W29603   0.671  17.139  16.067 -0.0407 -0.1107 -0.3601
14473W        W29604   7.849   0.822  14.021 -0.4078 -0.1522  0.2612
14474W        W29605  11.332  15.499   2.337 -0.0516  0.5096 -0.0530
14475W        W29606   0.196   6.711   4.752 -0.0779  0.0572 -0.2459
14476W        W29607   6.988   0.336  10.884 -0.1484  0.2098  0.0480
14477W        W29608  15.220   8.679   1.114 -0.2274 -0.0399 -0.2739
14478W        W29609   9.251   7.929  11.597 -0.3593  0.4139  0.1007
14479W        W29610   9.553   4.792  14.460  0.1757 -0.0612  0.3125
14480W        W29611  17.394   1.841   1.866 -0.4550  0.2473  0.2823
14481W        W29612   5.557  16.035   0.620  0.0674  0.0939 -0.3718
14482W        W29613  10.868   0.129  15.906 -0.2715  0.3826  0.0070
14483W        W29614  13.309   2.561   4.518  0.1691 -0.0105  0.1608
14484W        W29615   4.910  12.295   2.017  0.1522 -0.2991  0.0584
14485W        W29616   2.417   2.024   1.331 -0.2225 -0.2173  0.0800
14486W        W29617  13.376   7.371   1.715 -0.0178  0.0906 -0.0846
14487W        W29618   3.972   5.724   3.935  0.0394 -0.2550 -0.2459
14488W        W29619   9.020  14.361   4.165 -0.0836 -0.2560  0.0299
14489W        W29620  12.029  13.840   5.479  0.0746 -0.2015  0.1216
14490W        W29621   7.408   8.922  13.989  0.1845  0.2511 -0.1871
14491W        W29622  15.106   8.488   4.078  0.0799  0.0480  0.0856
14492W        W29623  17.756   1.561  15.732 -0.1154  0.0737  0.0691
14493W        W29624  16.013   6.456  14.036  0.0427 -0.1194 -0.0511
14494W        W29625   4.882  12.476   2.490  0.0394  0.3765 -0.0261
14495W        W29626   1.543   9.318   2.180  0.0687 -0.0396 -0.0155
14496W        W29627  16.313  12.245  13.150  0.2827  0.3011  0.1468
14497W        W29628   0.975   3.050  15.123  0.0318  0.0925  0.2957
14498W        W29629  16.900   4.687   3.743  0.1079 -0.0602  0.2436
14499W        W29630  11.515   7.888   1.117 -0.0940 -0.0496  0.1550
14500W        W29631  16.464   8.228   3.929  0.1031 -0.0694  0.2107
14501W        W29632  17.335   9.143   2.108 -0.0221  0.1096  0.2719
14502W        W29633  10.998   1.303  15.448  0.0314 -0.0657  0.1155
14503W        W29634   9.783  11.090   3.897 -0.1241 -0.0043  0.0292
14504W        W29635  12.750  11.819  12.542 -0.1384 -0.0619 -0.1663
14505W        W29636  14.418   3.065  14.600 -0.1684  0.3829 -0.2172
14506W        W29637   6.235  18.216  11.676 -0.0437 -0.0080 -0.1133
14507W        W29638  11.266   7.735  10.877 -0.1126  0.2712 -0.0250
14508W        W29639   0.944  13.025   3.851  0.3444  0.0074 -0.1883
14509W        W29640   3.167  10.339   2.079  0.1663 -0.0065 -0.0714
14510W        W29641   6.478   8.227  10.828 -0.0974 -0.1107 -0.1475
14511W        W29642   8.684  16.562  14.393 -0.0457  0.1530 -0.2009
14512W        W29643  16.884  15.000   4.901 -0.0528  0.1217  0.1672
14513W        W29644  16.699  14.823  12.603 -0.3413 -0.2457 -0.1439
14514W        W29645   4.917  14.533   3.866 -0.2708  0.2808  0.0231
14515W        W29646   7.469  15.117  16.099 -0.1543 -0.1707  0.2062
14516W        W29647  10.347  16.946   1.558 -0.1654 -0.1080  0.0320
14517W        W29648  13.862   6.200   5.605  0.1623  0.1789  0.1296
14518W        W29649   9.424   8.966  14.327  0.2163  0.2354 -0.2947
14519W        W29650   9.880  13.148   5.481 -0.2016 -0.2507 -0.0508
14520W        W29651   0.441   8.634  11.423  0.0934 -0.4715  0.0274
14521W        W29652  17.619   6.853   3.167  0.1493  0.3561 -0.0952
14522W        W29653   2.670   7.961  14.414 -0.2416  0.2071  0.1627
14523W        W29654  13.102  17.919   3.705 -0.0014  0.3389  0.2185
14524W        W29655   7.471  14.259  13.148 -0.4568 -0.1039  0.0336
14525W        W29656   0.178   2.405  14.820 -0.0042  0.2447  0.3064
14526W        W29657   0.634   3.063   3.085 -0.1917 -0.0752  0.1341
14527W        W29658   3.901  10.902   5.613  0.2528 -0.0026 -0.2040
14528W        W29659   2.620   5.802   0.092  0.1013  0.1430 -0.3458
14529W        W29660   0.730   0.759   1.734  0.0132  0.2740 -0.0611
14530W        W29661   4.491  17.153  12.047 -0.1525  0.1367  0.0389
14531W        W29662  12.130   8.492  11.403 -0.1858 -0.1356 -0.0764
14532W        W29663   0.644   0.709   5.360 -0.0900  0.2742 -0.3856
14533W        W29664  17.423  14.054   3.263  0.0605 -0.4391 -0.1757
14534W        W29665  16.516  10.935  13.059  0.0187  0.3744  0.3069
14535W        W29666  10.132   1.902  15.251  0.0881 -0.1353  0.1145
14536W        W29667  15.829   7.667  11.237  0.3214 -0.3788 -0.0288
14537W        W29668  14.071   9.456  12.201  0.0432  0.2332 -0.0444
14538W        W29669   5.179   8.779  10.483 -0.5026 -0.0308  0.1448
14539W        W29670  12.870  15.422   2.830  0.1365 -0.1192 -0.0659
14540W        W29671  18.165   2.394  13.279  0.2357 -0.1452  0.0171
14541W        W29672   4.543   6.577  11.924  0.0778 -0.0029  0.1816
14542W        W29673   6.989   8.380  14.436  0.0277 -0.2625  0.0619
14543W        W29674  15.640   5.047   1.220  0.1281  0.0499 -0.0734
14544W        W29675   6.743  16.021   2.124  0.0046  0.1052  0.1486
14545W        W29676   0.577   6.713   4.424  0.1727  0.0949  0.0090
14546W        W29677   9.213   4.898  11.379 -0.2417  0.0635  0.2632
14547W        W29678   0.575   2.966   2.059 -0.0447  0.1410 -0.1135
14548W        W29679   8.634  16.916  15.435 -0.1155 -0.1534 -0.0435
14549W        W29680   0.818  18.240   2.056 -0.1954  0.2633  0.0190
14550W        W29681   1.316  17.548   3.807  0.0916 -0.1478  0.0724
14551W        W29682  10.333  12.787   3.779 -0.2483 -0.1185 -0.1925
14552W        W29683  12.972  18.175  11.986 -0.0339  0.2704  0.1363
14553W        W29684   6.115   4.096   0.839 -0.2681  0.0960  0.0973
14554W        W29685   6.533  14.391  14.287  0.1575 -0.1880 -0.0969
14555W        W29686   9.759  18.071   0.984  0.0560 -0.1581 -0.0619
14556W        W29687   7.376  10.989   3.224 -0.0814  0.1285 -0.1351
14557W        W29688  17.705  11.309   0.771  0.1546 -0.1661 -0.1391
14558W        W29689  17.853   4.348   3.619 -0.1599  0.0179  0.0388
14559W        W29690   8.132  14.396  15.292 -0.0524 -0.2985 -0.1771
14560W        W29691  12.825   4.925   3.031 -0.2404  0.2647  0.2317
14561W        W29692   0.541  14.263  13.313  0.1259 -0.2503 -0.2685
14562W        W29693   1.552  15.360  14.321 -0.1292 -0.1518 -0.0408
14563W        W29694  17.914  12.804   2.292 -0.2576  0.0334 -0.0812
14564W        W29695   7.794  11.518   0.679 -0.0649 -0.2721 -0.3117
14565W        W29696   3.972   5.679  13.602  0.1359 -0.0518 -0.3491
14566W        W29697   6.717  15.220  14.689 -0.1159  0.0971  0.0485
14567W        W29698  10.949   2.228   2.410 -0.0303  0.2200  0.0795
14568W        W29699  12.143  15.610  12.378 -0.1014 -0.0461 -0.1762
14569W        W29700   2.156  16.722   4.094 -0.1948 -0.1587 -0.3168
14570W        W29701  14.378  13.150  12.735 -0.2450 -0.0248 -0.1072
14571W        W29702  17.710  10.926   4.829 -0.0016  0.1123  0.0939
14572W        W29703   5.348   3.811   3.522 -0.2204  0.2089 -0.2663
14573W        W29704   0.659   4.656  14.789  0.0179  0.0435 -0.1170
14574W        W29705   0.700   6.265   5.531 -0.1197 -0.4267  0.0920
14575W        W29706   4.768   2.439  14.903  0.1121 -0.1142 -0.0032
14576W        W29707  10.221   6.275  14.811  0.1256  0.0445 -0.0339
14577W        W29708  12.480   3.481   2.472 -0.1534 -0.0730  0.0054
14578W        W29709  12.469  16.539  13.211  0.0386 -0.1528 -0.2564
14579W        W29710   4.127  10.219   2.214  0.1071 -0.0027 -0.1900
14580W        W29711  14.403  17.881   3.895  0.1915 -0.0397 -0.0735
14581W        W29712  10.176  14.189   1.024  0.0618  0.2073  0.4503
14582W        W29713   6.635   6.679   4.276  0.1413 -0.1315  0.1689
14583W        W29714   8.985   1.326   0.214  0.0895  0.0744 -0.0073
14584W        W29715  13.241   4.647   2.072 -0.1871 -0.0410 -0.3653
14585W        W29716   9.439  13.056   1.491  0.0562  0.1403 -0.0344
14586W        W29717  11.603   6.380   4.345  0.2363 -0.0323  0.0482
14587W        W29718   8.836   6.228  10.166 -0.1292  0.0078  0.1096
14588W        W29719   4.518   4.520  14.524  0.0648  0.0853  0.2506
14589W        W29720   9.124  15.042   3.487 -0.0184 -0.3601 -0.5237
14590W        W29721   9.804   7.692  12.311 -0.3901  0.2087 -0.1329
14591W        W29722   1.532  15.788  12.624  0.0123 -0.3377 -0.1117
14592W        W29723   6.678  10.125   2.801  0.0508  0.0725  0.0769
14593W        W29724  15.872   7.422   0.433  0.2428  0.1024  0.1474
14594W        W29725   3.982   1.747  13.236  0.1706  0.1485 -0.0699
14595W        W29726   0.851  12.402   5.640 -0.0099 -0.1344 -0.2818
14596W        W29727   8.506  14.835   5.447 -0.0963 -0.0499 -0.1614
14597W        W29728  10.695   3.447   4.858 -0.0619 -0.1679  0.3531
14598W        W29729  11.314  13.218  12.707 -0.0313  0.0726  0.0593
14599W        W29730  10.407   1.911   0.804  0.1641 -0.1874  0.0164
14600W        W29731   0.144   1.708   5.917  0.0769 -0.1585  0.1285
14601W        W29732  10.517  15.936   5.295 -0.3423 -0.1909 -0.0193
14602W        W29733   9.936   7.446   1.256  0.0936  0.0323 -0.1228
14603W        W29734   3.128  17.443   3.758  0.0169  0.3135 -0.0667
14604W        W29735   3.164   8.226  15.529 -0.0734 -0.2091 -0.2481
14605W        W29736   6.696  16.826   0.339  0.1111  0.0226 -0.1040
14606W        W29737  18.051   7.606   3.588 -0.0361  0.0044  0.2347
14607W        W29738  17.519   4.615  12.504 -0.0836 -0.0503  0.0297
14608W        W29739   2.670   9.533  12.413  0.0042 -0.4771  0.3629
14609W        W29740  13.849   1.205   4.629 -0.1065  0.0723 -0.0716
14610W        W29741  12.556   8.800  11.416 -0.1031 -0.1510  0.0523
14611W        W29742  17.531   6.719  14.575  0.2269 -0.2534 -0.0254
14612W        W29743   1.707   1.276   2.476 -0.0245  0.0824  0.1198
14613W        W29744   8.375  11.391   3.011  0.1369  0.3178  0.4311
14614W        W29745   2.481   4.023   2.332  0.1115 -0.0776 -0.0682
14615W        W29746  17.310  14.260  14.317 -0.2633  0.2892  0.1557
14616W        W29747   5.188  15.121  13.169 -0.1235  0.1707  0.0141
14617W        W29748  16.618   4.303  13.096 -0.1199  0.0604 -0.0238
14618W        W29749  14.034   5.720  14.555  0.3472  0.0287  0.0450
14619W        W29750  12.805   2.647  11.918  0.0802  0.0085  0.1100
14620W        W29751   2.174  12.286   0.806  0.0996  0.0646 -0.0918
14621W        W29752  16.976  12.629   0.408 -0.3256 -0.1100  0.0511
14622W        W29753   2.230  16.417   3.625 -0.0140  0.1134  0.2978
14623W        W29754   9.774   1.146  12.668  0.4229  0.2354  0.1949
14624W        W29755   7.711   0.041  12.806 -0.1750  0.3406  0.1200
14625W        W29756  17.119  14.013   0.849  0.3895  0.2421  0.1174
14626W        W29757   5.114   6.887   2.731 -0.1777 -0.3789  0.1544
14627W        W29758   9.484  12.031  12.076  0.2142 -0.1725  0.0550
14628W        W29759   4.870   1.789  10.890 -0.1287 -0.2213  0.0984
14629W        W29760   9.054   4.586   0.432 -0.1509  0.1139  0.1357
14630W        W29761   7.221   9.757   4.080  0.4048  0.2802 -0.1522
14631W        W29762   3.974   8.664   3.027 -0.1103 -0.0256  0.5249
14632W        W29763   4.006   5.092  11.539 -0.1046 -0.2885  0.1510
14633W        W29764   3.045  11.236   4.789  0.1210  0.0662 -0.0708
14634W        W29765  11.086   9.155  11.095  0.3464  0.0396 -0.1408
14635W        W29766   3.803   2.000   0.828  0.1266  0.0806 -0.1139
14636W        W29767   9.942   0.869   0.765 -0.0100  0.1419  0.1462
14637W        W29768  17.085   2.601  12.651  0.1653 -0.0298  0.0045
14638W        W29769  16.179  15.923   3.437 -0.2094  0.2332  0.0494
14639W        W29770  15.302   3.616   1.817  0.0515 -0.1400 -0.2969
14640W        W29771   4.518  13.074  15.818 -0.3653 -0.2636  0.0375
14641W        W29772   6.617  16.850   1.921 -0.0595 -0.1517  0.2453
14642W        W29773   6.381   0.567   4.492 -0.0449 -0.2238 -0.0517
14643W        W29774   7.037   6.700   4.594 -0.2599  0.0072 -0.1156
14644W        W29775  13.642  12.708   1.092  0.1539 -0.0297 -0.0575
14645W        W29776  13.451   6.921   3.018 -0.2321 -0.2260 -0.0744
14646W        W29777  10.367   2.519  14.342  0.0400 -0.0114  0.1133
14647W        W29778   3.358  11.856   1.009 -0.0582  0.0171  0.0021
14648W        W29779   0.308  16.189   5.452 -0.0015 -0.2402  0.2155
14649W        W29780  13.216  11.916  12.727 -0.1476 -0.1167 -0.0654
14650W        W29781  13.382   2.752   0.032  0.0533 -0.0781 -0.0899
14651W        W29782  15.256   1.327   0.422  0.1570 -0.0304 -0.2625
14652W        W29783  17.205  16.770   4.951  0.1453 -0.1893 -0.0851
14653W        W29784   8.969   6.535   3.772  0.2440 -0.0485 -0.4267
14654W        W29785   7.073   1.685   4.783 -0.0952 -0.0450 -0.0614
14655W        W29786   6.061  10.024   4.328  0.0353  0.2214  0.3329
14656W        W29787   7.848   0.129  10.445  0.1144 -0.0986 -0.0745
14657W        W29788   8.777   7.977   4.304  0.1936  0.0613  0.0805
14658W        W29789  13.399  12.391   5.979 -0.0370 -0.1857 -0.0531
14659W        W29790   1.213   1.431  14.223 -0.0456 -0.3401 -0.2410
14660W        W29791   2.974   1.332   3.041  0.1189 -0.0741 -0.1076
14661W        W29792   9.480  15.454   1.033  0.1604  0.0329  0.0582
14662W        W29793  11.855  16.620  12.764  0.0623  0.0447 -0.2245
14663W        W29794   0.904  17.265  14.553 -0.0788  0.2001  0.0409
14664W        W29795  12.697   0.382  13.783 -0.1718  0.0033  0.1169
14665W        W29796  13.991   2.188  13.660  0.0936  0.1671 -0.0446
14666W        W29797   1.391   9.004  14.224  0.2292 -0.2179  0.2540
14667W        W29798  18.035   1.641   1.175  0.0272  0.0544 -0.1237
14668W        W29799  12.245   0.804   1.493  0.0047  0.0390  0.0692
14669W        W29800  12.599   5.762  14.782  0.3136  0.4262 -0.1709
14670W        W29801  14.156  16.795  15.784 -0.1926  0.1843 -0.3257
14671W        W29802  15.670  14.757   3.015  0.2927 -0.0474 -0.0843
14672W        W29803  16.654   7.607  15.572 -0.1879  0.0507  0.3446
14673W        W29804   4.952   4.613   6.094 -0.0736  0.5266 -0.1106
14674W        W29805  16.492  17.912  13.523 -0.0386 -0.0455  0.2314
14675W        W29806  10.007   7.000  14.418 -0.3259  0.1393  0.2765
14676W        W29807   5.043  10.329   3.519  0.1120  0.0225 -0.1301
14677W        W29808   4.473  15.895   0.122  0.1247  0.0538 -0.2614
14678W        W29809  14.434   8.590  15.635  0.0591 -0.2085  0.1227
14679W        W29810  12.687   4.370   4.414 -0.0596 -0.1204  0.0676
14680W        W29811   0.242  14.461   5.549  0.1453 -0.1832 -0.0356
14681W        W29812   2.777   3.086   1.747 -0.0217  0.5347 -0.0440
14682W        W29813  12.853   8.075   4.283  0.1522 -0.1900  0.0415
14683W        W29814  12.673  15.989  10.312 -0.0054  0.0509  0.0649
14684W        W29815  18.238  10.721  13.335 -0.0337  0.2384  0.1067
14685W        W29816  10.661  16.338  11.265 -0.1782  0.1210  0.0222
14686W        W29817   1.288   5.474  13.837 -0.0448 -0.1209 -0.1231
14687W        W29818  16.990   1.900  14.367  0.0893 -0.0401 -0.1863
14688W        W29819   4.799   3.625  14.317 -0.3841 -0.1008 -0.0632
14689W        W29820  12.937  11.345   4.672 -0.1150 -0.0948  0.0282
14690W        W29821  10.094  10.243   2.836 -0.0774  0.3999  0.4697
14691W        W29822   2.353  10.263   1.991  0.0033  0.0585 -0.1167
14692W        W29823   1.853   2.287  14.326  0.1953 -0.0097 -0.1287
14693W        W29824   4.792  12.901   3.746  0.2552  0.0541  0.0155
14694W        W29825  11.088  12.899  14.439 -0.4359 -0.2372 -0.0452
14695W        W29826   1.999  13.157  14.793  0.0253  0.3500 -0.2006
14696W        W29827   0.035  14.896   2.605 -0.0610 -0.0741 -0.2126
14697W        W29828   5.113  13.536  13.503 -0.1326 -0.1781 -0.0800
14698W        W29829  12.373   0.360   0.657 -0.1182  0.2517 -0.0651
14699W        W29830   2.894  14.581   4.181 -0.0030 -0.1506 -0.1829
14700W        W29831  13.739   4.933  16.062 -0.0702 -0.0107 -0.0024
14701W        W29832  14.489  12.549   0.681  0.2044  0.0448 -0.0834
14702W        W29833  14.966   9.974  13.627  0.1211  0.0373  0.1403
14703W        W29834  14.389   8.107   4.826  0.1683  0.2089  0.1873
14704W        W29835   1.522  17.637   2.418  0.0154  0.4705 -0.4050
14705W        W29836  14.080   8.385   0.416 -0.1486 -0.2410 -0.0973
14706W        W29837   9.481   1.624  11.075  0.2884  0.1445 -0.0083
14707W        W29838  13.955  13.170   0.588 -0.1947 -0.2658 -0.0182
14708W        W29839   3.232   6.890  13.192 -0.0649 -0.0433  0.1934
14709W        W29840  15.853   8.637   1.138 -0.1304 -0.0269 -0.1284
14710W        W29841   2.354  10.855   3.579  0.0581  0.4237 -0.0605
14711W        W29842   9.884   5.902   0.323  0.0375 -0.3631 -0.2348
14712W        W29843  16.762   5.903   4.332  0.2971  0.0142 -0.2162
14713W        W29844   0.348  15.990  14.030  0.1124 -0.1212 -0.0043
14714W        W29845   7.656  12.222   0.513  0.1691  0.2029  0.1601
14715W        W29846   2.163   0.647   4.663 -0.2706 -0.0328  0.1851
14716W        W29847   9.630   3.033   4.219 -0.1270 -0.1161  0.0751
14717W        W29848  11.872  12.688  14.408  0.1508  0.2945  0.1821
14718W        W29849   4.532   5.329  15.715 -0.1953  0.1748 -0.2679
14719W        W29850  13.365   1.723   0.784 -0.2554 -0.0038 -0.1002
14720W        W29851  13.696  14.975  16.062  0.1464 -0.0876  0.1114
14721W        W29852  10.316  12.494   1.482 -0.1082 -0.3121  0.1636
14722W        W29853  13.506   5.651  14.804 -0.0063  0.2731 -0.2087
14723W        W29854  13.508  11.216  12.209  0.0444 -0.1517  0.0963
14724W        W29855  13.719   1.083   2.320  0.0562  0.3445 -0.0140
14725W        W29856   2.161   1.938  14.661 -0.1431  0.0030  0.4173
14726W        W29857   2.892  17.536   2.619 -0.0644  0.0796  0.0037
14727W        W29858   5.512  10.628  10.987  0.1159 -0.2068 -0.1943
14728W        W29859  12.913   1.193  11.450 -0.0832 -0.0252  0.2192
14729W        W29860   1.340   3.590  15.872  0.0005  0.2638 -0.0583
14730W        W29861   7.954  10.333  15.357 -0.2356  0.0021  0.2176
14731W        W29862  16.973  16.552   4.565  0.2045 -0.0843 -0.0974
14732W        W29863   3.619   5.849   2.972 -0.3328  0.0161  0.1507
14733W        W29864  15.581   7.433  15.121 -0.0454 -0.0934  0.0168
14734W        W29865  14.279   5.803  13.340 -0.0436  0.1268 -0.0302
14735W        W29866  11.399  11.767  11.465  0.2257  0.2367  0.2667
14736W        W29867  17.520   7.524  12.188 -0.0333  0.2955 -0.2358
14737W        W29868  16.758   1.427   0.652  0.3140  0.0206  0.0090
14738W        W29869   7.891  15.518  13.309 -0.2335  0.0859  0.2433
14739W        W29870   8.028  11.515   2.259 -0.0885 -0.0597 -0.1094
14740W        W29871  17.976  14.699  12.425  0.0401 -0.3232 -0.2035
14741W        W29872  11.428  12.590   4.240  0.2197 -0.0295 -0.4645
14742W        W29873   5.450   1.470   5.857  0.4062 -0.0678 -0.0041
14743W        W29874   9.480  10.361  12.067 -0.0410  0.2825 -0.2327
14744W        W29875   7.322   7.278   4.261 -0.1417  0.2215 -0.3809
14745W        W29876   6.463  15.155   1.237  0.0307  0.1660  0.0568
14746W        W29877   6.050   7.824   3.572 -0.0325 -0.2345 -0.3791
14747W        W29878  16.858   4.811  15.787 -0.1035  0.0191 -0.1128
14748W        W29879   8.908  14.195  14.712 -0.0564  0.0002  0.2188
14749W        W29880   6.421   5.975  15.820  0.0037 -0.2178  0.0881
14750W        W29881   1.401  17.218  11.782 -0.1021  0.3631 -0.2690
14751W        W29882  11.718   0.319   3.175  0.1704  0.2475  0.0306
14752W        W29883   4.580  16.201  15.194  0.0064  0.2241 -0.2862
14753W        W29884   9.327  17.719   6.171 -0.0526 -0.3042  0.0289
14754W        W29885  17.730   2.963   0.583  0.3679  0.2110  0.1439
14755W        W29886  15.090  16.220  12.507 -0.2600  0.1372  0.1098
14756W        W29887   5.929  11.893  12.680 -0.0029 -0.0973  0.3035
14757W        W29888  17.030   3.947  15.197 -0.2120 -0.4015 -0.2980
14758W        W29889   1.498   5.017  14.657  0.2591 -0.0670  0.0471
14759W        W29890   2.026   1.508  13.790 -0.4813 -0.0683 -0.2054
14760W        W29891   0.686  16.895  11.506 -0.0864  0.0228  0.1365
14761W        W29892  14.638  17.651   1.815 -0.0453 -0.0316  0.1742
14762W        W29893   7.025  12.690   1.585 -0.2124  0.1719 -0.1804
14763W        W29894   7.865  14.201   5.951  0.2167 -0.2728 -0.4435
14764W        W29895   6.837  18.141  11.610  0.5330  0.0459  0.2973
14765W        W29896  12.424   2.595  12.469 -0.1349 -0.0890  0.4042
14766W        W29897  12.646  10.871  14.509 -0.0164 -0.2285 -0.0677
14767W        W29898   6.316   7.424  11.283  0.0661 -0.0106  0.1291
14768W        W29899  14.588   1.334   0.515 -0.0706 -0.0763 -0.2228
14769W        W29900   1.278   1.268   0.690  0.0376  0.0026 -0.1561
14770W        W29901   6.837  17.521  13.934  0.0569 -0.0710  0.0974
14771W        W29902  15.785  17.029  13.886 -0.2568  0.1332  0.1297
14772W        W29903   7.456  11.662   1.114  0.0627 -0.1594 -0.1320
14773W        W29904  14.800   0.860   1.605  0.3133 -0.0285  0.1234
14774W        W29905  13.409   0.591   0.702  0.0841  0.0583 -0.0611
14775W        W29906  15.860  10.039   0.261 -0.4752  0.1351 -0.0319
14776W        W29907  10.782  18.063  12.488  0.2096  0.0261  0.1953
14777W        W29908  17.704  15.083   4.577  0.2754  0.1207  0.1707
14778W        W29909   4.549   7.240  14.470 -0.1073  0.1975 -0.0684
14779W        W29910   8.170  11.566  14.125 -0.2494  0.0415 -0.0837
14780W        W29911  10.595   7.249  12.112 -0.1445 -0.0712 -0.0256
14781W        W29912  15.237  10.244   2.037 -0.1824  0.1075  0.0211
14782W        W29913   1.880  10.796  14.534  0.1137  0.0993 -0.2628
14783W        W29914   4.510  17.645   6.287 -0.2662 -0.0863  0.0760
14784W        W29915  15.936   7.381   3.976  0.1050  0.1538  0.1290
14785W        W29916   2.195  18.028   4.849 -0.1427  0.0529 -0.1485
14786W        W29917   1.152  14.790  10.569  0.0390  0.0138 -0.1630
14787W        W29918  15.296  10.423   0.634  0.1560 -0.5933  0.4299
14788W        W29919   0.669   7.602   1.398  0.1248  0.2038  0.1767
14789W        W29920  17.902  13.903  16.052 -0.0299 -0.0245  0.1007
14790W        W29921   4.570   7.969   3.215 -0.1817 -0.0644 -0.1439
14791W        W29922   1.443   8.275  10.425  0.0038  0.0002 -0.0130
14792W        W29923   6.169  15.833   3.919  0.1547  0.2741 -0.2589
14793W        W29924   1.145  16.986   1.670 -0.1119  0.2405 -0.1198
14794W        W29925  16.121   8.731  14.693 -0.1609 -0.2846 -0.1806
14795W        W29926  17.948  16.527   1.254 -0.0210  0.0259 -0.0671
14796W        W29927  11.401   7.687  14.510 -0.1748  0.1065  0.2572
14797W        W29928  15.950  14.303  12.042 -0.0369  0.3864  0.1189
14798W        W29929   0.149   4.530  11.123 -0.1086 -0.0062 -0.1406
14799W        W29930  16.220   4.024   3.046 -0.1092  0.0639 -0.2245
14800W        W29931  15.608   2.408   5.351  0.0395 -0.0121 -0.2020
14801W        W29932   8.319  12.771  12.175 -0.1013 -0.1447 -0.2265
14802W        W29933   9.115   4.024   0.448 -0.2227  0.0964  0.0809
14803W        W29934   6.012   1.559  12.871 -0.0203 -0.1050  0.1225
14804W        W29935   1.684   4.641  15.953 -0.1118  0.2665 -0.1165
14805W        W29936  11.719   8.400  11.159 -0.0431  0.2544 -0.3795
14806W        W29937   1.222  16.563   5.780  0.3131 -0.2892  0.3085
14807W        W29938  16.350   5.710  12.442 -0.0819 -0.2517  0.0279
14808W        W29939   8.137   5.490   4.458  0.1834 -0.1793 -0.1085
14809W        W29940   9.679   3.424   5.135 -0.1147 -0.0992 -0.4699
14810W        W29941   0.359   5.540  11.581  0.0021 -0.0765  0.0311
14811W        W29942  10.392  14.822   1.792  0.0418  0.0041 -0.3504
14812W        W29943   6.784   0.945  12.104  0.0201  0.1669 -0.0871
14813W        W29944   8.613  14.208  11.957  0.0675 -0.2619  0.0667
14814W        W29945  16.621   1.294  15.588  0.0867 -0.0616  0.0517
14815W        W29946   2.291   4.053   0.832  0.0187 -0.1718 -0.0394
14816W        W29947  11.981   1.864  13.907  0.0796  0.0947  0.2281
14817W        W29948   4.118  12.356   0.390 -0.0829  0.1328 -0.1075
14818W        W29949   9.641   7.277  10.929 -0.1312 -0.2235  0.1807
14819W        W29950   7.355   0.126  15.944 -0.0242 -0.0710  0.2237
14820W        W29951  11.226   6.744   3.176 -0.0084 -0.1169  0.1263
14821W        W29952   5.906   8.086  14.619  0.1110  0.1607 -0.2022
14822W        W29953  11.610   7.760   2.256  0.0911  0.0192  0.0817
14823W        W29954   0.113   6.478  12.788 -0.2637 -0.1940  0.0802
14824W        W29955  17.458   1.051   1.575 -0.0992 -0.2292  0.2014
14825W        W29956   8.992   2.328   1.199 -0.2782  0.1307 -0.0259
14826W        W29957   0.161  13.317   6.365  0.0501 -0.1464 -0.1984
14827W        W29958   1.081   4.635  16.006 -0.3224 -0.0676 -0.3540
14828W        W29959  10.621   8.189  15.723 -0.0017  0.2002  0.3021
14829W        W29960   3.043  16.412   0.237 -0.1094  0.1191  0.0222
14830W        W29961   9.455   9.363  11.988  0.2135  0.2346 -0.1751
14831W        W29962  17.850   2.149   4.989  0.2416 -0.1314 -0.2655
14832W        W29963  15.522  10.912   1.615  0.1750  0.2727 -0.0999
14833W        W29964   9.437   7.530  13.680  0.1618 -0.0703  0.1820
14834W        W29965   3.442  11.038  13.650  0.2625  0.1595 -0.0148
14835W        W29966  15.286  12.022  12.302 -0.1596 -0.3030 -0.1455
14836W        W29967   6.779  10.123  15.265  0.0575 -0.0555 -0.0051
14837W        W29968  17.526  11.477  10.794  0.2872 -0.2418  0.2000
14838W        W29969  10.294  13.824  12.034  0.2044  0.4572  0.3220
14839W        W29970   6.856  12.537   4.227 -0.4088 -0.0195  0.1441
14840W        W29971   9.531   0.211   4.082 -0.2700 -0.1305  0.1611
14841W        W29972   8.853  12.329  15.610 -0.2220 -0.0606  0.2106
14842W        W29973   9.539   9.526   1.235  0.1335 -0.0791 -0.0069
14843W        W29974   3.569  11.101  12.036 -0.0448 -0.0686  0.2738
14844W        W29975  12.407   2.183  15.227  0.3112 -0.2206  0.0591
14845W        W29976   7.115   2.794  14.214 -0.0927  0.0867  0.0877
14846W        W29977   1.213  12.922   4.990 -0.0885 -0.3690  0.1310
14847W        W29978  14.639   5.842  12.966 -0.0234  0.1336  0.0258
14848W        W29979   0.014  13.981  11.767 -0.0497 -0.0235 -0.1740
14849W        W29980   8.543   9.091  13.303  0.0929 -0.2720 -0.3720
14850W        W29981   7.783  10.766  13.472 -0.2867 -0.0427 -0.2174
14851W        W29982  15.349  10.129   2.874  0.0036 -0.0245  0.0492
14852W        W29983  12.209   8.506   0.992 -0.2749 -0.0468  0.0165
14853W        W29984  12.544   3.008   0.162  0.0667 -0.2457  0.1002
14854W        W29985  12.760  17.421  11.093  0.1026 -0.0555 -0.1790
14855W        W29986  13.855  14.755  11.092 -0.3817 -0.0369  0.0960
14856W        W29987   3.592  11.963  11.348  0.0401  0.1882 -0.3482
14857W        W29988  10.969   7.841  13.676  0.1075 -0.0275  0.1930
14858W        W29989   5.434  10.279   1.921  0.0915  0.0137 -0.1430
14859W        W29990   9.173   9.408  15.349  0.1369  0.1468 -0.1637
14860W        W29991   1.786  18.310  13.478 -0.0432 -0.1356  0.0605
14861W        W29992   5.210  14.312  16.063 -0.0139 -0.2007  0.0697
14862W        W29993   9.995   9.049   2.630 -0.2736  0.0592  0.1944
14863W        W29994  12.773   1.690   1.423 -0.1412  0.0191  0.2653
14864W        W29995   0.217   4.366   2.830  0.1609  0.2359  0.0353
14865W        W29996   6.665  14.472   1.206  0.1584 -0.3085 -0.0057
14866W        W29997   2.534  17.938   2.095  0.2894 -0.1785 -0.3101
14867W        W29998   1.867  14.853  15.697  0.1021 -0.1299  0.2464
14868W        W29999   1.342  17.170   4.147  0.4694 -0.0791 -0.0905
14869W        W30000  16.061  11.048   2.991 -0.1432 -0.1209 -0.1651
14870W        W30001   5.537  15.427  10.995  0.2344  0.0791 -0.3341
14871W        W30002   8.452   1.061  11.190  0.0345  0.0407  0.1857
14872W        W30003  10.819   7.380   0.735 -0.0105 -0.0905  0.0883
14873W        W30004   8.198   5.487  14.462 -0.1176 -0.1719  0.2657
14874W        W30005  18.134   3.057  16.026 -0.0119 -0.0600 -0.1355
14875W        W30006   3.841   8.035   0.464  0.1059 -0.0663  0.0470
14876W        W30007   9.930   7.567  10.706 -0.0301 -0.0273 -0.3649
14877W        W30008   4.758  12.567  13.708  0.3353 -0.0073  0.0471
14878W        W30009  12.996  15.999  15.524 -0.1765 -0.1562  0.1055
14879W        W30010   1.949   3.643   4.636  0.1013 -0.2082 -0.2681
14880W        W30011   7.148   6.163   2.566  0.0016 -0.1904  0.0347
14881W        W30012  11.814  13.347  11.133 -0.0080 -0.0329  0.0306
14882W        W30013  15.399   4.822   3.895 -0.4004  0.1462  0.0583
14883W        W30014   3.863   6.227  14.186 -0.1926 -0.0102 -0.1271
14884W        W30015  17.373  14.079   2.614 -0.1707  0.0410  0.0336
14885W        W30016  15.713  16.136  10.567 -0.0187  0.1087 -0.0936
14886W        W30017   1.694  15.980   5.122 -0.0752 -0.2249  0.0736
14887W        W30018   4.044   4.623   5.519  0.4737  0.0459 -0.2383
14888W        W30019  18.292  12.315  14.983  0.1170  0.0790 -0.1708
14889W        W30020  14.242   0.414  12.590  0.0384 -0.1192 -0.1540
14890W        W30021  18.235  16.729   2.396  0.1115 -0.2120 -0.1657
14891W        W30022   3.183   5.062   2.246  0.0467 -0.2711 -0.1219
14892W        W30023   5.164   9.716   2.795  0.1082  0.0319  0.1994
14893W        W30024   9.607   1.485  11.715  0.0214 -0.2108 -0.1631
14894W        W30025  11.777  18.097  14.545 -0.0469 -0.3058  0.3063
14895W        W30026  12.589   7.917  14.850  0.2489  0.1644 -0.0626
14896W        W30027  12.462  12.857  13.512  0.0933  0.0040  0.3433
14897W        W30028   2.016   0.798  11.612 -0.2527 -0.2806  0.0865
14898W        W30029   9.363   0.056  12.604 -0.1275  0.2262  0.3325
14899W        W30030  10.281  13.813  13.473  0.2906 -0.1859  0.2934
14900W        W30031  11.332   2.919  14.790  0.0159  0.1582  0.0087
14901W        W30032   5.079   9.680  11.042  0.2505 -0.1973 -0.0443
14902W        W30033   9.605  15.882  15.300  0.0691  0.4908  0.1307
14903W        W30034  13.005   6.049  11.531  0.0153 -0.0021  0.0352
14904W        W30035  16.459  11.338   3.360  0.0651  0.0951 -0.1119
14905W        W30036   1.903   2.720   0.403 -0.0223 -0.3106  0.1202
14906W        W30037   5.640  15.264  13.206  0.0588  0.2290  0.1786
14907W        W30038   2.560  13.721  11.375 -0.0332  0.1329 -0.1452
14908W        W30039  13.799  15.911   1.230  0.2157  0.3279  0.2247
14909W        W30040  13.234   5.893  15.159  0.1198 -0.0177  0.1864
14910W        W30041   4.766   2.246  13.971 -0.0364 -0.0923 -0.1457
14911W        W30042   2.962   7.488  10.585 -0.0964 -0.0161 -0.0448
14912W        W30043   9.359   0.910  14.928 -0.1817  0.2079 -0.2083
14913W        W30044   0.902   8.772  14.143 -0.0811 -0.2497 -0.1067
14914W        W30045  17.766  16.371  15.997  0.5459  0.2208  0.0901
14915W        W30046   5.427   5.855   3.794 -0.0170  0.1131 -0.0960
14916W        W30047  16.571  11.566  11.821 -0.3630  0.3686  0.0701
14917W        W30048   8.339   5.551   3.314 -0.0817 -0.0473  0.2995
14918W        W30049   3.781   5.144  12.936  0.2614 -0.0148 -0.2588
14919W        W30050  15.223   7.861  15.444 -0.0089  0.1385  0.3395
14920W        W30051  13.165   7.475   5.456 -0.3401 -0.3500  0.0584
14921W        W30052   9.045   8.307   5.077  0.2072  0.1222  0.1395
14922W        W30053   2.206   8.942  10.407 -0.2886 -0.0439 -0.0186
14923W        W30054   9.611   5.099   4.561  0.3122  0.1387  0.3563
14924W        W30055   5.564   2.516   5.194 -0.2918  0.0723  0.3207
14925W        W30056  12.425  18.250   1.585  0.3294  0.1563  0.1249
14926W        W30057   1.841  10.932  11.197 -0.1323  0.0471  0.2033
14927W        W30058   0.110   5.165  13.033 -0.0101  0.0253  0.2801
14928W        W30059   4.874   9.072   1.501 -0.0395 -0.1320  0.4465
14929W        W30060  17.017  15.442   1.984 -0.0440 -0.1254 -0.2630
14930W        W30061   8.191   3.900  11.873 -0.1585 -0.1036  0.1978
14931W        W30062  14.164  11.923   1.243  0.1216 -0.0793  0.1799
14932W        W30063   0.870  11.819  14.490  0.0043  0.3240  0.1323
14933W        W30064  16.701  15.057   3.519 -0.1921 -0.1435 -0.2506
14934W        W30065  15.985  15.507  14.690 -0.1592  0.2296 -0.1467
14935W        W30066  11.512  17.184  15.460  0.2696  0.0338  0.3651
14936W        W30067   0.686  12.733   2.542  0.0357 -0.2961  0.0669
14937W        W30068  14.175   1.590   4.576 -0.1749 -0.0657 -0.2248
14938W        W30069   4.012   0.786   3.891 -0.0406 -0.0567  0.2517
14939W        W30070  13.639  16.734   5.191 -0.0696 -0.0333 -0.0286
14940W        W30071  11.987   8.681  12.781  0.1096 -0.1526  0.0821
14941W        W30072   8.808   2.730   3.676  0.3298 -0.0442 -0.0474
14942W        W30073  10.604   5.832   1.301  0.0560 -0.0694  0.0995
14943W        W30074  10.204   8.763   4.398  0.0620 -0.1337 -0.1196
14944W        W30075  11.812  15.039  15.058  0.1994 -0.1574 -0.2681
14945W        W30076   0.564  12.159  14.345 -0.1454  0.2102 -0.5318
14946W        W30077  16.206  13.377  13.140  0.0162  0.0657 -0.1518
14947W        W30078   2.010   6.094   5.171  0.0392 -0.0403  0.0318
14948W        W30079   1.197   6.314   5.527 -0.2245  0.0091 -0.2305
14949W        W30080  12.361   8.584   4.654  0.0498 -0.2189 -0.0551
14950W        W30081  14.513  12.626  11.961 -0.0551  0.2284  0.1682
14951W        W30082  16.605   8.198  12.200  0.0870 -0.1291 -0.1148
14952W        W30083   4.976  13.730   3.294  0.3254 -0.0554  0.2972
14953W        W30084  10.810  12.622  12.219  0.1120 -0.0433  0.1431
14954W        W30085   7.765  10.767  11.249 -0.4277 -0.3145 -0.2765
14955W        W30086   1.765  11.626   4.059  0.1915 -0.0456  0.0071
14956W        W30087  10.793  17.051  11.556 -0.0769 -0.0756 -0.0378
14957W        W30088   3.594  16.267  15.440  0.1092  0.0986  0.4059
14958W        W30089   2.347  14.372  15.566 -0.2264  0.1548 -0.1156
14959W        W30090   7.569  12.373  12.690  0.1156 -0.2375  0.0430
14960W        W30091  11.633  15.463   4.888  0.2641  0.1764  0.0222
14961W        W30092   1.587  15.497  15.728 -0.1372  0.0616 -0.0074
14962W        W30093   1.559  16.222   4.670 -0.1032  0.2990 -0.1813
14963W        W30094  10.276   2.366  13.120  0.1140  0.1237 -0.0699
14964W        W30095  14.694   8.935   3.344  0.0273  0.0535 -0.0706
14965W        W30096  15.643   6.997  12.956  0.0584  0.1011 -0.0002
14966W        W30097  16.383  11.817   0.388 -0.2307 -0.4156 -0.0888
14967W        W30098   9.357   8.024   2.475 -0.1694  0.0157  0.0084
14968W        W30099   5.079  17.749  14.273  0.0981  0.0690  0.1657
14969W        W30100  12.249   7.178  12.434 -0.0908 -0.1156 -0.3913
14970W        W30101  15.903  17.040   3.039  0.1259  0.1055 -0.1670
14971W        W30102  15.276  11.278  15.114  0.0119  0.3235  0.2155
14972W        W30103   5.199  16.774   3.471  0.2605  0.0066 -0.1162
14973W        W30104   7.140  15.111  12.663  0.2447  0.1248 -0.0203
14974W        W30105  14.932  13.581  14.452 -0.2663 -0.0103 -0.1478
14975W        W30106   5.760  18.246   5.196  0.0136  0.2347 -0.4015
14976W        W30107   7.547   0.640   6.492  0.2689 -0.2515  0.1007
14977W        W30108  14.242   7.590  13.816 -0.0974  0.0084  0.0564
14978W        W30109   1.173  14.287   1.706 -0.0438 -0.3636  0.0579
14979W        W30110   2.086  13.347   4.744 -0.0008 -0.0254  0.0571
14980W        W30111   4.194  11.758  14.492  0.1397 -0.0157 -0.3499
14981W        W30112  17.715  13.482   0.250 -0.2462  0.0802 -0.1060
14982W        W30113   8.702   1.954  12.061  0.1627 -0.2415  0.1735
14983W        W30114  13.503   6.882   1.260 -0.3064 -0.1992  0.0002
14984W        W30115  13.528   9.135   1.862 -0.1574  0.0171 -0.1570
14985W        W30116  14.309  16.075   3.266 -0.1206  0.4837 -0.0265
14986W        W30117  13.975   7.994   4.379  0.2373 -0.0357 -0.1376
14987W        W30118   3.668  12.558  11.986 -0.0180 -0.0608 -0.1735
14988W        W30119  14.433   2.242  10.541  0.0453  0.0823  0.1357
14989W        W30120  14.875   9.742  10.956 -0.1006  0.0450 -0.3370
14990W        W30121   2.732  10.284   2.703  0.0176  0.2178  0.0015
14991W        W30122   5.093  14.528   1.535 -0.0851  0.0434 -0.1370
14992W        W30123   9.678  13.693  13.530  0.0453  0.0357 -0.0604
14993W        W30124   7.854   1.344  15.915 -0.1186  0.2096 -0.2435
14994W        W30125   9.240   9.615  12.979  0.3125 -0.1708  0.2165
14995W        W30126  12.700   9.540   1.233 -0.3968  0.0414 -0.0038
14996W        W30127   8.398  13.757  14.015  0.1491 -0.0788  0.0626
14997W        W30128   0.724   8.882  15.381  0.0040 -0.1763 -0.2452
14998W        W30129  15.264  17.062  10.702  0.1370  0.2201 -0.4140
14999W        W30130   4.411  10.051   5.270  0.3204  0.0383 -0.2235
15000W        W30131   1.463   2.642   0.659  0.1972 -0.0710 -0.3580
15001W        W30132  18.164  15.878   6.441 -0.0733  0.0629 -0.2728
15002W        W30133   1.194  15.759  14.477  0.1619  0.1055 -0.1461
15003W        W30134  10.846  15.494  11.598 -0.1168  0.0114  0.1940
15004W        W30135  17.804   7.185   5.465 -0.2171  0.0295  0.2239
15005W        W30136   3.519  17.704  13.261  0.2071  0.0046  0.2356
15006W        W30137  16.958   9.886   5.239 -0.1828 -0.1938 -0.0251
15007W        W30138   4.525  12.342   5.349  0.2262 -0.0246  0.0195
15008W        W30139   5.037   2.443   3.260  0.0371  0.1853 -0.3056
15009W        W30140  15.678  12.694   4.682  0.0693 -0.0465  0.0552
15010W        W30141  12.372   7.200   2.030  0.1939 -0.0991 -0.0446
15011W        W30142   0.561  12.520   0.365  0.0192  0.1587 -0.4243
15012W        W30143  13.060   5.103  11.627  0.1011  0.0343 -0.3804
15013W        W30144  12.492   6.485  13.609 -0.1762 -0.2017  0.2109
15014W        W30145   0.597   8.484  13.853 -0.0188  0.1712 -0.0767
15015W        W30146   1.965   7.559  13.066 -0.2149  0.0214  0.1950
15016W        W30147   0.160   7.502  12.372 -0.2412  0.0697 -0.2016
15017W        W30148   0.718   1.130  11.882 -0.0014 -0.0778 -0.0749
15018W        W30149  11.492   9.480   2.362  0.0428  0.1020 -0.0612
15019W        W30150   5.549   2.995   4.363 -0.0445  0.0398  0.0623
15020W        W30151   5.889   0.680   3.133 -0.0358  0.2885  0.0652
15021W        W30152   7.568   0.360   1.180  0.0033 -0.0711 -0.2190
15022W        W30153  13.217  11.600  14.583  0.0767  0.1683  0.2203
15023W        W30154   0.568   3.288  14.871  0.1242 -0.3247  0.1212
15024W        W30155   1.432   0.273   2.299  0.1597  0.2002 -0.1850
15025W        W30156   0.513   0.455  13.847 -0.0522 -0.2139  0.1454
15026W        W30157  13.997   6.324   4.239 -0.2736  0.1237  0.1042
15027W        W30158  13.013  13.171  12.626 -0.0589  0.0111  0.3329
15028W        W30159  15.959   1.456   0.137 -0.2388  0.1220  0.0175
15029W        W30160  14.133   8.215   2.796  0.0489  0.0890 -0.0911
15030W        W30161  15.789  16.425  15.314  0.0882 -0.3164 -0.0623
15031W        W30162  16.328   4.541  10.639  0.0434  0.0044  0.0774
15032W        W30163   0.637  12.925  11.508  0.4122 -0.0242 -0.0273
15033W        W30164  10.793   7.532  14.629  0.0362 -0.0554 -0.1063
15034W        W30165   8.173   1.809   4.147 -0.3365  0.0693  0.1898
15035W        W30166  15.898   5.899  13.997 -0.0078 -0.0728 -0.0909
15036W        W30167   9.768   1.582  15.323  0.0530  0.1624 -0.1638
15037W        W30168  12.060  17.113   3.527  0.2318  0.0764 -0.0604
15038W        W30169   3.597   0.225  14.262 -0.1691  0.0111 -0.0143
15039W        W30170  14.527   3.935   2.864  0.2780  0.1298  0.1807
15040W        W30171   3.771  17.112   5.316  0.0295  0.0963 -0.1283
15041W        W30172  16.742  16.478   5.007  0.3721  0.1103 -0.3126
15042W        W30173  17.048   5.318  13.634 -0.3404 -0.1268 -0.0327
15043W        W30174  14.013   9.801   0.676  0.1651  0.0422 -0.1712
15044W        W30175   9.091   1.763  11.371 -0.2506  0.1701 -0.0740
15045W        W30176  17.072   8.311  12.348 -0.1346  0.3084 -0.3629
15046W        W30177   4.069   6.568  15.641 -0.4219  0.0572 -0.1068
15047W        W30178  17.001  17.625  13.828 -0.1272  0.1999  0.0519
15048W        W30179   8.066   3.188   2.356 -0.2082  0.2813 -0.1195
15049W        W30180  12.268  12.001   1.407  0.1257  0.0728  0.1951
15050W        W30181   5.304  14.012  11.694  0.1312 -0.1025  0.0637
15051W        W30182  14.935   6.547  13.310 -0.0796  0.0128 -0.1064
15052W        W30183   1.978   9.558   3.718 -0.0675 -0.1826 -0.1256
15053W        W30184  18.293   5.421  11.135 -0.1764 -0.1834 -0.1111
15054W        W30185   3.997   4.739   2.374 -0.0433 -0.1227  0.1793
15055W        W30186  17.256   3.302   2.617 -0.3281 -0.0394 -0.2466
15056W        W30187   6.516   7.873   0.342  0.1693  0.1673  0.0605
15057W        W30188  10.290   4.383  13.856 -0.0397  0.1501  0.0218
15058W        W30189  13.802  10.756  15.587 -0.2728  0.0501  0.1844
15059W        W30190   5.506  17.978  15.978  0.1559 -0.0795  0.3551
15060W        W30191  14.183   6.434   5.213  0.2419 -0.0968  0.0039
15061W        W30192   0.311  10.295   5.566 -0.0617  0.0853  0.0047
15062W        W30193   2.587  17.050   1.800  0.0851  0.2747 -0.1985
15063W        W30194   6.463   6.908  13.524 -0.0457  0.2055  0.0745
15064W        W30195  17.433   1.814  12.506 -0.2395 -0.1229 -0.0371
15065W        W30196   8.152   1.025   0.548 -0.1559 -0.1448 -0.1125
15066W        W30197  11.305  15.526  14.347  0.5966 -0.0272 -0.0366
15067W        W30198  12.309   6.624   2.703 -0.0409 -0.0907  0.0149
15068W        W30199  10.651   8.553   4.564 -0.2580 -0.2474  0.1689
15069W        W30200  16.048  14.184   3.335 -0.0394 -0.3225 -0.2070
15070W        W30201   4.154   4.146   5.751  0.2486 -0.0016  0.2045
15071W        W30202   0.818   7.492  13.308  0.0117 -0.0623  0.1313
15072W        W30203   2.159   6.612  12.788 -0.0744 -0.4202  0.2070
15073W        W30204   5.516   3.995  11.844  0.2235 -0.0308  0.0242
15074W        W30205  17.859  11.333   5.163  0.1702 -0.0911 -0.0441
15075W        W30206  15.171   9.882   3.869  0.3255  0.1596  0.2048
15076W        W30207  17.636  17.210   0.653  0.1923 -0.2259 -0.2566
15077W        W30208  16.730  10.351  10.212  0.0849 -0.0696 -0.0623
15078W        W30209  16.273   1.371   0.523  0.0165 -0.1146  0.1679
15079W        W30210   5.333  16.751   4.453  0.1955 -0.4257 -0.0847
15080W        W30211   2.657   3.456  12.843 -0.1806  0.3033 -0.0058
15081W        W30212   7.860  10.584   4.954 -0.1845 -0.1698  0.2622
15082W        W30213  16.729  16.021  14.608 -0.4902  0.0069 -0.2751
15083W        W30214  10.261   1.767   4.027  0.3589 -0.1060  0.2008
15084W        W30215  18.038   9.075  11.748 -0.2957 -0.0330 -0.0924
15085W        W30216  11.895  16.649  12.158 -0.2995  0.2456 -0.0285
15086W        W30217   0.925   6.152   3.578 -0.0131  0.1436 -0.0697
15087W        W30218  11.962  16.102  15.357 -0.4651  0.2557  0.0978
15088W        W30219  17.361   4.963  15.021 -0.3591 -0.1371 -0.0801
15089W        W30220  17.925   4.543   0.232 -0.1935  0.0478  0.1014
15090W        W30221  15.862   5.962  11.516  0.1724 -0.0455  0.2726
15091W        W30222  11.784   8.702   1.600  0.0551 -0.2093 -0.0286
15092W        W30223   8.214   0.442   0.425  0.1829 -0.2287 -0.1068
15093W        W30224  10.278  16.643  10.801  0.2148 -0.0940  0.1864
15094W        W30225  15.575  13.732   0.410  0.0120 -0.1933  0.2822
15095W        W30226  18.287   1.567  10.299 -0.0469  0.1704 -0.0149
15096W        W30227  10.800   1.246  12.229 -0.1043 -0.0963  0.1977
15097W        W30228   9.883  16.356   0.745  0.1777  0.0156  0.0370
15098W        W30229  14.426   0.760  13.974  0.1701  0.1154 -0.4626
15099W        W30230  13.228   6.315   1.985 -0.3621  0.4848  0.0930
15100W        W30231  10.774   6.216   9.909 -0.3417 -0.0206 -0.1522
15101W        W30232  17.659   1.568  14.240 -0.0786  0.1602  0.0464
15102W        W30233   2.302   7.237  12.023 -0.1316  0.0402 -0.1436
15103W        W30234  18.068   5.479   2.444  0.0024  0.2080 -0.1378
15104W        W30235   3.068   9.006  12.954 -0.1597 -0.0900 -0.3318
15105W        W30236   0.695   1.938  11.382 -0.0334 -0.1381 -0.3319
15106W        W30237   2.078  10.157   5.431  0.1835 -0.4932 -0.0909
15107W        W30238   3.007   6.780  14.113 -0.2646 -0.2195  0.1195
15108W        W30239   5.590   2.240  13.579  0.0032 -0.1118 -0.1021
15109W        W30240   8.658   6.660  15.383  0.0116 -0.1029 -0.0928
15110W        W30241  10.535  14.469   0.159 -0.0568  0.2653 -0.2156
15111W        W30242  17.852   9.569  12.354 -0.0311 -0.0291 -0.0629
15112W        W30243   0.830  17.236   5.923 -0.0903  0.1132 -0.0302
15113W        W30244  11.777  17.782  16.087 -0.0338 -0.2133 -0.1337
15114W        W30245   9.740  18.238  15.237 -0.4215 -0.0952  0.1761
15115W        W30246   5.309  17.588  13.352 -0.0162  0.3574  0.0981
15116W        W30247   8.052   4.676  11.074 -0.1091  0.3654  0.0402
15117W        W30248  17.070   5.146   5.855  0.2109 -0.1684 -0.1068
15118W        W30249   7.242  13.383   5.174  0.0040  0.1971 -0.1059
15119W        W30250   6.294   7.466  13.114 -0.0098 -0.2758  0.5344
15120W        W30251   3.378  15.457  15.990  0.0160 -0.2141  0.2838
15121W        W30252  12.245   7.092  11.090 -0.0982 -0.2020  0.2603
15122W        W30253   1.845   0.124  12.886  0.1041 -0.2711  0.3124
15123W        W30254  15.412  11.846  14.850  0.0757 -0.0606 -0.0465
15124W        W30255  18.060   0.754   5.831  0.1174 -0.0795  0.1373
15125W        W30256   2.282   0.579   0.908 -0.2209  0.0943  0.2513
15126W        W30257  11.731  10.778  10.654  0.2665  0.0052  0.0938
15127W        W30258   7.856   2.404   1.280  0.0165 -0.1692 -0.2639
15128W        W30259   1.594   5.040   1.966 -0.1348 -0.5017 -0.2173
15129W        W30260  16.272   9.235  15.518  0.0798  0.1172  0.2764
15130W        W30261  16.822   6.767  10.259 -0.2279 -0.0071 -0.0460
15131W        W30262   1.252   1.082   4.573 -0.0670  0.0953 -0.1393
15132W        W30263   7.364  12.125  11.370 -0.1094  0.3485 -0.0859
15133W        W30264  11.650   0.452   9.886  0.1406 -0.1280  0.0407
15134W        W30265   1.800   0.971   1.556  0.0758  0.3437 -0.3330
15135W        W30266  14.822   7.981   1.679  0.2474 -0.0626 -0.1035
15136W        W30267   4.658  11.229  12.738 -0.4190  0.0644 -0.0843
15137W        W30268   2.081  12.570   4.360 -0.2588 -0.0791  0.2349
15138W        W30269  17.225   9.867   4.780 -0.4570  0.2081 -0.0577
15139W        W30270  17.850  15.733   5.884 -0.0962 -0.0364 -0.0920
15140W        W30271   6.296   1.555   5.511  0.0521 -0.1509  0.3112
15141W        W30272  18.331  15.139  13.543  0.0702 -0.2357  0.0711
15142W        W30273   6.419   6.158   1.779 -0.2422  0.3579 -0.0445
15143W        W30274  15.076   9.718   1.269 -0.0484  0.2103  0.0656
15144W        W30275   4.825   1.396   1.783 -0.0744  0.0770 -0.1499
15145W        W30276  18.097  12.860  10.565  0.1636 -0.0252 -0.2453
15146W        W30277   6.686  12.387   3.761 -0.1519 -0.1105  0.2034
15147W        W30278   6.940   8.141   2.059  0.0410  0.0560 -0.0713
15148W        W30279   7.796   9.245  12.128 -0.0860 -0.1900  0.1076
15149W        W30280   6.755  12.999  15.265  0.1064  0.1930  0.2081
15150W        W30281   4.397   9.831   4.799 -0.1301  0.1303 -0.2276
15151W        W30282   3.227   1.207  11.184 -0.1638 -0.0013 -0.0634
15152W        W30283  12.654   1.731   2.347 -0.4857 -0.1500 -0.1436
15153W        W30284  13.789   9.203  14.413  0.1473 -0.0614  0.1812
15154W        W30285  12.423   5.286  10.346 -0.1520 -0.0351 -0.1564
15155W        W30286   1.745   7.701  13.626 -0.0342  0.0535  0.0319
15156W        W30287   3.303  13.789   0.248  0.1351 -0.1175 -0.2006
15157W        W30288  13.405   6.432   2.461 -0.0084  0.0550 -0.0201
15158W        W30289   0.516   1.403  11.544  0.1076  0.0599 -0.0379
15159W        W30290   7.357  11.866  12.735 -0.0033 -0.0798 -0.0273
15160W        W30291   4.812  14.634   2.035 -0.1663 -0.2640  0.1946
15161W        W30292   2.803  11.242   1.953  0.1547  0.1773  0.0746
15162W        W30293   8.478   7.840  13.858 -0.1012 -0.1540 -0.2551
15163W        W30294   2.627   9.711  13.242  0.0289  0.1105  0.0603
15164W        W30295   9.959   7.791   0.032 -0.1040  0.1734 -0.0579
15165W        W30296  13.280   4.653  15.335 -0.0708 -0.0151 -0.0497
15166W        W30297   0.208  13.892  13.561 -0.0123 -0.1200 -0.4172
15167W        W30298   8.352   2.586   5.574  0.0706 -0.0607 -0.4591
15168W        W30299   9.030   7.980   1.030 -0.1871  0.0162  0.0902
15169W        W30300  18.276   6.917   0.822 -0.2653  0.1048 -0.2021
15170W        W30301   0.140  11.863  13.630  0.0092 -0.1225  0.0803
15171W        W30302   3.980  17.283   4.888 -0.1653 -0.1312 -0.2982
15172W        W30303   9.855  18.331  11.921 -0.0484 -0.1988 -0.0239
15173W        W30304   2.052  17.978   5.890  0.1321 -0.0866 -0.0446
15174W        W30305   7.038  14.721  13.954  0.2370  0.1480 -0.2309
15175W        W30306   8.284   4.572   1.003 -0.0734 -0.2292  0.1318
15176W        W30307   3.904   0.995  12.617  0.1286  0.0617 -0.1830
15177W        W30308  15.359  15.403   1.471 -0.1635 -0.1161 -0.3981
15178W        W30309  16.532  10.319   3.568  0.2555 -0.0984  0.0698
15179W        W30310   7.067   0.844  12.527 -0.4151 -0.0974  0.0193
15180W        W30311  17.059  14.673  14.453 -0.0914  0.0051 -0.2529
15181W        W30312  15.192   0.905  14.551  0.1152 -0.0162  0.0811
15182W        W30313   5.241   5.695   0.228  0.0057 -0.0686 -0.0197
15183W        W30314  13.684  14.798  13.606  0.1196 -0.0390  0.0178
15184W        W30315  16.864   6.952  11.888 -0.1494  0.0500  0.0976
15185W        W30316   9.106   3.785  12.684  0.0398 -0.1093  0.1056
15186W        W30317   7.800   1.016  15.433  0.3548  0.0183  0.0507
15187W        W30318  15.930  11.616   3.762 -0.0835  0.0309 -0.2110
15188W        W30319   8.967  16.172  14.940  0.2691 -0.1967  0.2374
15189W        W30320   9.063  13.984   0.821  0.0564  0.1212  0.2383
15190W        W30321  10.785  10.289  14.918 -0.3076  0.2980  0.4088
15191W        W30322   4.331   3.490  14.523  0.0883  0.3318 -0.1451
15192W        W30323  17.095   3.099   4.583 -0.2030  0.3491  0.0873
15193W        W30324  11.154   3.691   0.775  0.1203 -0.1062  0.3374
15194W        W30325   3.804  18.163  13.480  0.1570  0.0644 -0.1994
15195W        W30326  14.624   5.013   5.122  0.2237  0.1065  0.1154
15196W        W30327  17.673   4.683  13.847 -0.1425 -0.0417 -0.1454
15197W        W30328   2.452   6.324   5.242 -0.2299 -0.1970 -0.1374
15198W        W30329   4.544   1.040   4.057 -0.3174 -0.0074 -0.2092
15199W        W30330   6.832  17.150   2.740  0.0871  0.1575 -0.0088
15200W        W30331   2.214   4.221   3.375 -0.1571 -0.1442 -0.1885
15201W        W30332  17.686  10.460  11.164  0.0013 -0.1089  0.0478
15202W        W30333   2.496  16.030   2.805  0.0242 -0.2397 -0.0054
15203W        W30334   1.895  14.428   3.680 -0.0598 -0.0930  0.0361
15204W        W30335  16.466   6.146  15.193  0.0031  0.0594 -0.2041
15205W        W30336   0.379  13.185   3.268  0.0578 -0.3138  0.1490
15206W        W30337  13.722   7.755  11.691  0.2395 -0.1476  0.0466
15207W        W30338   7.085  10.490  16.005 -0.0859 -0.0359  0.2340
15208W        W30339   9.820   8.104  15.126 -0.0656 -0.1165 -0.1570
15209W        W30340   8.796   6.659  12.198 -0.0651 -0.0631  0.2019
15210W        W30341   0.667   6.832   2.802  0.0040 -0.0219 -0.3191
15211W        W30342   1.506   3.542  11.151  0.0806  0.1062  0.1297
15212W        W30343  13.334   8.969   0.916  0.0581 -0.0973 -0.2449
15213W        W30344   8.055   7.196   5.415 -0.2838  0.0764 -0.0852
15214W        W30345  16.716   9.937  10.474 -0.1221 -0.0223 -0.3658
15215W        W30346  11.677   2.934   1.332 -0.0335 -0.2164  0.2273
15216W        W30347  12.707  10.799   3.248 -0.1692 -0.3188  0.0059
15217W        W30348   7.502   9.114  11.367 -0.0872 -0.0647  0.2340
15218W        W30349   5.020   0.198   0.861 -0.3634 -0.0809  0.1407
15219W        W30350   5.662   7.399  12.680  0.0166  0.1564  0.0073
15220W        W30351   2.820  18.026   2.912 -0.0105 -0.0061 -0.2725
15221W        W30352   5.809  11.646   1.622 -0.0846 -0.0613 -0.2725
15222W        W30353  12.440   6.931  13.889 -0.4775 -0.1243  0.1347
15223W        W30354  18.286  15.608  11.076  0.0553 -0.3299  0.1242
15224W        W30355  16.919  11.267  13.021  0.0930  0.0527  0.1565
15225W        W30356   9.653   4.657  15.303  0.1079 -0.4208  0.2253
15226W        W30357  14.918   6.005   3.225  0.4460  0.3504 -0.0900
15227W        W30358   8.211  17.804   4.080  0.3984 -0.0259  0.0156
15228W        W30359   9.313   0.022   0.879  0.1173 -0.3724 -0.1480
15229W        W30360   5.563  13.519   1.820 -0.0630 -0.0381 -0.1952
15230W        W30361   3.219   4.197  10.979 -0.2797  0.2708  0.1651
15231W        W30362   6.945   6.525  11.793 -0.2685  0.1049  0.1079
15232W        W30363   8.831  15.885   3.464 -0.1417 -0.1341 -0.1568
15233W        W30364   1.840   0.380   1.004 -0.0752  0.0998  0.0823
15234W        W30365   2.925   4.720   4.599 -0.6723 -0.1504 -0.0506
15235W        W30366   0.402   4.947   2.190 -0.0059 -0.2787 -0.0798
15236W        W30367  18.181   7.182   3.150  0.0648  0.3048  0.3318
15237W        W30368  17.505   5.552  12.258  0.2938  0.1291 -0.2657
15238W        W30369  14.740  12.014   1.356 -0.2198  0.1938  0.2410
15239W        W30370   8.176  17.959  15.220  0.1279  0.0767 -0.1002
15240W        W30371   0.717   8.498   2.376  0.0202 -0.2649  0.3453
15241W        W30372  16.352   4.866  15.989  0.0144 -0.1465  0.0935
15242W        W30373  12.034   5.801  15.507 -0.0584 -0.3081  0.3549
15243W        W30374  14.051  10.241  10.017  0.1224 -0.2062  0.0125
15244W        W30375   8.458   3.600  12.861 -0.0791  0.0514 -0.0018
15245W        W30376   7.575   9.235   2.518 -0.2228 -0.3236 -0.1550
15246W        W30377  16.711  17.237   3.641 -0.2302 -0.0497  0.1128
15247W        W30378  16.118  12.801   4.977  0.4753  0.1199 -0.0337
15248W        W30379   0.441  10.993   1.720 -0.1293  0.1928  0.2472
15249W        W30380   9.385   9.768   3.748 -0.0484  0.0307 -0.1563
15250W        W30381   5.634   1.681   5.081 -0.1621 -0.0014 -0.1433
15251W        W30382  12.845  10.284  11.063  0.0901  0.2058  0.3001
15252W        W30383   2.029  13.635   3.715  0.1181 -0.0509  0.2171
15253W        W30384  10.089  13.710   3.390  0.2024 -0.3610  0.1505
15254W        W30385  11.641  13.973   3.450 -0.1698 -0.3983 -0.1499
15255W        W30386   2.562   3.493   2.449  0.1411 -0.3673  0.4343
15256W        W30387  17.449   1.611  15.221 -0.0184 -0.1368  0.1386
15257W        W30388  18.153   9.637   4.079  0.0721 -0.0551  0.1642
15258W        W30389   8.185   2.667  10.789  0.1760 -0.0508 -0.2695
15259W        W30390  10.084   9.724   4.817 -0.0860  0.0801  0.1662
15260W        W30391  14.894   4.528   0.424 -0.1194 -0.0319  0.3021
15261W        W30392   0.595   3.354  13.870 -0.3201 -0.1703 -0.0039
15262W        W30393   1.803   0.072   2.652  0.1096 -0.1637 -0.0708
15263W        W30394   2.992  16.742   4.403  0.3071 -0.2593  0.1524
15264W        W30395  11.068  14.742  13.983 -0.1772 -0.0482  0.3070
15265W        W30396  15.924   1.877   4.854 -0.0138 -0.3730 -0.1994
15266W        W30397   0.553   9.548   3.127 -0.0085  0.0849 -0.0703
15267W        W30398   5.928  16.145   2.468 -0.0200 -0.1142  0.0632
15268W        W30399  10.813   8.602   3.273  0.0502  0.1914 -0.1292
15269W        W30400   1.087   6.815   2.534  0.0348  0.0524  0.1810
15270W        W30401   0.287  16.899  15.152 -0.1658 -0.1065 -0.0510
15271W        W30402  10.533  10.436  15.336  0.1512  0.0560  0.2515
15272W        W30403   4.337   5.405  11.266 -0.2823  0.2557 -0.0530
15273W        W30404   1.704  12.976  13.004  0.1856  0.0721 -0.0385
15274W        W30405   3.056  15.493   3.743 -0.2152 -0.1528 -0.1166
15275W        W30406  12.659   3.937   1.095 -0.0180 -0.1114 -0.1684
15276W        W30407   2.542  12.939   2.040 -0.0001 -0.1322  0.1664
15277W        W30408  14.862   9.851  15.597 -0.0138  0.1595  0.2094
15278W        W30409   9.814   4.347   0.030  0.1220  0.2329 -0.0572
15279W        W30410   8.802   4.428   1.204 -0.2132  0.1146  0.0154
15280W        W30411   7.880   3.847  12.265  0.1689  0.1501  0.2114
15281W        W30412   8.278   0.582  11.521 -0.0176 -0.4032  0.0883
15282W        W30413   9.625   0.469  10.504 -0.1845 -0.0334  0.0048
15283W        W30414  13.526   5.745   3.736  0.0594 -0.1946  0.1276
15284W        W30415   3.780   3.468  11.457  0.1535 -0.0977 -0.2370
15285W        W30416  10.593  11.692   2.040 -0.3181 -0.1122  0.0075
15286W        W30417   6.751  18.100   4.516 -0.1127 -0.1297  0.3211
15287W        W30418   4.110  10.647  12.819 -0.0377  0.0982 -0.2117
15288W        W30419  15.736  12.709  15.323  0.2976 -0.1514 -0.2802
15289W        W30420   7.862  18.142   1.083 -0.1428  0.1479  0.1756
15290W        W30421   7.098  15.213   4.243  0.0719 -0.1062  0.1983
15291W        W30422  15.107   9.575  11.352 -0.0339  0.1851  0.2376
15292W        W30423   8.941  12.529   1.233 -0.0322 -0.1799  0.0017
15293W        W30424  15.576  17.845  11.831  0.1034  0.4034 -0.0663
15294W        W30425   6.644   8.094   0.791  0.2029 -0.1263 -0.0235
15295W        W30426  15.603   8.512  12.999  0.1474  0.0743  0.3385
15296W        W30427  11.123   1.860  15.741 -0.0799  0.0571  0.2215
15297W        W30428   3.934   9.102   2.700 -0.0479 -0.0072  0.0256
15298W        W30429  17.024   2.314  14.093 -0.0041 -0.0410 -0.2635
15299W        W30430   5.627   4.195  12.836 -0.0251  0.3106 -0.0307
15300W        W30431   4.594  15.413  12.123  0.3109 -0.2922  0.2762
15301W        W30432  13.476  16.830   4.553 -0.3371  0.1290 -0.3032
15302W        W30433  10.765  15.180   0.937  0.0041 -0.1149 -0.2808
15303W        W30434  13.573  13.987   1.399 -0.1545  0.1201 -0.1640
15304W        W30435   3.276   1.972  11.680  0.4021 -0.3271  0.3766
15305W        W30436   9.815  11.901   5.722  0.2813 -0.3582  0.1309
15306W        W30437  12.211   2.506   5.185  0.0524 -0.2269  0.0756
15307W        W30438   0.244  10.982   2.717  0.1243  0.3286  0.0832
15308W        W30439   9.008  10.779   1.232  0.0904  0.0939 -0.1627
15309W        W30440  15.241   1.822   1.680  0.0626 -0.3607 -0.1853
15310W        W30441  12.611  13.241  14.020 -0.1132 -0.1277 -0.0267
15311W        W30442   4.288  12.632  14.209  0.1507 -0.2448  0.0795
15312W        W30443   8.340  17.587  10.486  0.3852  0.0891  0.2104
15313W        W30444   1.264  10.865   3.797  0.0978  0.1658  0.0710
15314W        W30445   9.725   9.428  14.522  0.0504  0.0014 -0.1242
15315W        W30446   8.137  15.601   3.159 -0.0469 -0.1144 -0.0540
15316W        W30447   7.769   0.779   0.281 -0.2291  0.1274  0.0482
15317W        W30448  16.122  17.373   9.756  0.0093  0.2297  0.0613
15318W        W30449  13.666  16.710   2.859 -0.0359 -0.1110 -0.3005
15319W        W30450   9.543  17.687   1.205  0.0671  0.1381 -0.0988
15320W        W30451   8.067   8.648   1.513  0.1468  0.1725  0.0049
15321W        W30452   3.867   5.194  13.432  0.2179  0.0006 -0.2469
15322W        W30453  15.215  14.375  10.472 -0.1315  0.2769 -0.2591
15323W        W30454  12.525  16.597   2.170 -0.0809 -0.6044 -0.2000
15324W        W30455  15.341   7.592  11.060  0.0212 -0.2814 -0.0974
15325W        W30456   9.939  16.819   9.624 -0.0894 -0.1219  0.0038
15326W        W30457  12.703  13.889   2.485 -0.1235  0.0547  0.0700
15327W        W30458  12.648   6.992  13.301  0.3871  0.4059 -0.4087
15328W        W30459   4.933   1.713   2.467  0.1715  0.0200 -0.4342
15329W        W30460  11.546  12.445   0.641  0.2212  0.2359  0.2098
15330W        W30461  10.339   3.002  12.393 -0.4383 -0.3248  0.2092
15331W        W30462   3.785   2.113   0.326 -0.0906  0.1516 -0.2129
15332W        W30463  16.678   6.673  15.765 -0.0646 -0.0746 -0.0675
15333W        W30464  12.221   9.517   3.692 -0.2974  0.1673  0.1310
15334W        W30465   6.435  18.329   5.717  0.0893 -0.2276  0.0761
15335W        W30466  14.119  18.102   1.396  0.0140  0.2590  0.1044
15336W        W30467  16.401   6.233   3.716  0.1739 -0.0976  0.1196
15337W        W30468   2.273  16.485   6.305 -0.2382  0.2875  0.2614
15338W        W30469  10.109   7.585   3.573 -0.1541 -0.1853 -0.2386
15339W        W30470   3.047   7.144  14.414 -0.0804  0.3423 -0.1155
15340W        W30471   1.844   2.263   3.306  0.1111  0.0194 -0.2330
15341W        W30472  10.470   3.972  15.139  0.2896  0.2204  0.0387
15342W        W30473   0.800   9.756   1.847  0.0790 -0.4380 -0.0571
15343W        W30474  11.299   7.110   4.966  0.3391 -0.1658  0.0613
15344W        W30475   1.655  12.923   5.756  0.1698 -0.0967  0.2033
15345W        W30476   2.773  17.311  13.743  0.2399  0.3165  0.0619
15346W        W30477   8.970   8.888  15.493  0.1437  0.1731 -0.0583
15347W        W30478  11.908  17.139  10.997 -0.1588 -0.0639  0.3078
15348W        W30479   5.176  18.028  13.561 -0.3397 -0.1897  0.1214
15349W        W30480   2.978  13.608   0.634 -0.2446  0.3995  0.1694
15350W        W30481   9.483  16.748  12.792  0.1343 -0.0362  0.0830
15351W        W30482  15.728   5.310   0.076 -0.0833 -0.2394  0.3335
15352W        W30483   6.798   6.664   0.288 -0.0972 -0.0380  0.0285
15353W        W30484   3.508   8.319  12.095 -0.1478  0.0009  0.1916
15354W        W30485   4.355  18.191  12.945  0.0453  0.0764  0.0661
15355W        W30486   6.188  15.495   5.311 -0.0928  0.2094  0.1060
15356W        W30487   2.476   4.506   5.781  0.0345  0.0631  0.0769
15357W        W30488  15.530  14.278  13.695  0.0725 -0.1019 -0.0032
15358W        W30489   0.599   9.551   4.438 -0.2921 -0.0066  0.0577
15359W        W30490  16.310   8.282  15.984  0.1454  0.0159  0.0202
15360W        W30491   3.388  14.425   0.782  0.0815 -0.1036  0.1603
15361W        W30492   0.468   8.091  12.793  0.1340 -0.0109  0.0124
15362W        W30493   4.901   3.711   2.222  0.2988 -0.3581 -0.0318
15363W        W30494   5.469  14.140  14.267  0.1016 -0.0671  0.0875
15364W        W30495  11.393  16.974   0.153  0.1636  0.1431 -0.1518
15365W        W30496   6.244   0.804   6.037  0.0219 -0.1145 -0.0618
15366W        W30497   4.732   9.797   5.557  0.0029 -0.4720 -0.3664
15367W        W30498  12.723   7.924  10.934  0.0775  0.6132 -0.3501
15368W        W30499   7.561   3.008   4.904 -0.1644 -0.1505  0.2541
15369W        W30500   2.049  12.894  13.371  0.1076 -0.2246 -0.1028
15370W        W30501   7.082   2.776   1.746  0.0491 -0.1691  0.0345
15371W        W30502   1.709  16.593   1.075 -0.1162 -0.0453 -0.1339
15372W        W30503  15.254   0.939  13.010  0.1583 -0.0141 -0.1494
15373W        W30504  12.944   1.791   5.397 -0.0087  0.0018 -0.3186
15374W        W30505   6.077  15.265   0.304  0.0656  0.0827  0.0247
15375W        W30506   0.776   7.111   3.636 -0.1190 -0.3382 -0.0724
15376W        W30507   6.242   3.037  12.767 -0.1191 -0.2213 -0.3135
15377W        W30508  15.076   8.729  10.826  0.1136 -0.1388 -0.1224
15378W        W30509  11.237   6.042   0.894  0.1246  0.2319 -0.2042
15379W        W30510  15.729  13.323  14.460  0.0770 -0.2318 -0.0225
15380W        W30511   7.206  15.914  11.708 -0.0072 -0.0469 -0.0453
15381W        W30512  17.217  12.076   2.018  0.1020  0.2494 -0.2094
15382W        W30513   9.638  13.823   0.273  0.0044  0.0361 -0.1525
15383W        W30514   0.832  12.024   3.192 -0.2661 -0.0316 -0.0658
15384W        W30515   9.437   2.971  14.541  0.1209 -0.2662  0.1692
15385W        W30516  17.036   3.860  10.597 -0.3027 -0.0203  0.1688
15386W        W30517  13.988  17.952  10.984  0.0295 -0.0018 -0.1174
15387W        W30518  13.876  17.392  11.164  0.1408 -0.0269 -0.1106
15388W        W30519  10.662   6.482  15.666 -0.0917 -0.0146 -0.1507
15389W        W30520   0.803  16.725   1.994 -0.2752  0.0405 -0.0462
15390W        W30521   4.284  10.379  14.449  0.0347  0.1870 -0.0803
15391W        W30522   8.443  15.419  15.432  0.0113 -0.0921  0.0004
15392W        W30523   4.594   3.670  12.340  0.2697  0.0397 -0.1557
15393W        W30524   3.810   8.441   1.278 -0.4940  0.1574  0.2279
15394W        W30525  11.106   0.862  14.186  0.0574 -0.0262 -0.0356
15395W        W30526   7.326  11.761   0.661 -0.0274 -0.1926 -0.0925
15396W        W30527  17.004   9.042  10.671  0.0638  0.3921 -0.0295
15397W        W30528  12.648   3.472  11.979 -0.2484  0.4072 -0.3095
15398W        W30529   8.815  15.663   4.009  0.1880  0.3255  0.0020
15399W        W30530   1.419  12.265   4.035  0.2874  0.0654  0.2382
15400W        W30531   0.871   9.143   3.278 -0.0008  0.0772  0.1680
15401W        W30532   8.028  10.943   0.658 -0.0075  0.1063  0.0782
15402W        W30533   0.617  15.365   0.316 -0.2234 -0.0682  0.0355
15403W        W30534   7.979  17.748   2.971  0.1323  0.0585  0.2291
15404W        W30535  16.542   7.020  13.938 -0.1524 -0.0211 -0.0547
15405W        W30536  16.953   4.313  12.684  0.3279  0.0345  0.1069
15406W        W30537   8.718   7.080  13.186 -0.2116 -0.0968  0.3576
15407W        W30538   8.694   5.557  12.694  0.0147 -0.3494  0.0294
15408W        W30539  11.633  17.207  13.577 -0.2158 -0.0693  0.0673
15409W        W30540   2.064   9.107   2.606 -0.2300  0.0057 -0.2042
15410W        W30541   3.578  15.228  13.160  0.4106  0.2012 -0.0298
15411W        W30542   4.438   6.283  12.926  0.1850  0.2675  0.0391
15412W        W30543  14.502  10.098   9.680 -0.1648 -0.0833  0.0299
15413W        W30544  14.776  15.000   0.346  0.2573 -0.0863  0.1483
15414W        W30545  13.281  12.830  12.963 -0.0203 -0.2611 -0.0679
15415W        W30546  10.521  11.651   2.586 -0.1718 -0.1512 -0.1726
15416W        W30547   7.944   5.921  10.478 -0.0446 -0.0573  0.0552
15417W        W30548   7.372  12.072  15.303 -0.2392  0.1281  0.3177
15418W        W30549   1.260  17.516  12.149 -0.1027 -0.2733 -0.1567
15419W        W30550  15.120   0.712   1.035  0.1611 -0.0270  0.2441
15420W        W30551   0.153   8.228   4.055  0.0979  0.0808  0.3232
15421W        W30552  17.709   2.100  13.697 -0.2142  0.1181 -0.0658
15422W        W30553   7.871   7.747   0.457  0.2112  0.1465 -0.0592
15423W        W30554   7.237   8.565   2.047 -0.1800 -0.1416  0.2319
15424W        W30555   2.698  11.934   0.710  0.1450 -0.1926 -0.0163
15425W        W30556   8.992   7.335  12.729  0.2843 -0.0393  0.2114
15426W        W30557   2.486  15.359   3.095  0.0043 -0.4029 -0.0097
15427W        W30558   6.271  12.775   0.402 -0.1900  0.1764  0.0287
15428W        W30559   6.204   8.258   2.648  0.2127 -0.0562 -0.0314
15429W        W30560  14.983   3.480   5.214 -0.0265  0.0976  0.0892
15430W        W30561   2.654   0.231  15.207  0.2731 -0.0041  0.0575
15431W        W30562  15.715  13.766  16.019 -0.1566 -0.0124 -0.1727
15432W        W30563   3.290   0.342  12.114  0.0099  0.0408  0.4422
15433W        W30564   1.069   0.326   1.900  0.0040 -0.1028 -0.4650
15434W        W30565  12.899  10.324  15.464  0.0310  0.1522  0.0537
15435W        W30566   4.520   1.533  11.532  0.0435  0.0342 -0.0398
15436W        W30567  14.436   8.256  14.263 -0.0454 -0.0648  0.0213
15437W        W30568  10.734   4.377  13.109 -0.1137 -0.0490 -0.0459
15438W        W30569  10.439   9.033  12.163  0.1171 -0.0237  0.2350
15439W        W30570  13.269   2.270  11.629 -0.0684  0.2021  0.2428
15440W        W30571   5.156  13.396   5.087  0.0182  0.2577 -0.0745
15441W        W30572  11.675  15.300  12.384  0.0177  0.3034 -0.2043
15442W        W30573   4.097  11.346   0.727  0.1287 -0.2332  0.0066
15443W        W30574   1.260   8.897   3.541  0.0689 -0.1891  0.1884
15444W        W30575  16.312   7.689  11.535  0.0039 -0.2639  0.0035
15445W        W30576  17.725  13.689  12.343 -0.2892  0.0381  0.0879
15446W        W30577   1.167   3.714   4.139 -0.2319 -0.0160  0.2528
15447W        W30578   4.717   3.689   3.562 -0.1361  0.1535 -0.0683
15448W        W30579   3.810   0.536  15.717 -0.0306  0.1909  0.4085
15449W        W30580  14.862   9.240  11.641 -0.0604 -0.0257 -0.0445
15450W        W30581  16.215   6.704   3.781 -0.0508 -0.1383 -0.0924
15451W        W30582  17.059   5.614   3.824  0.0840 -0.0210  0.2183
15452W        W30583  12.618   5.661   3.873  0.0691 -0.1051  0.0125
15453W        W30584  15.279  12.806  12.622 -0.1047  0.2850  0.2952
15454W        W30585  10.259   4.252   2.172  0.0077  0.0864  0.0191
15455W        W30586   0.237   3.452  11.613 -0.2054 -0.1594 -0.1816
15456W        W30587  15.666   5.602   1.550 -0.0857  0.0167 -0.3855
15457W        W30588   8.481  17.719  11.126  0.2861  0.0859  0.1722
15458W        W30589   4.541  12.159  14.380 -0.0476 -0.1254  0.2560
15459W        W30590   1.916   8.559  14.357 -0.0757 -0.1442  0.1384
15460W        W30591   2.213  10.728  13.635 -0.1694  0.0107  0.1366
15461W        W30592  15.441  10.348  11.860  0.1578  0.2820  0.0744
15462W        W30593   7.041   3.033   5.724 -0.1467  0.2308  0.0561
15463W        W30594   5.179   8.356  16.032  0.0167  0.1113 -0.1415
15464W        W30595   5.227  12.657   4.976 -0.2599 -0.1705  0.2749
15465W        W30596  12.880   2.399   0.609 -0.0789  0.1636 -0.1432
15466W        W30597   9.614   5.837  12.492  0.0038  0.0696  0.1732
15467W        W30598  15.480  11.403   3.977 -0.1230 -0.1579 -0.3243
15468W        W30599   6.709   0.340  14.539 -0.1908  0.0881  0.2818
15469W        W30600  11.606  11.327  15.231 -0.0746 -0.0437 -0.1232
15470W        W30601  17.721  11.772   4.899 -0.0418  0.1406  0.3131
15471W        W30602   4.051   0.014   2.841  0.0463 -0.1217 -0.1045
15472W        W30603   3.390  16.484   2.958  0.2498 -0.0641 -0.1001
15473W        W30604   9.403  17.577   4.812  0.3553  0.0009 -0.0692
15474W        W30605   0.382   3.380  15.383 -0.3485  0.2008 -0.1262
15475W        W30606  17.893   8.224  12.905  0.0389  0.1044  0.1622
15476W        W30607   2.209   7.582  11.232  0.0207 -0.1172 -0.0248
15477W        W30608  17.733  18.253  13.727 -0.2930 -0.1269  0.0215
15478W        W30609   9.889   5.335  15.195 -0.1117  0.0842  0.2754
15479W        W30610   0.955  15.985  11.956  0.0491 -0.3459 -0.0251
15480W        W30611   9.658  13.997  14.877  0.0842  0.0244 -0.1027
15481W        W30612   6.299   0.709  12.257 -0.1004 -0.0905 -0.2115
15482W        W30613  17.807  10.847   0.973  0.0171 -0.1228 -0.1279
15483W        W30614   8.034   4.814  12.982  0.3371  0.3958 -0.0378
15484W        W30615   6.860   4.351  11.954 -0.1116 -0.2894 -0.0009
15485W        W30616  17.926  15.064   4.084 -0.2051  0.1685  0.2805
15486W        W30617   0.794   8.294  12.442 -0.0993  0.0505 -0.2539
15487W        W30618  14.120   4.105   1.058  0.2482 -0.1461  0.1216
15488W        W30619   5.190   8.193  12.975 -0.1333 -0.2179  0.0806
15489W        W30620  16.800   4.523   1.629 -0.2658 -0.0590  0.0231
15490W        W30621  14.646   2.676   1.909  0.0197  0.1401  0.0954
15491W        W30622   3.392   3.812  11.392 -0.0453 -0.1114  0.1341
15492W        W30623  12.261   1.275   3.575 -0.1689  0.0773  0.1806
15493W        W30624   4.176   9.688   0.108 -0.2236 -0.1372  0.0028
15494W        W30625   2.821  15.499   4.565  0.1330 -0.0985 -0.1142
15495W        W30626   4.300   1.937   3.096 -0.1040  0.0778  0.1418
15496W        W30627  16.641  16.782  12.885 -0.0316 -0.0007  0.3052
15497W        W30628   2.000   1.275   1.961 -0.2822  0.4333  0.0134
15498W        W30629  12.823   0.538  12.556  0.1542 -0.0113 -0.2705
15499W        W30630  12.427  16.952   3.168  0.3209 -0.0032  0.2182
15500W        W30631   6.740  18.052   2.537  0.0243  0.0680  0.2988
15501W        W30632   2.735   9.638   0.387  0.0194  0.0428 -0.1769
15502W        W30633  13.338   0.765  12.234 -0.1883 -0.1541  0.0597
15503W        W30634  15.503  10.289   3.728 -0.0553  0.0600  0.1693
15504W        W30635   4.431   2.909   5.598 -0.0776  0.0448 -0.1963
15505W        W30636  10.146   9.973   4.357 -0.0430  0.1453 -0.2063
15506W        W30637  14.787  18.221   4.449  0.0031 -0.2093 -0.1737
15507W        W30638   2.858  16.012  15.661  0.0916 -0.0519  0.2438
15508W        W30639   7.230   0.004   0.863 -0.0913  0.0086  0.1897
15509W        W30640   0.751  18.132   2.933  0.0182  0.2525 -0.3092
15510W        W30641   6.730   9.390   0.625  0.2664  0.0079  0.0557
15511W        W30642   6.605   0.372   5.975 -0.3117  0.0582 -0.3713
15512W        W30643   5.407  11.892  13.675 -0.1601 -0.1139 -0.0914
15513W        W30644  10.287   2.139   5.105  0.0935 -0.3141  0.2056
15514W        W30645  17.810  15.934  15.844  0.1391  0.0375 -0.3563
15515W        W30646  18.267  15.706   2.721 -0.0200 -0.0819 -0.1988
15516W        W30647  12.124   7.565  14.110 -0.0607 -0.2170  0.0077
15517W        W30648  10.856   9.790  15.306  0.0430 -0.2033 -0.0964
15518W        W30649   1.210  15.611  12.225 -0.0230  0.2941  0.0585
15519W        W30650   0.414   5.504   2.209  0.2045  0.2219  0.2834
15520W        W30651   7.726   1.506   3.250  0.1381 -0.1373  0.2812
15521W        W30652   3.061  12.896   2.763  0.1588 -0.1194 -0.1427
15522W        W30653  16.030   9.156  15.084 -0.1958  0.2504 -0.2394
15523W        W30654  13.821   7.484   5.278  0.1172 -0.1015 -0.2303
15524W        W30655  17.172  16.330   1.360  0.2708 -0.0192  0.1183
15525W        W30656   3.381  11.310   1.918  0.1039 -0.2534  0.0465
15526W        W30657   3.651  15.719   5.563 -0.1568 -0.0020  0.0036
15527W        W30658   0.900   2.149   3.084 -0.0634  0.1157  0.2128
15528W        W30659  17.486   9.224  13.293  0.3622 -0.0381 -0.2636
15529W        W30660   2.830   7.541   2.048 -0.0316 -0.0519 -0.2286
15530W        W30661   9.860  14.181   1.794  0.2349  0.0245  0.1478
15531W        W30662  13.811  18.024  15.791 -0.1510  0.1471  0.2541
15532W        W30663   4.150  13.247  13.691  0.1211 -0.0483 -0.0022
15533W        W30664   5.944  16.739   4.644 -0.0082  0.4752 -0.2914
15534W        W30665   1.008   5.678   1.558 -0.0093 -0.2843  0.5040
15535W        W30666   0.103   5.824  14.244  0.2999  0.2024  0.2527
15536W        W30667   6.398  14.635   0.860  0.2458  0.2492  0.0462
15537W        W30668   1.486   8.141  13.588  0.0535  0.0582  0.0410
15538W        W30669  16.787  16.412  15.404 -0.2864  0.0205  0.3468
15539W        W30670   4.661  13.701   2.196 -0.0110  0.1553  0.0931
15540W        W30671  11.181  11.601  15.002 -0.0957 -0.3581  0.0374
15541W        W30672   3.553   6.760  12.344 -0.0735  0.2324 -0.1362
15542W        W30673   0.677  18.150   1.198  0.1884 -0.0032  0.0028
15543W        W30674   0.835   9.767  10.997  0.1084  0.1409 -0.2786
15544W        W30675  14.742   6.333  14.414 -0.1352 -0.2110 -0.0483
15545W        W30676  11.688   7.848  11.301  0.1779  0.0938  0.4595
15546W        W30677  10.619   4.017  16.025 -0.3771  0.1865  0.1692
15547W        W30678  17.859   3.073   5.211  0.3387  0.1267 -0.0462
15548W        W30679   7.160  10.879   0.223  0.2926  0.2397 -0.1578
15549W        W30680  11.498   9.484  12.742  0.0289 -0.0816 -0.2959
15550W        W30681   7.712  12.404   4.266 -0.4711 -0.0563  0.0011
15551W        W30682   7.595   4.571   2.716 -0.1090 -0.1465 -0.0843
15552W        W30683   9.389   2.705  12.154 -0.0090 -0.1426  0.4713
15553W        W30684  12.161   8.211  12.678  0.2791  0.0742  0.0537
15554W        W30685  14.537   4.615  11.400  0.1181 -0.1283 -0.0792
15555W        W30686   4.421   3.713   1.024  0.0915 -0.2017  0.2332
15556W        W30687   9.927   1.740   0.963  0.2803 -0.2907  0.1876
15557W        W30688   0.512   5.533  14.290 -0.0782  0.1426 -0.0306
15558W        W30689   5.110   7.168  12.092  0.0431 -0.0627  0.0721
15559W        W30690  12.778  16.453  11.039 -0.0037 -0.1735 -0.1127
15560W        W30691   1.595  10.032  12.438 -0.0580 -0.1404  0.1847
15561W        W30692  15.425  15.914  14.588 -0.3419 -0.0907  0.0150
15562W        W30693   0.325  10.850   0.258 -0.0565 -0.0341  0.1317
15563W        W30694  12.246  17.061  15.595  0.0173 -0.1704  0.0315
15564W        W30695   7.373   4.438   2.165 -0.0641  0.1995  0.1729
15565W        W30696  18.081  14.766  15.691 -0.1476  0.3264 -0.2102
15566W        W30697   5.449   3.928   4.925  0.0687  0.0999  0.2477
15567W        W30698   8.454   6.201   3.959 -0.1858 -0.1559 -0.0239
15568W        W30699   9.816  16.185  11.276 -0.0679 -0.1191  0.0115
15569W        W30700   5.828   4.805   3.799  0.2285 -0.1434  0.1524
15570W        W30701   2.238   0.469  12.619 -0.0712 -0.1051 -0.0465
15571W        W30702   1.580  10.696   4.141  0.2641 -0.1550 -0.0616
15572W        W30703   6.568   8.492  12.912  0.0074 -0.0472  0.1254
15573W        W30704   4.997  13.124  13.313  0.1140 -0.2552  0.2860
15574W        W30705  15.080  11.391   0.290  0.2804  0.2550 -0.0781
15575W        W30706   5.201   3.237   0.054 -0.0930 -0.0517  0.0608
15576W        W30707   4.245  12.303  12.100  0.0422 -0.3791 -0.0008
15577W        W30708  10.651   1.766   2.859  0.0646  0.0976  0.0702
15578W        W30709   0.031   4.905  12.618 -0.3410 -0.0796  0.0656
15579W        W30710  13.181   5.579  11.504 -0.0065 -0.2667 -0.1918
15580W        W30711  13.416  15.701   0.440 -0.1773 -0.4468  0.2548
15581W        W30712  13.428   6.000  10.508 -0.2139  0.2956 -0.1048
15582W        W30713   2.743   9.001   3.312  0.1504 -0.0317  0.1702
15583W        W30714  12.057   8.500   5.185  0.3383 -0.0821  0.0664
15584W        W30715   5.246   8.627   5.178  0.3163  0.0960 -0.0655
15585W        W30716   8.319   8.219  14.801  0.1060 -0.3618 -0.0977
15586W        W30717  18.047  18.207   1.851 -0.2567  0.1319 -0.3154
15587W        W30718  11.878   3.387   1.162 -0.0562 -0.0818  0.1384
15588W        W30719  17.544   6.336  11.287  0.1078  0.1218 -0.1672
15589W        W30720  13.673   7.122   4.022  0.2980 -0.0239  0.0764
15590W        W30721  10.594   8.498   4.059 -0.1145  0.2441  0.0827
15591W        W30722   6.212  10.932  15.566 -0.0164 -0.1215  0.1366
15592W        W30723  16.354   9.408   4.580 -0.3277 -0.0181 -0.0358
15593W        W30724   4.544   3.174   4.422  0.0322 -0.3533  0.1247
15594W        W30725  14.360   1.473  15.388  0.1506  0.1592  0.0382
15595W        W30726  16.805   6.207  15.558  0.0654  0.1687 -0.1343
15596W        W30727  17.052   4.108   1.346  0.1318 -0.0460  0.0474
15597W        W30728   7.136  14.594   1.405  0.3620  0.2830 -0.0817
15598W        W30729  14.113  16.305   5.043 -0.0190 -0.0131 -0.0342
15599W        W30730  12.502  13.031  12.694  0.0174 -0.0566  0.0383
15600W        W30731  12.649  11.564   2.709  0.1696 -0.0617 -0.4243
15601W        W30732  16.183  10.008  14.823 -0.0202 -0.0931 -0.2087
15602W        W30733  14.049  16.503   0.584 -0.1212 -0.0314 -0.1342
15603W        W30734  17.043  11.146   4.735 -0.0493 -0.5515  0.3643
15604W        W30735   5.120   7.959  15.697  0.0733  0.2440 -0.1084
15605W        W30736   4.622  10.183  13.976  0.0840  0.3041 -0.1830
15606W        W30737  13.971  18.214  11.396 -0.0431 -0.0523  0.2389
15607W        W30738   5.697  15.366  15.598 -0.0580 -0.1820  0.0288
15608W        W30739  12.130   7.493  13.167  0.1297 -0.1982  0.0044
15609W        W30740   1.462  16.036  13.535 -0.0164 -0.0465  0.2002
15610W        W30741   1.799   0.162  12.374 -0.0838  0.1306  0.2596
15611W        W30742  14.780  14.118   3.646 -0.0095 -0.2774 -0.1323
15612W        W30743  10.598  14.941   3.537 -0.0692 -0.1485  0.2823
15613W        W30744   7.776   5.510   3.508 -0.0516  0.2578 -0.1487
15614W        W30745  18.114   6.539  13.642 -0.1477 -0.0531 -0.3122
15615W        W30746  13.899   3.140  11.541 -0.1213  0.1384 -0.1101
15616W        W30747   1.614   2.008  16.102 -0.2966 -0.0355  0.1319
15617W        W30748   2.647   0.431   0.616  0.2847  0.1911  0.0323
15618W        W30749   2.682  17.474  14.177 -0.3171  0.1341 -0.0547
15619W        W30750  15.535  15.986  12.712 -0.2383  0.1778  0.1543
15620W        W30751  10.721   7.509  12.888 -0.0832  0.4172  0.0648
15621W        W30752   4.568   5.014  14.465 -0.1756  0.0823 -0.1672
15622W        W30753  11.901  12.909  15.835  0.1241  0.1282 -0.0990
15623W        W30754   9.638   3.528   1.132  0.0380  0.0690  0.1890
15624W        W30755  17.484   5.541  14.320  0.1628 -0.2193 -0.0117
15625W        W30756  10.988   9.980   5.093  0.5126 -0.1105 -0.1712
15626W        W30757   8.950  11.586  11.203  0.0191 -0.1068 -0.1543
15627W        W30758   2.656   3.968   0.255 -0.3119  0.2735  0.4098
15628W        W30759   1.638  12.363   3.588 -0.4560  0.2643  0.3059
15629W        W30760   6.306   9.890   3.831 -0.4283 -0.1235 -0.0587
15630W        W30761   4.760   0.006  13.418  0.2269  0.0311 -0.0290
15631W        W30762   9.177   2.777   4.509  0.0497  0.0092  0.2462
15632W        W30763   7.980  14.560   3.092  0.1577 -0.3553  0.3515
15633W        W30764   6.496  15.258  13.659  0.3323 -0.2917 -0.1943
15634W        W30765  13.937  16.111  14.975  0.0948 -0.1845  0.2784
15635W        W30766  12.569   8.356   2.752 -0.2397 -0.0169 -0.1904
15636W        W30767   2.855   4.228  10.518 -0.1261 -0.1741 -0.1048
15637W        W30768   8.101  14.276   5.491 -0.3642 -0.0911 -0.3245
15638W        W30769  15.215   3.718  11.464 -0.2473  0.0149  0.3163
15639W        W30770   5.316  12.613  14.328  0.1715 -0.0641 -0.0638
15640W        W30771  10.455   1.083  15.505  0.0728 -0.2520 -0.3395
15641W        W30772  10.569   3.383   2.971  0.1233 -0.1045  0.2121
15642W        W30773   1.880   0.187   4.668 -0.2200  0.2450 -0.1538
15643W        W30774   8.128   0.057   5.369 -0.1970  0.1375 -0.0108
15644W        W30775  12.795  17.269   4.050 -0.0293  0.1739  0.0462
15645W        W30776   3.480   6.417  13.843 -0.0743 -0.0897 -0.1799
15646W        W30777   1.825  14.292  11.653  0.0482 -0.1821 -0.0278
15647W        W30778   9.509   9.837  11.765  0.2932 -0.0365 -0.4297
15648W        W30779  18.138  17.767  11.470 -0.0662 -0.0567 -0.1996
15649W        W30780  14.149  13.926   0.884 -0.0509  0.1231  0.2136
15650W        W30781   0.359  14.783  13.479 -0.2344  0.2651 -0.2100
15651W        W30782  14.625   9.350   1.286 -0.0190  0.0826  0.0628
15652W        W30783   8.864   5.946   1.231  0.0905  0.2529 -0.2209
15653W        W30784  10.203   4.751   2.127 -0.0989  0.0254 -0.1220
15654W        W30785   1.587   4.481  14.347 -0.0331  0.0801 -0.1685
15655W        W30786  16.362   2.978  14.362  0.1130 -0.1835 -0.2227
15656W        W30787  16.267   6.012   0.359  0.0220 -0.2621  0.1237
15657W        W30788   2.448   7.833   1.878 -0.0878  0.0935  0.4168
15658W        W30789   7.332   3.047   3.438  0.1333  0.0785 -0.1929
15659W        W30790   9.064   1.987   4.838  0.0103  0.1160 -0.2011
15660W        W30791  12.124   0.835   4.829  0.1039 -0.0825 -0.2926
15661W        W30792  10.559  11.752   4.216 -0.2191  0.1639 -0.1411
15662W        W30793  12.805  10.381  14.651 -0.0189 -0.1226 -0.1779
15663W        W30794   5.960   6.364  14.110  0.0465  0.0501  0.2192
15664W        W30795   7.050   3.238   3.839  0.2734 -0.2870 -0.2740
15665W        W30796  15.142   6.081  13.566 -0.2818 -0.1684  0.1038
15666W        W30797   1.828  10.190   4.283  0.0894 -0.3008  0.4632
15667W        W30798   8.954  10.480  13.460 -0.2030  0.0843 -0.2480
15668W        W30799  14.335  15.350  11.353 -0.0235 -0.1814 -0.4375
15669W        W30800   5.531   9.971  13.716  0.1280 -0.0670 -0.2302
15670W        W30801  16.452   3.758  13.138  0.0505 -0.1686  0.0456
15671W        W30802   2.941   6.567   2.426 -0.0248  0.0631 -0.0803
15672W        W30803   0.537   1.283  14.443 -0.3768  0.0443 -0.3582
15673W        W30804  10.030   9.434   0.261 -0.2399  0.1363 -0.0330
15674W        W30805   0.632  11.584  12.367 -0.4139 -0.0708 -0.2163
15675W        W30806  11.648  13.175   2.738 -0.1291 -0.0809  0.0491
15676W        W30807   2.465  12.247   4.018  0.1301  0.1493  0.3582
15677W        W30808   1.412  13.259   5.405  0.1666 -0.1745 -0.0197
15678W        W30809   9.236   7.011   2.381 -0.1776  0.2001  0.2734
15679W        W30810  15.446   2.746  12.421 -0.2098  0.1666 -0.0675
15680W        W30811   2.468   9.095  12.454 -0.3419  0.1319  0.0656
15681W        W30812   9.416   9.863  14.590 -0.0866 -0.0392  0.5676
15682W        W30813   0.718  10.096  12.898 -0.2995  0.0918  0.1180
15683W        W30814  13.330   2.381  11.162 -0.2086  0.0051  0.0291
15684W        W30815   3.548  10.547   0.376 -0.1945  0.0243  0.1768
15685W        W30816  10.214   8.341  15.472 -0.0520  0.4279  0.1077
15686W        W30817   7.775   2.745   4.243  0.1534 -0.0547  0.3562
15687W        W30818  12.046  17.175   2.895  0.2518 -0.2853 -0.2725
15688W        W30819   9.231  13.805   4.065  0.0673 -0.0281 -0.3277
15689W        W30820   2.003  15.067  14.229  0.1446 -0.1770 -0.0498
15690W        W30821   5.014   6.026   2.521 -0.1096  0.1581  0.0345
15691W        W30822  12.725  10.042  15.995 -0.3184  0.1832  0.0102
15692W        W30823   0.748  17.449  13.025 -0.1148  0.0750  0.1813
15693W        W30824  11.103   9.834  12.069 -0.1559  0.1531  0.3074
15694W        W30825  15.104  14.319  15.913 -0.1637 -0.0911  0.0815
15695W        W30826  10.478  15.508   3.416  0.2180 -0.3097 -0.2004
15696W        W30827   2.618   9.480   4.576 -0.4702 -0.0107 -0.1325
15697W        W30828  15.655   8.504   3.809 -0.1969  0.0637 -0.2155
15698W        W30829  15.318  17.066  12.976 -0.1986  0.1476 -0.0469
15699W        W30830  10.751   3.216   2.096 -0.1664 -0.0553  0.0303
15700W        W30831  13.620  16.736  10.375 -0.0030  0.2971 -0.1069
15701W        W30832  16.905  14.402   0.694 -0.0767 -0.0374 -0.0483
15702W        W30833   2.405  17.667   2.538  0.2696  0.2939 -0.3904
15703W        W30834   5.609   4.138  10.248  0.0310 -0.1969  0.1569
15704W        W30835  13.359  11.048   5.307 -0.2105 -0.2517 -0.1787
15705W        W30836   8.405   7.730  14.810 -0.2373 -0.1323  0.0297
15706W        W30837   7.068   1.041   2.956  0.3008  0.0118  0.0293
15707W        W30838   3.740   4.298   2.273 -0.0507 -0.0045  0.0332
15708W        W30839   7.560  14.647   3.806 -0.2331  0.2183  0.1563
15709W        W30840  14.798   8.870  15.852  0.0137 -0.1205 -0.1227
15710W        W30841   9.382   3.475   4.221  0.1648  0.3373  0.1913
15711W        W30842  11.815  10.524   1.404 -0.0259  0.1796  0.1807
15712W        W30843   9.262   8.781   4.420 -0.0924 -0.3916 -0.1375
15713W        W30844  16.067   7.666   0.830 -0.2486  0.0944 -0.0975
15714W        W30845  14.127  12.254  13.079  0.1844  0.0253 -0.2243
15715W        W30846   7.819  11.275   3.157 -0.0344 -0.1293 -0.0117
15716W        W30847  12.536  13.091  11.179 -0.0983  0.0341 -0.0217
15717W        W30848   8.376  17.036   5.410 -0.3981  0.2543 -0.3005
15718W        W30849   8.211  13.968  11.631 -0.0558 -0.0271 -0.0593
15719W        W30850   1.670   3.799  14.941  0.1272 -0.0093  0.0448
15720W        W30851   2.527   5.715   1.598 -0.3303 -0.1247  0.2399
15721W        W30852   4.230   7.184  14.858  0.1453 -0.1372 -0.6184
15722W        W30853   1.630  14.637   1.730 -0.0667 -0.0988  0.0548
15723W        W30854   2.146  18.169   2.287  0.2817  0.3533  0.0396
15724W        W30855  12.361   0.512  11.920 -0.2390  0.2087  0.2065
15725W        W30856   5.398   0.841   2.878  0.0324 -0.0758  0.2335
15726W        W30857   4.619  12.309   0.307  0.1762 -0.2827  0.1516
15727W        W30858  13.619  16.742  12.714 -0.0502 -0.1988 -0.3086
15728W        W30859  11.271   2.707   2.553  0.4649 -0.2033 -0.0653
15729W        W30860   8.119  16.691   0.136  0.0912 -0.1326  0.2741
15730W        W30861  12.771   6.177  15.105  0.0881  0.2903 -0.4036
15731W        W30862  11.527  13.875  11.932  0.1474  0.0362  0.0745
15732W        W30863  16.301  15.935   5.591 -0.1793  0.3995  0.1390
15733W        W30864   8.224  16.013  12.858 -0.0785  0.0779 -0.0489
15734W        W30865  11.157   3.347   5.068  0.1166  0.0629 -0.1546
15735W        W30866   5.942   4.986  13.795 -0.0029  0.1726  0.2977
15736W        W30867  14.975  12.907   0.253  0.2898  0.0689 -0.0820
15737W        W30868  13.775  14.427  15.295 -0.0121 -0.1852 -0.0214
15738W        W30869   6.389  13.267  12.922  0.2662 -0.0422 -0.2769
15739W        W30870   3.609  13.038  15.654 -0.1660  0.1882  0.0273
15740W        W30871   8.309  12.465  15.200  0.2980 -0.1788  0.0791
15741W        W30872   6.124  17.208   0.141  0.0398  0.1914 -0.0317
15742W        W30873  16.460  16.181   4.718 -0.1085 -0.0147  0.0211
15743W        W30874  12.708  11.702  12.060  0.0942 -0.1494 -0.2195
15744W        W30875   7.370  15.952   0.202  0.0519  0.1644 -0.2240
15745W        W30876  12.705  10.838  10.270 -0.7364 -0.0846  0.1987
15746W        W30877   1.552   5.220   5.336 -0.0848  0.0754 -0.0541
15747W        W30878  15.822  17.438   0.264 -0.3751  0.1200 -0.0774
15748W        W30879   9.086   6.492   0.109  0.0692  0.0497 -0.1906
15749W        W30880  16.146  11.879  12.067  0.1199  0.1131  0.1850
15750W        W30881   7.244  13.231  11.347  0.0686  0.1230  0.1616
15751W        W30882  14.682   3.668  11.488  0.1974 -0.0573 -0.1690
15752W        W30883  16.030  12.454  16.109 -0.1735  0.0388 -0.1603
15753W        W30884   8.934   0.316   1.545  0.0721 -0.2776  0.0054
15754W        W30885   0.642   4.110   3.837  0.2159 -0.1950  0.1223
15755W        W30886  17.069   2.368   2.195 -0.4789  0.1794 -0.1318
15756W        W30887  18.049   4.797  11.930 -0.0480 -0.2884 -0.0361
15757W        W30888  11.865   8.538   0.173  0.3393 -0.2338  0.1359
15758W        W30889  18.288   5.925  14.682  0.0790 -0.4725  0.0374
15759W        W30890   0.797   0.355  11.808  0.0763  0.0073 -0.1696
15760W        W30891  11.147   8.495   2.636 -0.2919  0.0511  0.0104
15761W        W30892  11.164  16.541   3.077  0.0191  0.1298 -0.2292
15762W        W30893   7.482   9.272   1.191  0.4183 -0.1629 -0.2059
15763W        W30894   0.836   8.082  11.081 -0.2797 -0.1062 -0.1064
15764W        W30895   6.194   0.133   4.873 -0.1314  0.2406 -0.1543
15765W        W30896  14.781  15.207  12.970  0.0682 -0.1387  0.3932
15766W        W30897   2.799  17.925  12.567 -0.2363 -0.0953 -0.1130
15767W        W30898   1.675  12.978  14.402 -0.0647  0.3011 -0.0801
15768W        W30899  16.995  13.566  15.295 -0.0861  0.0899  0.1758
15769W        W30900  14.273   9.734   1.642  0.2952  0.0682 -0.0208
15770W        W30901   6.003   6.588  11.878 -0.0947  0.0181  0.0470
15771W        W30902  15.182   5.356   1.356 -0.1563 -0.0182 -0.1854
15772W        W30903   3.368   1.462  11.721  0.0907  0.0948 -0.1592
15773W        W30904  11.233  10.182  14.567 -0.2828  0.4974  0.2933
15774W        W30905  16.104   2.028   2.862 -0.1208  0.1854 -0.0074
15775W        W30906  11.892   3.953  10.546 -0.0414  0.0175 -0.0792
15776W        W30907  15.519   5.885   0.299 -0.1049 -0.0793  0.0682
15777W        W30908   6.337  12.592  13.522 -0.1480 -0.1275 -0.2856
15778W        W30909  11.500   1.082   3.464  0.2587 -0.1622 -0.0481
15779W        W30910   2.713  15.350  10.954 -0.0650  0.1016  0.0066
15780W        W30911   0.887  13.494   2.727 -0.1814 -0.1481 -0.0634
15781W        W30912   6.521  12.933   3.466 -0.0902  0.0075  0.4635
15782W        W30913  17.402   7.385   1.829  0.4041 -0.3584  0.1420
15783W        W30914  15.938   5.766   0.015  0.1977 -0.0178 -0.0088
15784W        W30915  16.509   4.155  11.595  0.1957  0.2296 -0.0663
15785W        W30916  11.892  17.289   3.996 -0.2419 -0.2382 -0.1341
15786W        W30917   6.987   5.232  11.765 -0.2960  0.3182  0.0281
15787W        W30918  14.090   9.743   1.198  0.2316  0.1202 -0.1567
15788W        W30919  17.026  11.621   1.354  0.1067 -0.1634  0.1820
15789W        W30920   2.051   6.376   3.369  0.2096  0.0851  0.0267
15790W        W30921   5.762  10.030  12.058  0.0284 -0.1495 -0.2065
15791W        W30922  11.076   2.736  10.872 -0.0148 -0.1248 -0.0207
15792W        W30923   6.096  16.862   2.659 -0.1806 -0.1637  0.0399
15793W        W30924  12.339  14.458   3.103  0.3495 -0.0362 -0.3293
15794W        W30925  16.426  13.642   1.398 -0.2599 -0.0657 -0.1777
15795W        W30926   5.212   8.058  14.555  0.3297 -0.0599  0.2876
15796W        W30927   7.146   0.826  11.832 -0.0346  0.1042  0.3518
15797W        W30928  10.124   5.371   3.326 -0.2531  0.1443  0.2288
15798W        W30929   5.087  14.411  15.537  0.1137 -0.1386 -0.0737
15799W        W30930   9.882  10.425   4.313  0.1751 -0.0565 -0.2770
15800W        W30931  13.884   0.403  15.720  0.2082 -0.2321 -0.2386
15801W        W30932   0.534   0.087   0.360  0.2373  0.0813 -0.2774
15802W        W30933  17.611   4.506  12.026  0.0265 -0.0587  0.1186
15803W        W30934   1.104  16.751   0.390 -0.0633  0.0342  0.1038
15804W        W30935  14.330  15.846  11.929  0.1145 -0.2414 -0.1004
15805W        W30936   0.789  14.207  13.790  0.2312 -0.0238 -0.0462
15806W        W30937  13.020  14.293   0.787  0.0699 -0.2387  0.1638
15807W        W30938   3.121  16.979  12.730  0.0959  0.0135  0.2254
15808W        W30939  13.533   3.439   4.222 -0.0724  0.0521  0.1816
15809W        W30940  12.431   5.743  15.778  0.4097  0.2817 -0.1746
15810W        W30941  13.839  18.059   3.286 -0.1285  0.2131 -0.6239
15811W        W30942  12.204   3.084  10.776  0.2008 -0.1269 -0.1917
15812W        W30943   7.894   1.420   4.241 -0.0617  0.0538  0.3034
15813W        W30944   4.890   9.887   3.905 -0.2346  0.1779  0.1588
15814W        W30945  15.909  11.735   0.535  0.1412  0.1955 -0.1465
15815W        W30946   5.534  10.357   1.427 -0.2393 -0.2245  0.0496
15816W        W30947   4.801   8.614   1.442 -0.0411 -0.1903  0.1388
15817W        W30948  10.058   0.430   4.033 -0.3007 -0.4730 -0.1501
15818W        W30949  18.044   2.962   1.875  0.1079  0.2170 -0.6339
15819W        W30950  10.776  13.832  14.450  0.1392 -0.1893  0.1210
15820W        W30951   2.075  16.549   0.550  0.0412 -0.0020  0.1840
15821W        W30952   7.849   0.733  13.494 -0.0839 -0.1702  0.0999
15822W        W30953  16.710   8.674  15.803 -0.0268  0.0127 -0.5850
15823W        W30954  17.495  14.779   4.266  0.0111 -0.1625  0.3106
15824W        W30955  11.020   0.347   5.117  0.1980 -0.2901 -0.0393
15825W        W30956  13.631  18.249   1.190  0.2938 -0.0919 -0.1459
15826W        W30957   3.694  17.782  10.318 -0.2084 -0.0528  0.0915
15827W        W30958  16.546   9.066   4.147  0.1529 -0.0624  0.3004
15828W        W30959  10.774  12.732   4.309  0.2680 -0.0253  0.2297
15829W        W30960   7.064   0.095   1.778  0.1085 -0.0305 -0.0435
15830W        W30961   2.567  11.176  12.232 -0.2031  0.0023 -0.2028
15831W        W30962   3.819   3.104  13.742  0.0402 -0.0814 -0.1343
15832W        W30963   0.161  18.156  13.313 -0.1898 -0.0382  0.1800
15833W        W30964  11.244   2.482   5.167 -0.5153 -0.0519 -0.2785
15834W        W30965   9.738   3.823  15.010  0.0697  0.2843  0.1759
15835W        W30966   1.386   3.885   2.304 -0.0555 -0.2921  0.0204
15836W        W30967  11.440  11.514   1.574  0.1511  0.1551 -0.0474
15837W        W30968  15.652  14.363   4.228 -0.0679  0.2284 -0.2535
15838W        W30969   6.354   3.109   4.013 -0.2104 -0.0381  0.2076
15839W        W30970   2.519   4.022   1.590 -0.1341 -0.3696 -0.0461
15840W        W30971  13.277   7.169  11.153  0.1273  0.1117 -0.3634
15841W        W30972  16.891   2.609   4.543  0.3500 -0.1256 -0.4187
15842W        W30973   1.446   4.468   0.250 -0.2661  0.2554 -0.0493
15843W        W30974   7.125  16.633  11.156  0.0038 -0.3505  0.2181
15844W        W30975   7.867  15.030   4.969 -0.1937  0.4058  0.5271
15845W        W30976   6.919   3.364   2.781  0.3744 -0.1467 -0.1105
15846W        W30977   4.986   2.121   2.138 -0.0461  0.1727  0.0162
15847W        W30978  15.639  14.714   1.366 -0.1442  0.1111 -0.1475
15848W        W30979  14.439  12.371  15.557 -0.0766  0.0439  0.2154
15849W        W30980   6.723   3.050   0.973  0.0240 -0.0516  0.4184
15850W        W30981   3.962  13.376   0.205 -0.0501 -0.4566 -0.1121
15851W        W30982   7.613  11.973   5.279  0.2297  0.0801  0.1440
15852W        W30983  15.141  17.559  14.425 -0.3459 -0.0996 -0.1014
15853W        W30984  13.773   4.279  14.373 -0.1437  0.0699  0.0146
15854W        W30985   1.123   9.109   0.524  0.3199 -0.2612  0.1638
15855W        W30986  16.860  11.301   2.913  0.0100 -0.2493 -0.0098
15856W        W30987  11.662   4.078   4.593 -0.0085  0.0991 -0.1087
15857W        W30988  14.456  10.111  15.298  0.1747 -0.0344  0.1778
15858W        W30989  16.137  17.806   1.123 -0.1603 -0.1287 -0.2823
15859W        W30990  12.919   7.720  15.700 -0.2797 -0.0882 -0.0757
15860W        W30991  10.344  10.934   0.661  0.2055 -0.1334  0.2112
15861W        W30992  15.361   0.013   1.936  0.0651  0.0380 -0.1661
15862W        W30993  18.105   6.753  15.879  0.1951  0.0383 -0.0314
15863W        W30994  13.365   1.984  14.205  0.0549  0.0478  0.0843
15864W        W30995   2.608  15.005   2.264  0.1374 -0.0085 -0.1097
15865W        W30996   0.903  11.635   5.335  0.0529 -0.1377  0.0414
15866W        W30997  12.772  15.110  10.343  0.2381 -0.1116 -0.2081
15867W        W30998  10.935  12.336  15.435  0.1287  0.0292  0.0686
15868W        W30999  17.305   6.528  14.203  0.0207  0.2098 -0.2467
15869W        W31000   1.108   3.467  14.408 -0.1854  0.1531  0.1307
15870W        W31001  12.241  12.194  10.865 -0.3017 -0.0311 -0.0336
15871W        W31002  10.669  15.133  12.410  0.1405  0.2287 -0.0218
15872W        W31003   1.048   2.413   0.941 -0.1913 -0.3135 -0.0976
15873W        W31004   8.883   2.892  14.729 -0.0808  0.1703 -0.1166
15874W        W31005   7.756  12.935  11.183  0.0572 -0.0364  0.0797
15875W        W31006  12.487  11.414   0.564 -0.1349 -0.0290  0.2684
15876W        W31007  10.670  16.361  10.734 -0.2847 -0.0764 -0.1289
15877W        W31008   0.213   5.008  11.289 -0.0291 -0.0805  0.0859
15878W        W31009   7.608  16.834   0.003  0.1087  0.2262  0.0288
15879W        W31010  17.170   7.415  11.778 -0.1390 -0.4365 -0.2349
15880W        W31011  13.531   5.536   2.867 -0.0880 -0.1381 -0.2959
15881W        W31012   9.360   8.067  13.819 -0.0806  0.2583  0.3631
15882W        W31013   0.839  18.083   5.252  0.2178 -0.0624 -0.0554
15883W        W31014   9.512  17.541   1.703 -0.4138 -0.0804 -0.1907
15884W        W31015   9.756   1.285  13.795  0.0518 -0.2112 -0.3446
15885W        W31016   0.957  17.717   4.891  0.0876  0.0987  0.1251
15886W        W31017   0.175   2.461   2.664 -0.0917  0.0010 -0.0172
15887W        W31018   1.172   8.660   6.203  0.1791  0.0328  0.0184
15888W        W31019  12.381   1.774  14.651  0.2908  0.0807 -0.0842
15889W        W31020  16.937  15.206  13.262 -0.1530  0.1436  0.1236
15890W        W31021   5.117  17.604  11.576 -0.0601 -0.1001  0.0731
15891W        W31022   3.744   9.803  12.862  0.1109 -0.1762  0.0205
15892W        W31023   3.825   3.852   5.583  0.2299  0.0285  0.0338
15893W        W31024  15.978   7.413  15.594  0.1578  0.0540  0.1159
15894W        W31025   9.933  10.608   1.265 -0.1110  0.0690 -0.1500
15895W        W31026   7.165   0.919   5.822 -0.0232  0.0719  0.1104
15896W        W31027  15.674  11.329  15.461  0.1018 -0.0439  0.1457
15897W        W31028   2.938   3.790   1.035  0.1565  0.3931  0.1507
15898W        W31029  11.598   7.047   0.999  0.2456  0.0350  0.0479
15899W        W31030  18.120  11.552  13.079  0.1219 -0.1213  0.2720
15900W        W31031   3.431   5.000   3.693 -0.1870  0.0445 -0.1222
15901W        W31032  10.709  12.060  15.857  0.1210 -0.1276  0.0536
15902W        W31033   6.618   8.270   4.819  0.2027 -0.0522 -0.0259
15903W        W31034  17.801   2.409   4.274 -0.1526  0.2753  0.2122
15904W        W31035   6.211   8.687  12.583  0.3912 -0.1668  0.4309
15905W        W31036  15.172   3.672  14.668  0.1186 -0.1260  0.4017
15906W        W31037  17.715  11.829  11.602  0.0448  0.2325 -0.0422
15907W        W31038  12.227  12.720  10.801 -0.3149 -0.1996 -0.0899
15908W        W31039  15.068   5.210  14.856  0.1059 -0.2196 -0.1129
15909W        W31040   5.719  13.072   2.102 -0.1731  0.1007  0.1206
15910W        W31041  14.966   6.274   1.558  0.2546 -0.0491  0.0723
15911W        W31042  15.045   9.672  14.189  0.1109  0.3244  0.2037
15912W        W31043   7.750  13.764   1.987  0.1343  0.0140 -0.1834
15913W        W31044   8.958  13.452   3.688 -0.2526 -0.0072  0.3139
15914W        W31045   7.479   6.763   6.112  0.0932 -0.3081 -0.0894
15915W        W31046   6.105   9.662  12.945 -0.1464  0.1948 -0.0887
15916W        W31047   8.729  13.564  15.895 -0.0675  0.0133 -0.1080
15917W        W31048  14.719  17.156   0.208 -0.2296  0.2323 -0.2094
15918W        W31049   9.772   4.822  11.938 -0.0207  0.2590 -0.0169
15919W        W31050   1.108  13.286  13.762 -0.0676 -0.2733 -0.0486
15920W        W31051  16.488   4.948   5.134 -0.2824  0.1272  0.2388
15921W        W31052   9.535   9.155  12.557 -0.1706 -0.0545  0.0247
15922W        W31053   9.481   2.377  11.791 -0.6697 -0.0397  0.0549
15923W        W31054   8.138   9.429  12.413  0.1315  0.0707 -0.2683
15924W        W31055  12.340  11.653   5.412 -0.0575 -0.1057  0.1262
15925W        W31056   0.980   3.709   5.367  0.4358  0.1243 -0.1078
15926W        W31057  13.942   8.131   0.039  0.1517 -0.0111  0.0770
15927W        W31058   2.214  13.742   2.531 -0.1892  0.0301 -0.0424
15928W        W31059   4.655   9.641   0.383  0.4015 -0.0512 -0.0436
15929W        W31060   9.964   3.464   2.943  0.1099  0.0622 -0.0367
15930W        W31061  13.414  18.220  16.035  0.0974  0.1542 -0.3119
15931W        W31062  17.485  10.420  14.364  0.1997  0.0263 -0.1916
15932W        W31063  16.997  13.808   3.330  0.0900  0.2756  0.0451
15933W        W31064  16.554   5.298   5.947  0.2383 -0.2720 -0.1043
15934W        W31065   9.039   6.798   2.787  0.0131 -0.2153 -0.0954
15935W        W31066   9.135  11.647  12.555 -0.1603 -0.0846 -0.3503
15936W        W31067   9.219   1.499  13.272 -0.1304  0.1820 -0.0035
15937W        W31068  15.705  11.717   2.836 -0.0583 -0.0418  0.1164
15938W        W31069   6.007  11.879   1.128 -0.0459  0.1606  0.1611
15939W        W31070  10.848   4.498  12.588 -0.0654 -0.0532  0.0985
15940W        W31071  15.835  16.000   4.135  0.3060 -0.2669  0.2669
15941W        W31072  10.113  12.228  15.999 -0.1227  0.3845 -0.0792
15942W        W31073   7.888  11.583  14.615  0.1815 -0.2216  0.1288
15943W        W31074  17.472  16.729  14.764 -0.1233 -0.0225 -0.1300
15944W        W31075  14.966  17.362   4.025 -0.0790  0.0975  0.1052
15945W        W31076   5.988  12.371   0.842 -0.0848  0.1155 -0.1720
15946W        W31077  11.063  15.455   1.298  0.2217  0.3940  0.0732
15947W        W31078   9.983   3.563   2.030  0.0553 -0.2736  0.0481
15948W        W31079  18.311   2.389   0.946  0.0130  0.2933  0.0481
15949W        W31080  17.031  17.716  14.438  0.0790  0.1427  0.3380
15950W        W31081   0.222   1.798  13.174 -0.2074  0.2173 -0.1026
15951W        W31082   6.893  18.218   3.062 -0.4091  0.2427 -0.2608
15952W        W31083   1.033  14.237   6.227  0.1121  0.0304 -0.0465
15953W        W31084  13.907  10.503   4.764  0.1307  0.0306 -0.1989
15954W        W31085  13.151   9.178  15.121 -0.0992  0.2485  0.1253
15955W        W31086  10.509   9.927   2.635 -0.0669  0.3374  0.0508
15956W        W31087   9.368   4.827  10.002  0.0020 -0.0425  0.0778
15957W        W31088   5.656   0.573  10.980  0.0065  0.2649  0.1393
15958W        W31089   0.954   7.196   5.169  0.0744  0.1843  0.0232
15959W        W31090  15.791  12.521   9.900  0.0807 -0.0471  0.3358
15960W        W31091  14.739   4.244   3.820 -0.1091 -0.2197  0.0248
15961W        W31092   6.357   4.090   4.380  0.0820  0.2151 -0.0662
15962W        W31093   3.332  17.416  12.782  0.0157  0.3304 -0.1321
15963W        W31094   5.370   8.897   1.692  0.0921 -0.0612 -0.2595
15964W        W31095   8.470  10.095   1.698  0.0283 -0.1465  0.2227
15965W        W31096  16.965  12.121  11.842  0.0056 -0.0656  0.0894
15966W        W31097  17.281   9.386   4.540  0.0162  0.1837  0.1254
15967W        W31098   5.119  17.799   4.664  0.0571 -0.0893  0.0329
15968W        W31099   8.382  16.589   0.899 -0.0579 -0.1792 -0.3887
15969W        W31100   5.703  11.424   3.272  0.1097  0.1254  0.2561
15970W        W31101  14.422   0.012   0.706 -0.0485  0.1680  0.1528
15971W        W31102   6.843   1.601   1.802 -0.2167  0.0784  0.1292
15972W        W31103   1.990  10.005  14.031 -0.1466 -0.0261  0.1366
15973W        W31104  16.926   0.802  12.444 -0.0412  0.3325 -0.0289
15974W        W31105  13.856  12.266   5.189 -0.1277 -0.2007 -0.0679
15975W        W31106  14.095   9.739   4.255 -0.1032  0.3274  0.2122
15976W        W31107  12.618  14.802   2.713 -0.0005 -0.2795 -0.2246
15977W        W31108   6.031   9.632   2.871  0.0669  0.1655  0.0907
15978W        W31109   4.355  16.013  11.649 -0.1592  0.0457 -0.4044
15979W        W31110  17.016  11.237  15.104 -0.0804  0.2278 -0.0322
15980W        W31111   6.010  17.316  15.637  0.0712 -0.3312  0.2056
15981W        W31112   8.344  15.921  11.921  0.1843 -0.1792  0.1049
15982W        W31113   4.723   8.945  16.038  0.2619 -0.0573 -0.2599
15983W        W31114  14.146  10.668  13.238  0.2122 -0.2344 -0.1202
15984W        W31115  10.679  15.275  15.854  0.0061  0.2576  0.4866
15985W        W31116   7.956  10.780  15.064 -0.4985  0.0445  0.1355
15986W        W31117   9.545  13.754  15.314 -0.2019  0.4235  0.2332
15987W        W31118   6.624   1.490   3.281  0.1425  0.0306 -0.2165
15988W        W31119   2.375  12.939  11.473 -0.1753  0.1006  0.1627
15989W        W31120   7.163   7.870   1.621 -0.2066  0.1903 -0.0153
15990W        W31121  18.052  12.617  14.665  0.2937 -0.1874  0.1605
15991W        W31122  17.940   0.044   0.095 -0.1997  0.2399  0.1377
15992W        W31123  15.912  11.113   3.674  0.0881  0.0916 -0.1121
15993W        W31124   5.638  16.150  10.561 -0.2644  0.2049  0.0568
15994W        W31125  17.665  14.321   5.303 -0.1003 -0.0092 -0.1665
15995W        W31126  10.154  10.121   2.374  0.0909 -0.0926 -0.1530
15996W        W31127   0.736   5.898   5.089  0.0854 -0.1708 -0.1398
15997W        W31128   6.992  15.568  16.080 -0.0627  0.1163 -0.1827
15998W        W31129   8.080   4.371  13.665 -0.0282  0.0387 -0.2864
15999W        W31130  13.906   7.243   2.423 -0.3810  0.0806 -0.0194
16000W        W31131   0.183   5.431  15.501 -0.1595 -0.2809 -0.0305
16001W        W31132   4.072  16.593   3.167  0.4694 -0.0251 -0.2191
16002W        W31133   0.206  17.804  13.758  0.4243  0.1940 -0.0326
16003W        W31134  15.135   5.616  12.788 -0.2260  0.2151  0.2719
16004W        W31135  16.208   6.294  11.056  0.1748  0.2719  0.0095
16005W        W31136   2.990   5.646  11.951  0.0263 -0.1186  0.2131
16006W        W31137   2.052   8.195   4.076 -0.1735  0.3319 -0.0963
16007W        W31138   7.528  13.608   2.494  0.0063 -0.0642  0.0049
16008W        W31139  10.477  10.188  13.484 -0.0603 -0.0716 -0.1324
16009W        W31140   0.257   0.064   1.953  0.1960  0.0530  0.2021
16010W        W31141  16.414   4.319   4.934  0.2711  0.0243 -0.0607
16011W        W31142   9.055  14.658   2.257  0.3069 -0.0439  0.2552
16012W        W31143   1.268   8.956   5.553 -0.0665  0.0030 -0.1499
16013W        W31144   9.265   8.556   1.263 -0.0686 -0.1659 -0.0784
16014W        W31145  16.708   2.223   1.252  0.0792  0.3531  0.3633
16015W        W31146  10.303  16.757  13.137  0.0124  0.3519 -0.1138
16016W        W31147  12.404  10.976  12.824 -0.3775  0.2638  0.2830
16017W        W31148  10.854  11.969   3.891 -0.0838 -0.1860  0.1057
16018W        W31149   4.343   9.422  13.262  0.0784 -0.1315 -0.0197
16019W        W31150  18.079  11.958  15.317  0.1397  0.2012 -0.5112
16020W        W31151  17.894  18.074   0.816 -0.0784 -0.2848  0.0629
16021W        W31152   2.340   1.183  11.371 -0.0270 -0.0454  0.1217
16022W        W31153  18.024   3.878   3.403  0.0318 -0.3204 -0.2663
16023W        W31154   0.561   7.102  14.887 -0.1649 -0.1303  0.3622
16024W        W31155   0.111   4.624  14.741 -0.1500 -0.2621 -0.3310
16025W        W31156  15.434   4.749  12.556 -0.4710  0.0189  0.1717
16026W        W31157   7.760   8.193   1.634 -0.1244 -0.0489  0.0358
16027W        W31158   0.566   2.622   2.383  0.0744  0.1071  0.0307
16028W        W31159   9.491   0.231  15.504 -0.0146  0.0919 -0.0176
16029W        W31160  17.122   5.243  14.559  0.0025 -0.1195 -0.0054
16030W        W31161   6.139  14.465  15.246  0.0129 -0.1391 -0.1125
16031W        W31162  14.559   2.206   5.158  0.0711  0.1419 -0.0810
16032W        W31163  15.527  12.959   1.998  0.0861  0.1356 -0.3579
16033W        W31164   5.832  10.432   0.883 -0.0080  0.1882 -0.0229
16034W        W31165   5.744  13.897   0.330  0.2126 -0.0336 -0.2051
16035W        W31166   3.101   6.184  10.271 -0.1561 -0.0801  0.0978
16036W        W31167  13.232   4.657  14.220  0.2273  0.2625 -0.1527
16037W        W31168  14.060   6.598   1.680 -0.0451 -0.0326 -0.0162
16038W        W31169  14.668  15.603  11.587  0.1163 -0.1499  0.2844
16039W        W31170  17.894  13.309   5.377  0.1461  0.0487 -0.1489
16040W        W31171  11.844   5.220   5.038  0.1506  0.0092  0.1002
16041W        W31172   5.568  17.879  11.744  0.0334  0.3937 -0.1609
16042W        W31173   9.031  12.391  11.936 -0.1529  0.1231 -0.2286
16043W        W31174   7.399   0.286  13.620 -0.0962 -0.0136 -0.1633
16044W        W31175  11.301   9.949   0.240 -0.1206  0.1105 -0.0111
16045W        W31176  13.246  14.689  15.834  0.1234 -0.1119 -0.0060
16046W        W31177   4.124   3.964  11.224  0.3829  0.0009  0.2013
16047W        W31178   8.239   4.208  13.133  0.1450 -0.1666  0.0862
16048W        W31179  16.257   2.065  13.893 -0.1098 -0.2945 -0.0753
16049W        W31180   1.301   5.095   3.420 -0.0299  0.0026 -0.1033
16050W        W31181   4.267   0.310   2.342 -0.1589 -0.2064  0.3798
16051W        W31182  15.814   2.394   1.554  0.0272 -0.3445 -0.1696
16052W        W31183  12.526  16.972   9.970  0.3109  0.0552  0.1466
16053W        W31184  11.985  15.317   3.998  0.2599  0.0767 -0.1344
16054W        W31185   0.372   2.806   1.097  0.0040 -0.0652  0.1769
16055W        W31186  16.707   4.742   4.708 -0.0183  0.0128 -0.0145
16056W        W31187   3.344  10.618  12.375 -0.1579  0.0231 -0.0609
16057W        W31188  12.772  17.681   2.883  0.7161 -0.0858  0.1933
16058W        W31189   8.547  16.162  10.552 -0.3269 -0.1457 -0.0384
16059W        W31190  13.265   5.177   0.520 -0.3051  0.1495  0.0703
16060W        W31191  14.223  17.506  14.099  0.0369 -0.2638  0.1301
16061W        W31192  16.781  14.164   5.366  0.2165  0.0530 -0.3041
16062W        W31193   9.954   3.292  12.935 -0.0588 -0.2485  0.4472
16063W        W31194   4.985   5.717   0.644 -0.1391 -0.1738 -0.0469
16064W        W31195   5.813   5.236   2.075 -0.1762 -0.2091 -0.2868
16065W        W31196  11.627   3.508   0.013  0.2029  0.0374  0.1006
16066W        W31197   4.888   5.450  10.013  0.1024 -0.0733 -0.3730
16067W        W31198  14.391  13.983  10.921  0.0788 -0.1851  0.1021
16068W        W31199  12.087   1.073   0.976 -0.1914  0.1349  0.1990
16069W        W31200  11.063  12.149   5.439  0.1070  0.0049  0.1565
16070W        W31201   1.291  10.955   0.700  0.1967 -0.0837 -0.5025
16071W        W31202   8.540   1.546   1.612 -0.1096 -0.0483 -0.4079
16072W        W31203  13.083   9.712   0.023 -0.1970 -0.1068 -0.2058
16073W        W31204   1.346   0.809  13.524  0.1016 -0.0542  0.0198
16074W        W31205  12.131   1.758   2.286 -0.5674  0.2801  0.2775
16075W        W31206  12.345   1.287   5.733  0.2543 -0.3345 -0.2961
16076W        W31207   0.974   5.220  10.246 -0.2368  0.1454  0.2298
16077W        W31208   8.497  15.906   9.938  0.1815 -0.0599  0.2006
16078W        W31209  11.291   2.907   3.476  0.0479 -0.1064 -0.0353
16079W        W31210   7.257  12.905   5.897  0.1542  0.1223 -0.0404
16080W        W31211  12.783   4.448  14.488 -0.2367 -0.0218 -0.1207
16081W        W31212   3.794   6.174  11.839 -0.1238 -0.0822  0.2345
16082W        W31213   1.309  14.636  14.795 -0.0201 -0.1704 -0.0101
16083W        W31214  18.226   1.061   4.240  0.2258 -0.2163  0.1693
16084W        W31215   5.304  16.425  14.944  0.0412 -0.0260  0.1078
16085W        W31216   0.790   7.852   4.515  0.0818 -0.0910 -0.0301
16086W        W31217   9.161   7.107  13.447  0.0023 -0.3547  0.0976
16087W        W31218  16.214  14.605  10.426 -0.1816  0.2392 -0.1373
16088W        W31219   0.596  11.244  13.267 -0.1407  0.1164  0.0607
16089W        W31220  11.514  10.810   3.045 -0.0711 -0.2288 -0.2579
16090W        W31221  10.813   8.419   1.135  0.0984 -0.2825  0.1584
16091W        W31222   0.125   8.190  13.126  0.1071  0.0134 -0.2460
16092W        W31223   0.520  18.011  12.989 -0.2975  0.0663  0.0060
16093W        W31224   7.035   5.267  14.480 -0.1216 -0.2338  0.1620
16094W        W31225   8.141  15.173  11.610 -0.1088 -0.4180 -0.0908
16095W        W31226  14.256   6.213   0.550 -0.0696  0.0536 -0.0693
16096W        W31227   1.278  13.533   4.991 -0.2950  0.0525 -0.0046
16097W        W31228  15.454   1.475   3.484  0.0415 -0.0847  0.2181
16098W        W31229   6.358   1.978   5.743 -0.2043 -0.2293 -0.1823
16099W        W31230  14.841   4.641  12.291 -0.0568 -0.2809  0.2019
16100W        W31231   8.067   6.511   1.782 -0.2388  0.3230 -0.2674
16101W        W31232   1.799   6.376   0.975  0.1650 -0.2305 -0.1774
16102W        W31233  12.856   1.478   2.701  0.0533 -0.1075  0.0493
16103W        W31234   0.224   6.541  15.200 -0.0314  0.1864 -0.0445
16104W        W31235   7.409   4.123  12.856  0.0624 -0.0789  0.0971
16105W        W31236   8.667  17.996   2.165 -0.1184  0.1154  0.3667
16106W        W31237  15.107   0.147   4.165 -0.2030  0.2670  0.2114
16107W        W31238   8.472   5.191   4.234 -0.3500  0.0680 -0.0770
16108W        W31239  14.931  17.857  14.054 -0.0825  0.1308 -0.0388
16109W        W31240   5.311   6.255  15.201 -0.1841 -0.2254 -0.1488
16110W        W31241   6.418  11.781  11.798 -0.1222 -0.2446  0.0386
16111W        W31242   0.876   2.331  12.461 -0.0640  0.0238  0.0186
16112W        W31243  13.660  10.469   1.876 -0.1161  0.0787  0.0516
16113W        W31244  10.683   7.008  14.963 -0.2258 -0.0120 -0.2235
16114W        W31245   4.398   3.602  13.079 -0.0469 -0.2861  0.1361
16115W        W31246  17.482   7.471  13.061  0.0798 -0.3579 -0.2196
16116W        W31247   3.969  13.995   3.566  0.1554 -0.2866  0.1224
16117W        W31248  11.907  13.541  15.933  0.0227 -0.1644 -0.0338
16118W        W31249  13.459   7.357   1.155  0.1149 -0.2000 -0.1780
16119W        W31250   4.896   6.247   2.945  0.3611 -0.0827 -0.1845
16120W        W31251  12.094   6.843   3.118  0.4670 -0.2621  0.1755
16121W        W31252  16.761   0.952   0.369  0.0755  0.0151  0.0716
16122W        W31253   4.267  13.298  15.450 -0.2559  0.0946 -0.0990
16123W        W31254   0.227   7.922   3.648 -0.0080  0.1593 -0.0064
16124W        W31255   8.780  11.391   0.345  0.1077  0.5803 -0.0584
16125W        W31256  14.872  11.630   4.837  0.0511 -0.0082  0.0544
16126W        W31257  17.353  11.228   2.068 -0.3439 -0.0425 -0.2386
16127W        W31258   4.874  13.947  13.625  0.1819 -0.2742  0.1678
16128W        W31259   8.581   6.666   1.129 -0.0409 -0.1990 -0.0518
16129W        W31260  15.091   3.361  13.727  0.2173  0.1909 -0.2612
16130W        W31261  18.075  18.303   6.397 -0.0500  0.1829  0.1015
16131W        W31262  12.050   1.619   0.743  0.3555  0.0696  0.1984
16132W        W31263   4.822   3.477   1.246 -0.4005  0.0194 -0.1402
16133W        W31264   7.032   0.513  15.796  0.1751  0.0486 -0.5776
16134W        W31265  12.204  15.039   4.637  0.1393 -0.2116  0.2806
16135W        W31266  14.690   6.403   5.406 -0.1723  0.0355 -0.0364
16136W        W31267   5.621   6.842   1.828  0.1044 -0.0107 -0.2081
16137W        W31268  14.597   6.324  15.735 -0.1238  0.1220  0.2619
16138W        W31269   7.196   9.459   3.176 -0.2483 -0.1745  0.1476
16139W        W31270   8.555  11.195  14.245  0.0438 -0.0250 -0.2775
16140W        W31271   1.070  15.162   3.656  0.3799  0.1545 -0.0812
16141W        W31272   7.284   3.581   2.533  0.0256  0.2586  0.0866
16142W        W31273   7.038  12.821  12.983  0.0606  0.2027 -0.0672
16143W        W31274  10.193   7.196   3.857  0.1116  0.0897  0.0012
16144W        W31275  12.311  17.486   4.282 -0.1893  0.0356 -0.0437
16145W        W31276  14.857  10.643  12.233  0.1213 -0.1599 -0.0808
16146W        W31277   0.556   8.514  15.100  0.0646 -0.4482  0.3534
16147W        W31278  17.346   7.725   2.359  0.4266  0.0609 -0.1171
16148W        W31279  16.704   6.107  10.796  0.2075  0.1126 -0.1304
16149W        W31280   7.526  11.306   4.494  0.1143  0.2135 -0.0779
16150W        W31281  12.783  16.406  10.516 -0.4732 -0.0216 -0.1798
16151W        W31282  10.720  11.909   5.721  0.1079  0.1077  0.2569
16152W        W31283   0.175   8.686   0.609  0.0468 -0.1045 -0.0545
16153W        W31284   2.322  14.646   5.036  0.0588 -0.0151 -0.1891
16154W        W31285   3.099  15.893  16.101 -0.1030  0.1231 -0.0405
16155W        W31286  17.648   2.038  14.986  0.3144  0.4452  0.2132
16156W        W31287  14.645   3.028   0.221  0.1546 -0.3693 -0.1918
16157W        W31288   7.215  16.550  14.396  0.1326 -0.2659 -0.1650
16158W        W31289   6.890   5.544   0.820 -0.4498  0.0379  0.0202
16159W        W31290  14.151  17.334   4.990  0.0541 -0.1970 -0.1538
16160W        W31291   4.809   3.333   4.839 -0.1347 -0.1761 -0.1276
16161W        W31292  17.070  10.171  14.698 -0.1289 -0.3547  0.2492
16162W        W31293   2.085  12.645  10.968 -0.1608  0.1675  0.0108
16163W        W31294   6.483  17.234  14.915 -0.2499 -0.0729  0.2844
16164W        W31295   4.280   0.864   0.131 -0.2171  0.1261 -0.3045
16165W        W31296   5.299  12.317   3.337 -0.3374 -0.1932 -0.1424
16166W        W31297   7.938  10.323  14.365  0.2771  0.1019 -0.0506
16167W        W31298   3.623   4.928   2.076 -0.1887 -0.0761 -0.0885
16168W        W31299   8.373  17.572  16.003  0.0519 -0.0027 -0.2927
16169W        W31300   9.595  14.573   4.371  0.0837 -0.3114 -0.2083
16170W        W31301  15.404   2.240   2.308 -0.2153 -0.0462  0.1677
16171W        W31302  13.981   3.998  10.560  0.0057  0.1903 -0.0086
16172W        W31303   0.356   8.701   3.434  0.2282 -0.0806 -0.0121
16173W        W31304   8.765  16.431  15.320  0.0089  0.2066 -0.3905
16174W        W31305   5.853   5.267   9.590  0.0817 -0.2389 -0.0652
16175W        W31306   2.870   0.008   2.058  0.1575  0.1760  0.2140
16176W        W31307  17.700  15.545  11.974  0.1466  0.0715 -0.0010
16177W        W31308   0.170  12.979  12.620  0.0790 -0.1920  0.3272
16178W        W31309  13.579  17.639  15.243 -0.5574  0.2113 -0.2467
16179W        W31310  13.304   0.336   3.875  0.0412  0.0917  0.1457
16180W        W31311   6.871  11.449  12.709  0.2785  0.0291 -0.4049
16181W        W31312  14.568  12.442   1.576 -0.0959 -0.0044 -0.2036
16182W        W31313  13.540  14.091  11.436  0.1267 -0.0488  0.0644
16183W        W31314   1.799  14.953  12.881 -0.0527 -0.1472  0.4209
16184W        W31315  10.533   3.504  14.759  0.0275 -0.1620 -0.2863
16185W        W31316  10.956  11.093  10.781 -0.1157 -0.1784  0.1057
16186W        W31317   9.187   9.256   1.965  0.2119  0.0220  0.0443
16187W        W31318  12.042   6.720   5.144 -0.3123 -0.1262  0.0375
16188W        W31319   8.956  11.921   2.649 -0.0571 -0.3811  0.0449
16189W        W31320   4.085   3.449  12.710  0.0586 -0.0670 -0.1064
16190W        W31321   0.624   1.570   3.103  0.0009 -0.2087  0.0668
16191W        W31322  11.675   1.378   0.919  0.1776  0.0001 -0.5147
16192W        W31323  16.508  15.448  14.704 -0.0086 -0.0381  0.0665
16193W        W31324  18.197  11.487  15.176 -0.0074  0.1316 -0.0494
16194W        W31325  13.478   1.988   2.201 -0.0560  0.0440 -0.0616
16195W        W31326   9.673  15.851   5.005 -0.1257  0.0011  0.2139
16196W        W31327   8.807  17.850   1.117 -0.2299 -0.0233  0.2726
16197W        W31328   1.554  13.945   3.030 -0.0263 -0.0216  0.0752
16198W        W31329   1.425   7.429   1.923  0.0018  0.0802 -0.6020
16199W        W31330   3.769   9.500   5.560 -0.0561 -0.3101  0.3565
16200W        W31331   5.385   0.166  11.308  0.0939  0.2516  0.1026
16201W        W31332  13.859  15.323   3.925  0.0706  0.1092 -0.0065
16202W        W31333  18.173  12.969   3.779 -0.2398 -0.1465 -0.2032
16203W        W31334   0.180   5.856   3.796 -0.1921  0.1416  0.0923
16204W        W31335   6.272   4.985   4.730 -0.0015  0.1501  0.0278
16205W        W31336  12.062  14.272   0.413  0.2862  0.3058 -0.0722
16206W        W31337   9.894   2.138   3.207 -0.2282  0.1250  0.0503
16207W        W31338  14.526   5.390   2.625 -0.3073 -0.0508 -0.1173
16208W        W31339   2.087   1.778   3.274  0.1447  0.1897  0.0166
16209W        W31340   3.971   9.081   4.775 -0.1450 -0.1244 -0.1278
16210W        W31341   0.032  18.087   4.929  0.1073 -0.1072  0.1387
16211W        W31342  13.819   6.650  12.313 -0.0088 -0.2047  0.1159
16212W        W31343   5.383  16.311   2.491  0.0137  0.3536  0.0243
16213W        W31344  13.701   5.556  13.270 -0.0131 -0.0242 -0.1135
16214W        W31345  14.165   5.513   2.200  0.4089 -0.0517  0.0462
16215W        W31346   1.446   5.972   0.667  0.0248  0.0665 -0.0597
16216W        W31347   7.986  11.796   1.759 -0.0915  0.2251 -0.5003
16217W        W31348  16.520   9.592   1.424  0.5197  0.0493 -0.2502
16218W        W31349  10.151   6.603  15.543 -0.0083 -0.0094 -0.2720
16219W        W31350   5.009   0.913   3.821 -0.0150 -0.0078  0.4006
16220W        W31351   2.082   5.826   2.598 -0.0265 -0.1899 -0.0331
16221W        W31352   2.070   8.648   3.792 -0.3996  0.2418  0.0857
16222W        W31353  16.349  12.664  15.236  0.4081  0.1369  0.4018
16223W        W31354   8.049   4.503  14.898  0.0421  0.4037 -0.0700
16224W        W31355  16.487  11.207  15.179 -0.0837 -0.3423  0.0650
16225W        W31356  11.984   0.263   0.314 -0.0282  0.1883  0.2919
16226W        W31357   6.786   9.989   3.962 -0.2385 -0.2041 -0.1696
16227W        W31358  12.310  10.628  10.990  0.0113 -0.3415  0.0113
16228W        W31359  12.990  10.820   1.058 -0.0755  0.1071 -0.0596
16229W        W31360  18.245  10.503   3.615 -0.2393  0.0239  0.3442
16230W        W31361  12.621  18.217   5.790  0.1437 -0.0137 -0.3592
16231W        W31362  13.585  13.663   3.601  0.1839 -0.1867  0.0149
16232W        W31363   7.006  17.743  11.984 -0.3589 -0.0572 -0.3292
16233W        W31364  12.356   8.988  12.823  0.1371 -0.0064 -0.1899
16234W        W31365   2.195   0.433   2.375 -0.0434  0.1091 -0.2180
16235W        W31366   2.825   9.509  14.364 -0.0098 -0.0434  0.0861
16236W        W31367   0.847   2.273  11.855  0.0027  0.3354  0.4045
16237W        W31368  16.349   1.611   2.569  0.0606  0.0430  0.2628
16238W        W31369  15.470   3.716   0.604 -0.0274 -0.2095 -0.0916
16239W        W31370   6.967  17.642  16.068  0.0526  0.1049 -0.1259
16240W        W31371  13.222   7.979   5.692 -0.1304  0.2149  0.1308
16241W        W31372   5.229  11.066   0.110 -0.0825  0.2776  0.0286
16242W        W31373   5.776   6.394   5.251 -0.4027 -0.1001 -0.1108
16243W        W31374  14.314  15.645  15.068  0.0675 -0.1950 -0.0080
16244W        W31375   7.838   9.750   3.547 -0.0908  0.2157 -0.0474
16245W        W31376   3.774   5.817   1.210  0.0934 -0.1398 -0.1370
16246W        W31377  13.532  13.233   3.431  0.1148  0.2911  0.1345
16247W        W31378  12.405   5.873   5.135  0.0775 -0.0454 -0.1314
16248W        W31379   2.612   6.467   4.095  0.0466 -0.1925 -0.0145
16249W        W31380  15.011   1.817  15.386  0.0299 -0.0304  0.1300
16250W        W31381   6.520   2.007  14.748 -0.0417  0.2056 -0.2451
16251W        W31382   9.107   2.491   4.912 -0.0607 -0.3100  0.2317
16252W        W31383   1.985  14.673   5.405  0.0154 -0.0321  0.1387
16253W        W31384  10.573   5.675   3.127  0.3790  0.0689  0.1050
16254W        W31385  17.193  12.906   3.405 -0.0807  0.1406 -0.1090
16255W        W31386   0.162   5.286   2.585 -0.2751  0.0680  0.1606
16256W        W31387  16.743   8.811  11.106  0.0093 -0.0037 -0.0980
16257W        W31388  11.703   3.653   9.613  0.1324  0.1798 -0.1293
16258W        W31389   3.847  10.098  11.257  0.1999 -0.0573  0.0194
16259W        W31390   1.429   6.331   3.736 -0.1313  0.0780 -0.1426
16260W        W31391  13.888   2.085   4.057 -0.0126 -0.0140 -0.1885
16261W        W31392  11.220   7.821   4.446 -0.0776  0.2547  0.1027
16262W        W31393  16.580  18.308  14.925  0.5130  0.0268 -0.0053
16263W        W31394  17.886   8.698   0.634 -0.0244 -0.0133 -0.3315
16264W        W31395  15.334   0.649  12.101  0.0977 -0.0749 -0.2111
16265W        W31396  12.135  16.404   1.034  0.0883 -0.2463  0.0324
16266W        W31397  17.190   1.217   2.615 -0.2711  0.3058  0.1067
16267W        W31398  18.109  14.818  11.747  0.0109 -0.0563  0.1243
16268W        W31399  11.117   6.533   1.411 -0.0812  0.0068  0.1647
16269W        W31400   0.154  18.296   0.112  0.4530 -0.0275 -0.2160
16270W        W31401   7.434   1.299   4.962 -0.0966  0.1240 -0.2254
16271W        W31402   4.547   0.773   5.735 -0.0058 -0.0597  0.0291
16272W        W31403   3.452  10.923   0.083 -0.0729  0.1462  0.1775
16273W        W31404   3.375   7.125  14.034  0.1697  0.1149 -0.2397
16274W        W31405   2.204  10.453   2.782 -0.1515 -0.1712 -0.2217
16275W        W31406  11.607   6.797  15.293  0.2750  0.0354 -0.2055
16276W        W31407   4.966  13.953   5.135 -0.3600 -0.2783  0.1460
16277W        W31408   2.341   5.298  11.492 -0.0059  0.0429 -0.3068
16278W        W31409   8.295  17.508  14.999 -0.0408 -0.0542 -0.1148
16279W        W31410   9.120  12.539  13.801  0.3588  0.1081  0.2338
16280W        W31411  10.214   0.445  12.970 -0.0390  0.0009 -0.1480
16281W        W31412  14.444   4.455   0.786  0.0133  0.0531 -0.1950
16282W        W31413  14.222   8.699   3.160 -0.0668 -0.1837 -0.0148
16283W        W31414  17.552  15.623  11.519  0.0051 -0.0185 -0.1602
16284W        W31415  14.048  11.729  14.296  0.1691  0.1595 -0.0967
16285W        W31416   3.512  14.508   2.373  0.0075  0.2465  0.1399
16286W        W31417  14.171   4.878  15.536 -0.1950  0.3574  0.1511
16287W        W31418  12.131   1.982  11.777  0.0728  0.0022 -0.0791
16288W        W31419   3.923   7.436   3.876 -0.2029 -0.0741  0.2676
16289W        W31420  15.813  16.550   1.266  0.0445 -0.1057  0.2542
16290W        W31421  11.383  10.764   3.957 -0.0024  0.2054  0.1605
16291W        W31422   0.734   2.287   0.517  0.1113 -0.3868  0.1826
16292W        W31423   3.818  15.840  11.573 -0.0341  0.0129  0.1748
16293W        W31424  15.914  17.519  12.020  0.0512 -0.0747  0.0775
16294W        W31425  16.374   8.610  11.972  0.2360 -0.1623  0.2027
16295W        W31426  12.141   2.608   2.361  0.3702 -0.0053 -0.2109
16296W        W31427  11.234   5.311  11.247 -0.0281 -0.0429 -0.0925
16297W        W31428  13.815   3.612   2.531 -0.0029  0.0285  0.1387
16298W        W31429   1.897  14.945   1.242  0.2864  0.0650 -0.1283
16299W        W31430   6.088   4.997   2.988  0.2043  0.0955 -0.1888
16300W        W31431   2.014  16.943  16.091  0.0510 -0.0791  0.1552
16301W        W31432   2.641  12.507  14.181  0.1372 -0.1246  0.0131
16302W        W31433  16.128  13.619   4.920  0.0734  0.0808 -0.0452
16303W        W31434   9.587  14.707  13.731  0.1877  0.0375 -0.0760
16304W        W31435  10.041  14.094   0.028  0.1747 -0.0175 -0.2996
16305W        W31436   8.148   5.866   3.613  0.0285  0.0716  0.2196
16306W        W31437   0.008  17.736   4.450 -0.0310  0.1397  0.1385
16307W        W31438  10.929  13.133  13.118  0.1638  0.0188 -0.2333
16308W        W31439  13.911   1.242  15.283 -0.0088 -0.2084 -0.0530
16309W        W31440   3.257   6.276  14.876 -0.0750 -0.0297 -0.2398
16310W        W31441  14.534   3.169  12.141 -0.2481 -0.1022 -0.0972
16311W        W31442   9.112   3.055   4.007 -0.1044 -0.0186 -0.0213
16312W        W31443  11.236   8.953   3.461 -0.0522  0.1327 -0.1011
16313W        W31444   8.980   6.272   5.163  0.3521  0.0016  0.0244
16314W        W31445  10.529  13.077   3.235 -0.0202  0.5091 -0.0497
16315W        W31446   4.685   7.495  14.946 -0.2204 -0.0059  0.0650
16316W        W31447   0.414   8.061   2.237 -0.1201 -0.3208  0.0864
16317W        W31448   7.046  13.954   4.456  0.0855 -0.1768 -0.2282
16318W        W31449   7.239  15.436   5.693 -0.1713 -0.1365 -0.2152
16319W        W31450   4.646   7.796  11.689  0.1540 -0.0212  0.2649
16320W        W31451   7.140   2.170  13.335 -0.1331  0.0730 -0.0620
16321W        W31452   6.485   1.193   1.008  0.1637  0.0313 -0.0375
16322W        W31453   3.290   0.698  11.362 -0.1290 -0.0273  0.3241
16323W        W31454   6.998   8.225  10.979  0.6678 -0.2088 -0.0409
16324W        W31455   6.270  14.855  13.403  0.2895 -0.1265 -0.3257
16325W        W31456   9.051   7.087  12.188 -0.1004  0.0368 -0.1722
16326W        W31457   1.053  13.252  11.592 -0.2600  0.0979 -0.2154
16327W        W31458  10.005   6.492   3.203  0.0242 -0.0463  0.1462
16328W        W31459  11.087   4.486  11.420 -0.0135 -0.3809  0.0157
16329W        W31460   9.911  15.804  11.625  0.1089  0.0265  0.1195
16330W        W31461  14.375  17.008  13.851 -0.0779 -0.0762  0.0847
16331W        W31462  17.492   5.535   3.347 -0.0952 -0.0090  0.1681
16332W        W31463   8.071   0.137  12.472 -0.3190 -0.3045 -0.1556
16333W        W31464   1.875   8.429   0.282 -0.0432 -0.0633 -0.2863
16334W        W31465   6.003   9.158   5.659  0.0828 -0.1725  0.1864
16335W        W31466   7.290  17.347   4.117 -0.0191 -0.0791  0.0542
16336W        W31467  17.969  17.947  14.025  0.1591 -0.0097  0.1621
16337W        W31468   6.518  17.632  11.869  0.1247  0.1546  0.1864
16338W        W31469  17.030  15.019   4.132 -0.0583  0.0033 -0.1053
16339W        W31470   4.919   8.254  12.027 -0.2643 -0.0174  0.1010
16340W        W31471   6.551   7.285   5.634 -0.0441  0.0858  0.0659
16341W        W31472  14.573   7.003   4.169 -0.3759  0.1672 -0.2449
16342W        W31473   7.362   9.339  11.937  0.2364  0.1574 -0.1221
16343W        W31474   7.720   6.859  15.380  0.2347 -0.2064  0.1730
16344W        W31475  16.213   7.385   3.168  0.1719 -0.2830  0.1237
16345W        W31476  10.734  14.588   1.058  0.2565 -0.0175 -0.3081
16346W        W31477   6.707   5.393  15.167  0.0804  0.0928  0.2847
16347W        W31478   9.388  16.082  13.448  0.1399 -0.0900  0.0122
16348W        W31479   7.523   8.102  11.124 -0.1556 -0.2202 -0.3304
16349W        W31480   3.839   3.831   1.272  0.1004 -0.3653 -0.1094
16350W        W31481   9.444  13.628  10.925  0.0212 -0.1333 -0.0703
16351W        W31482   8.335  11.797   0.735 -0.1716  0.3023  0.1806
16352W        W31483   5.823  13.227  15.050 -0.1426 -0.1022  0.1772
16353W        W31484   4.200   5.884   1.437  0.0778 -0.4225  0.1586
16354W        W31485   1.516   2.889  11.741 -0.0078  0.2296 -0.0440
16355W        W31486   3.527   4.718   5.462  0.1018  0.0603  0.2794
16356W        W31487   5.804   3.763   3.788  0.2444 -0.1016 -0.3256
16357W        W31488   2.814   0.053   5.948  0.0522 -0.1008 -0.1517
16358W        W31489  11.260  16.528  13.512  0.0868 -0.0046 -0.2258
16359W        W31490  11.317  15.545  15.961  0.1969  0.3703 -0.1696
16360W        W31491  12.670  17.523   5.829  0.0406 -0.0543 -0.0580
16361W        W31492   2.486   2.609   2.006  0.1707  0.0213  0.4099
16362W        W31493   6.676  11.690   4.327 -0.0240  0.0206  0.0398
16363W        W31494  12.413   7.166  11.552  0.0762 -0.2025  0.2021
16364W        W31495   7.305   4.463  11.135  0.0778  0.0932  0.1536
16365W        W31496   3.825  18.218  14.030  0.0429  0.1721  0.1542
16366W        W31497   4.215  18.269   0.032 -0.1236  0.0567  0.1036
16367W        W31498  15.160   9.374   5.780 -0.2059 -0.0892  0.2594
16368W        W31499   7.984  15.325  14.757 -0.1924 -0.3124  0.0444
16369W        W31500  18.164  16.832  13.657 -0.2020 -0.1232  0.2686
16370W        W31501   7.632  16.487  13.448 -0.1831 -0.0715 -0.1996
16371W        W31502  14.788   9.087   3.861  0.6057  0.0672 -0.1045
16372W        W31503  13.716   9.556   0.346  0.0030 -0.1907  0.0499
16373W        W31504  17.789   0.581   3.257  0.1313 -0.2342 -0.1920
16374W        W31505   3.602   6.497  11.167 -0.0255  0.1035  0.2274
16375W        W31506   9.134  14.469  16.073  0.0052 -0.2616 -0.0880
16376W        W31507  13.591  17.404   3.987  0.0538 -0.0437  0.1807
16377W        W31508  15.091  12.295  10.822 -0.3552  0.2899 -0.2851
16378W        W31509  14.996   6.898   1.690  0.1116 -0.3202 -0.0662
16379W        W31510  10.514   4.910  14.711 -0.1086 -0.0582  0.1369
16380W        W31511   6.997   3.960   5.144  0.0364  0.5278  0.2636
16381W        W31512  12.605   0.530   4.192 -0.0708  0.0197  0.1804
16382W        W31513   4.733  10.011  10.260  0.2731  0.0741 -0.0581
16383W        W31514   1.640   6.005  13.562 -0.0318 -0.0893  0.1173
16384W        W31515   6.839   2.351   0.459 -0.1392  0.1411 -0.2699
16385W        W31516   8.934  12.412   1.890  0.0987 -0.0093 -0.4587
16386W        W31517  16.982  12.142  14.632  0.0202  0.2123  0.0311
16387W        W31518  10.327   2.256  15.631 -0.3592  0.1255  0.2239
16388W        W31519   4.853  10.604  15.536  0.1544 -0.2861 -0.1843
16389W        W31520  14.837   2.151   4.238  0.2323  0.2374 -0.0411
16390W        W31521   6.022   2.047   2.639 -0.2300 -0.1755  0.1535
16391W        W31522   4.993   7.729   0.036 -0.2225 -0.0273  0.2064
16392W        W31523  15.892   1.564  13.283 -0.1601  0.1413  0.3176
16393W        W31524  15.241   4.163   2.188 -0.2916 -0.1758 -0.0753
16394W        W31525   8.605   1.620  12.561 -0.1023 -0.1565 -0.1225
16395W        W31526   8.228  18.035  14.176 -0.1556 -0.0025  0.0285
16396W        W31527   8.714   2.016   1.541 -0.3713 -0.3086 -0.1073
16397W        W31528   2.800   4.483   0.172  0.0884  0.1451 -0.2165
16398W        W31529   8.662  16.412   3.089 -0.1779  0.1875  0.1102
16399W        W31530   2.772   8.641  13.278  0.0474 -0.2373  0.0982
16400W        W31531  13.126  14.193   2.356  0.2372  0.1235  0.4086
16401W        W31532  13.917   8.918   4.813  0.0946  0.1939 -0.0337
16402W        W31533  15.502   7.090   0.410  0.1629  0.2439  0.0228
16403W        W31534  14.088  13.079   1.831 -0.2692  0.0300  0.2520
16404W        W31535   2.584   0.879   2.305  0.0428  0.3667 -0.2636
16405W        W31536  11.869   0.779   3.310  0.3103  0.2839  0.1745
16406W        W31537   4.571  12.340   4.137 -0.0693  0.0382 -0.0237
16407W        W31538   8.072  12.255   1.570  0.1161 -0.0078 -0.2438
16408W        W31539  15.939  16.184  12.384 -0.3048  0.0588  0.0169
16409W        W31540  17.746  12.233  14.946  0.3089 -0.0464 -0.0052
16410W        W31541  18.231  16.779   4.337  0.3395 -0.4450  0.1955
16411W        W31542   3.340  12.385  11.021 -0.1622  0.4417  0.3042
16412W        W31543  10.303   8.602   1.398 -0.2016  0.0070 -0.0298
16413W        W31544  14.314   9.603  10.867 -0.0239 -0.0891 -0.0560
16414W        W31545  14.940  17.041  11.939 -0.1106  0.1684 -0.2404
16415W        W31546   1.431   9.615  13.211  0.2251 -0.0194  0.0301
16416W        W31547   3.837  13.222  15.228  0.2077 -0.0025 -0.0881
16417W        W31548  15.249   5.483  13.265 -0.1214 -0.1807 -0.2087
16418W        W31549   9.972  13.417  11.837  0.2004  0.0442  0.0802
16419W        W31550   8.812  18.145  11.809  0.3140 -0.0692 -0.1090
16420W        W31551   1.851   4.381   3.035  0.0839  0.0502  0.0378
16421W        W31552   6.733   3.601  12.582 -0.2070  0.2332 -0.1832
16422W        W31553   8.301  17.247  10.863 -0.0530  0.0275  0.3487
16423W        W31554   5.723   2.070   1.020 -0.0208 -0.0447  0.0249
16424W        W31555   3.396  15.381  15.384 -0.0437 -0.2027  0.1879
16425W        W31556   4.754  17.850   1.797 -0.0731 -0.1890 -0.0056
16426W        W31557   3.952   3.817   2.189 -0.3507 -0.3143 -0.3537
16427W        W31558   7.636  14.466   5.609 -0.1695  0.0117 -0.2643
16428W        W31559  12.627  10.222   1.806 -0.2100  0.0650 -0.1586
16429W        W31560   9.753  12.857   5.928 -0.1500  0.2424 -0.2391
16430W        W31561   2.369   5.488   2.310 -0.2630 -0.1577 -0.3103
16431W        W31562   1.342   5.692   5.671  0.1547 -0.1572  0.4356
16432W        W31563   3.500   9.857   4.894  0.3275  0.0150 -0.0168
16433W        W31564   5.190   8.691  13.009 -0.0839  0.4426  0.3039
16434W        W31565  18.255  11.743   1.458 -0.0525  0.5484 -0.0722
16435W        W31566   1.902   3.122   4.649  0.0346 -0.0786  0.2851
16436W        W31567  16.259   9.502   4.127 -0.0247 -0.0817 -0.1376
16437W        W31568   9.782   7.580  14.346  0.1798 -0.2957  0.0568
16438W        W31569   0.954  14.891   0.012 -0.0176  0.1546  0.1555
16439W        W31570   7.443   7.668  11.521  0.1516 -0.0401  0.0042
16440W        W31571   2.625  13.965  12.627  0.2172  0.0616 -0.1783
16441W        W31572  11.922  18.194   4.644  0.2167 -0.0826  0.0807
16442W        W31573   7.701  13.879  10.954  0.2568  0.1802  0.2081
16443W        W31574   5.154   3.544  10.654  0.1233  0.2019 -0.2571
16444W        W31575  11.849   4.722  14.226  0.0492  0.0027  0.1813
16445W        W31576   2.180  16.418   1.067 -0.1918  0.1862 -0.2077
16446W        W31577   3.519  15.364   3.973 -0.0799 -0.1682 -0.0476
16447W        W31578   5.056  18.256   2.795  0.2030 -0.0531  0.0683
16448W        W31579  13.118  17.047  11.826 -0.1841 -0.0046  0.3193
16449W        W31580  12.780   5.548  16.055  0.0401  0.0649  0.0544
16450W        W31581   8.152  11.994   4.486 -0.1910 -0.1536  0.2404
16451W        W31582  12.034   3.911  14.281  0.0836 -0.0383 -0.0553
16452W        W31583   3.404  18.168  13.161 -0.3618  0.0156 -0.1517
16453W        W31584   6.972   8.643   5.470 -0.1035  0.1578 -0.2194
16454W        W31585   6.326   8.076  11.975  0.1570 -0.0742  0.1178
16455W        W31586   8.255   5.088   1.333 -0.1315 -0.0308 -0.1432
16456W        W31587   8.746   7.587  15.503 -0.0962 -0.2645 -0.1086
16457W        W31588   4.023  18.215   0.932  0.3333  0.3212 -0.1521
16458W        W31589  16.558  11.121   4.812 -0.0122 -0.0770  0.2370
16459W        W31590   2.763  14.963  14.183  0.1860  0.0263 -0.2108
16460W        W31591   6.385   0.210  12.123 -0.0257  0.1574 -0.0210
16461W        W31592   9.327   4.297   0.972  0.0081  0.0840 -0.6298
16462W        W31593  16.943   8.830  14.913 -0.4118 -0.0021 -0.1571
16463W        W31594  13.465  16.319  10.207 -0.1415  0.2794 -0.2893
16464W        W31595   0.316  17.982  14.805  0.2143  0.0538 -0.1117
16465W        W31596   0.079   6.819   4.223  0.2778 -0.2347  0.0205
16466W        W31597   7.320   9.151   0.101  0.0337  0.0015  0.1362
16467W        W31598   9.839  15.162  13.562  0.4356  0.0038  0.1159
16468W        W31599  11.899   3.918   1.469 -0.0929  0.1446  0.1086
16469W        W31600   7.384  14.703   1.794  0.1586  0.2173  0.1050
16470W        W31601   1.490  15.103   5.180  0.1385  0.1850 -0.1035
16471W        W31602   6.306  10.575  14.320 -0.0507  0.0960  0.2777
16472W        W31603   5.223   7.582  12.955 -0.0244 -0.0649 -0.3930
16473W        W31604  13.247  10.481  12.351 -0.1863  0.3674  0.0385
16474W        W31605  15.892  16.047  14.465  0.2013  0.1441 -0.2050
16475W        W31606   4.034  10.486  11.670 -0.0698  0.1013  0.0586
16476W        W31607  18.268  12.711  15.838  0.0604 -0.0845  0.0067
16477W        W31608   8.666  15.767  12.926  0.1915 -0.1659 -0.0645
16478W        W31609  15.606  14.547  15.039  0.3619  0.3290 -0.1497
16479W        W31610  10.153   8.214  15.979 -0.1853 -0.0965  0.0701
16480W        W31611  16.030  14.685  10.965  0.1052  0.0580 -0.1610
16481W        W31612  18.218  14.269  15.732 -0.0166  0.0708  0.0304
16482W        W31613  13.013   1.272   0.035 -0.0892  0.3135 -0.0038
16483W        W31614   8.019  17.906  14.641 -0.3376 -0.4221  0.0819
16484W        W31615  15.960  16.314   5.581 -0.1488 -0.0286  0.0056
16485W        W31616  13.316   0.900  11.469 -0.0676  0.1951 -0.2068
16486W        W31617   2.504  12.599  11.815  0.0627 -0.0769  0.0121
16487W        W31618  11.647   1.061   0.373 -0.2414 -0.2021  0.1809
16488W        W31619   3.628   8.863   0.465  0.1838  0.0305 -0.2074
16489W        W31620   0.654   5.899  13.355  0.0744  0.1699 -0.1975
16490W        W31621   2.501   9.896   3.023 -0.3044  0.0156 -0.1227
16491W        W31622   8.665  13.054  12.617  0.4304 -0.0231 -0.0908
16492W        W31623   2.750   2.185   1.824 -0.1005  0.1458 -0.3206
16493W        W31624  12.014   6.272  11.269 -0.2939  0.0581 -0.2842
16494W        W31625  13.626  10.587  13.283  0.1028 -0.0236  0.3957
16495W        W31626  12.593  16.853  15.848 -0.0315 -0.1349  0.1958
16496W        W31627   4.105   0.799   4.974 -0.0864  0.2251  0.1298
16497W        W31628  13.676  17.491   1.804 -0.0495  0.0991  0.0292
16498W        W31629  10.796   7.070  14.455 -0.0022  0.1596 -0.1736
16499W        W31630   6.514   6.923  11.259  0.3445  0.0553  0.0589
16500W        W31631   2.043   9.102  12.714 -0.1180 -0.2199  0.0813
16501W        W31632   5.848  14.778  13.202  0.0389 -0.4959 -0.1178
16502W        W31633  13.575   2.971  12.000 -0.1716 -0.0428 -0.3391
16503W        W31634   9.108  17.801   1.522  0.0424 -0.1649  0.3868
16504W        W31635   2.111  13.387  13.602  0.1252 -0.0897  0.0551
16505W        W31636   8.809  16.394  10.038  0.0522  0.2182  0.1643
16506W        W31637   0.431   0.764  14.292 -0.1051 -0.0720  0.0950
16507W        W31638   0.359   1.768   4.242  0.0613 -0.1293  0.0005
16508W        W31639   0.895   2.615  14.420  0.2821  0.0220  0.2939
16509W        W31640   3.177   9.802  13.368  0.2543 -0.1326  0.0090
16510W        W31641  13.439   2.281  15.940  0.0991 -0.0896  0.2412
16511W        W31642   3.343   5.069  13.182  0.3490 -0.4060  0.0257
16512W        W31643  12.216   3.467  11.173  0.1044 -0.2138 -0.1257
16513W        W31644   6.968  16.280  11.483 -0.0078 -0.1744 -0.2237
16514W        W31645  14.897  15.615   1.545 -0.1376  0.2021 -0.1009
16515W        W31646   6.501  10.774   5.314  0.0811 -0.2461  0.0257
16516W        W31647   8.334  18.110  12.665 -0.0414 -0.0997  0.4958
16517W        W31648  16.567  17.792   2.573  0.1668 -0.1039  0.1563
16518W        W31649  12.333   2.700  15.934  0.2279  0.3137  0.1299
16519W        W31650   9.801   8.159  14.256 -0.0384  0.1151 -0.0367
16520W        W31651   5.223  11.591   0.784 -0.2756 -0.6005 -0.1021
16521W        W31652   8.748  11.199   4.103  0.0345  0.1074  0.1013
16522W        W31653   2.116   7.283  14.449  0.1965  0.0642  0.4562
16523W        W31654   7.889   6.184   0.011 -0.0121  0.1370 -0.3561
16524W        W31655   9.772   4.221  15.652 -0.1016 -0.1807 -0.0877
16525W        W31656  16.353   2.448   5.655  0.1006 -0.0337 -0.0216
16526W        W31657  11.555   6.897   3.549  0.0124  0.3449 -0.3006
16527W        W31658   6.551  13.420  13.351 -0.0004  0.2748 -0.1794
16528W        W31659   9.091   6.856   0.963 -0.0361  0.0851 -0.2017
16529W        W31660   8.247   7.413   1.371  0.0799 -0.3363  0.1454
16530W        W31661   3.572  15.811  12.070  0.0236 -0.3222  0.0803
16531W        W31662  14.783   1.221  15.340  0.1675  0.1197  0.2030
16532W        W31663   7.072  13.360   2.913  0.2037 -0.0939 -0.0788
16533W        W31664  13.837   8.271   3.258  0.1885  0.3038 -0.1137
16534W        W31665   7.500   7.542  13.774 -0.0506  0.1340  0.2197
16535W        W31666  16.079  14.155   4.222  0.1064  0.2187  0.0002
16536W        W31667  15.963   7.066   1.530 -0.1484 -0.1188  0.2049
16537W        W31668   2.276   5.168  10.986 -0.1676  0.2490  0.0990
16538W        W31669  13.947  13.391   2.242 -0.0908  0.0927 -0.2816
16539W        W31670  12.107  10.455  13.064  0.2299 -0.2186  0.1459
16540W        W31671  18.230   1.842  15.809  0.0372  0.0008  0.1031
16541W        W31672  14.457  16.389  14.893 -0.0804  0.1071  0.1886
16542W        W31673  10.901  12.294   4.956 -0.0119  0.0958 -0.2954
16543W        W31674   4.197   8.539   4.544 -0.2408  0.0538 -0.0351
16544W        W31675  14.163   9.324   2.936  0.0532 -0.2984  0.0865
16545W        W31676   5.091  17.794  12.050 -0.3357  0.1093 -0.0840
16546W        W31677   0.204   0.802   4.562  0.1072 -0.1367 -0.1190
16547W        W31678   4.792   6.386   0.118 -0.4831 -0.2934 -0.1216
16548W        W31679   5.354   1.833   6.626  0.0980  0.1070  0.0019
16549W        W31680   0.558  16.331  13.558  0.1447 -0.0622 -0.0524
16550W        W31681   0.300  13.142  15.663 -0.2707  0.2832  0.2094
16551W        W31682   3.457   2.488   0.386  0.1022  0.3688  0.2713
16552W        W31683  17.653  10.837  14.626  0.1604  0.2060  0.0856
16553W        W31684   5.085   0.804  15.435  0.1826  0.1416 -0.2384
16554W        W31685  11.496  14.831   0.853 -0.0053  0.4859 -0.2236
16555W        W31686  15.380   5.949  14.039  0.2397  0.1777 -0.0256
16556W        W31687  11.907   7.958   3.914  0.1503 -0.1626  0.1420
16557W        W31688  13.256  14.962   9.418 -0.2181  0.0614  0.1542
16558W        W31689   5.250  14.653  14.091  0.0812  0.0929  0.0968
16559W        W31690   8.086  16.360  13.270  0.1328  0.0231  0.1483
16560W        W31691  10.284  10.390   5.031 -0.1105 -0.1235 -0.1330
16561W        W31692   3.582  15.508   2.159  0.2844  0.2021 -0.1100
16562W        W31693  14.145   1.297   5.033 -0.0311 -0.2521  0.3544
16563W        W31694  10.596  14.243   2.212  0.1421  0.1053  0.3661
16564W        W31695   7.251  12.996  15.437 -0.0385 -0.0151  0.0327
16565W        W31696   2.438  17.258  11.502 -0.1605 -0.0150  0.1081
16566W        W31697   8.346   9.790   2.595  0.1613  0.3295 -0.1374
16567W        W31698  15.015   1.434  12.860  0.2859  0.1046  0.0470
16568W        W31699  15.104   8.672   0.619  0.2528  0.4648 -0.0527
16569W        W31700  18.227   2.907   2.557  0.0018 -0.0714  0.2554
16570W        W31701   7.341   8.616  15.221  0.1970 -0.1571 -0.2460
16571W        W31702  15.731   4.286  15.573  0.0433  0.0166  0.1014
16572W        W31703  12.500   1.348   1.622 -0.0238  0.0780 -0.0003
16573W        W31704   6.861   0.994  13.053 -0.1190  0.0655  0.2941
16574W        W31705  13.173   7.340  16.034 -0.2765 -0.0948  0.3527
16575W        W31706  16.647  14.010  10.928 -0.0408 -0.0203  0.1914
16576W        W31707   7.251  15.981  14.821  0.1354  0.0381  0.1526
16577W        W31708  12.563  17.857  11.957  0.0881 -0.0928 -0.2175
16578W        W31709   2.448   0.894   0.499 -0.1333  0.2467  0.0398
16579W        W31710   0.859  10.567  12.599  0.0420  0.4313 -0.0426
16580W        W31711  17.094   6.041   3.144  0.0500 -0.2130  0.1038
16581W        W31712   4.580   3.211   3.448  0.0272 -0.0199  0.3607
16582W        W31713   0.253  18.265   3.582 -0.3268 -0.2805  0.2043
16583W        W31714   1.799  15.253   4.370  0.1331  0.0683 -0.1926
16584W        W31715   6.307  14.520   5.200 -0.0976  0.4249 -0.0409
16585W        W31716   4.246  17.659   5.151 -0.3779 -0.3690 -0.4166
16586W        W31717   7.468  17.256   1.903  0.1770  0.2362 -0.1715
16587W        W31718  15.761   9.806  13.191  0.1785  0.1351  0.1399
16588W        W31719  12.272   9.195  11.562  0.2106 -0.2825 -0.1316
16589W        W31720  14.260   6.777   1.235  0.3007 -0.2998  0.0554
16590W        W31721  11.477  11.126  13.519  0.1944  0.1717  0.1870
16591W        W31722  12.544   7.015   2.898 -0.0357 -0.2426  0.2601
16592W        W31723   4.717   8.370  12.447 -0.0089  0.1785 -0.1559
16593W        W31724  15.502   6.755  12.535 -0.0191  0.0501 -0.1049
16594W        W31725  11.381   4.609   1.451 -0.2030 -0.2658  0.2462
16595W        W31726  14.056   9.640  13.698  0.1176  0.3047 -0.0883
16596W        W31727  15.922   7.054   3.573 -0.1639 -0.1691  0.3095
16597W        W31728  12.641   6.691  11.555  0.2163 -0.0975 -0.0408
16598W        W31729   9.603   3.855  13.397  0.0085 -0.0799  0.1097
16599W        W31730  10.582   7.217   2.851  0.1248  0.1212 -0.1070
16600W        W31731   2.277   2.947   4.943 -0.1629 -0.0176  0.3082
16601W        W31732   0.278  16.724  13.509 -0.3003 -0.0453  0.0869
16602W        W31733  15.907  18.247  11.783  0.2560  0.1808  0.0052
16603W        W31734  12.128   8.791  15.818 -0.0604  0.0273 -0.0079
16604W        W31735  14.697   6.782  12.046 -0.0007 -0.3043 -0.1267
16605W        W31736   5.517   0.310  14.690  0.0888  0.2408  0.1738
16606W        W31737   1.483   4.441   2.453 -0.2193 -0.0804  0.3812
16607W        W31738  12.014  10.968  13.162 -0.1866  0.0000 -0.2204
16608W        W31739  15.758  17.490  14.847  0.0775 -0.2939  0.1796
16609W        W31740  16.559  13.526  11.154  0.0030  0.0190 -0.0429
16610W        W31741  15.265   2.681   4.792 -0.0424 -0.1217  0.1966
16611W        W31742  15.241  17.276  11.174  0.0083 -0.1412 -0.1606
16612W        W31743  10.971   8.982   1.175 -0.2700 -0.0030  0.4058
16613W        W31744  12.208   7.042   0.653  0.1425 -0.2474  0.4420
16614W        W31745  12.237  10.281   2.684 -0.0580  0.3045  0.1852
16615W        W31746  11.306  14.114  14.565 -0.0248  0.3075 -0.0670
16616W        W31747  17.200   3.190   0.385 -0.1360 -0.0304  0.2489
16617W        W31748   1.430  11.253   5.687 -0.1622  0.1771  0.0346
16618W        W31749   8.797  16.646  10.500 -0.1035  0.0674 -0.0703
16619W        W31750  17.984  10.637  15.740 -0.1630 -0.0119 -0.1139
16620W        W31751  11.813   3.817  11.027 -0.2775  0.0815  0.0446
16621W        W31752  17.429   3.313  15.572  0.0092  0.0950  0.0451
16622W        W31753  11.289   6.689  15.870  0.1182  0.0334  0.0891
16623W        W31754  13.808   5.361  12.817 -0.1175 -0.0891  0.1585
16624W        W31755   4.048  11.804  13.737  0.3059  0.0111  0.3153
16625W        W31756   1.211   3.789  11.509 -0.1344 -0.0435 -0.2585
16626W        W31757   7.599   3.422  10.577 -0.2699 -0.2184  0.0342
16627W        W31758  17.822  18.303   5.090 -0.1202  0.1864 -0.4386
16628W        W31759   9.584   6.761  10.310  0.0379 -0.2651 -0.1894
16629W        W31760   0.776   6.723  14.351  0.2878 -0.3676 -0.0236
16630W        W31761   9.485  18.216   4.848  0.1789  0.0236 -0.2523
16631W        W31762  16.007  12.301   4.854  0.0885  0.0424 -0.1621
16632W        W31763   9.074   3.524   3.859  0.2003 -0.2307 -0.0293
16633W        W31764   7.158  15.155   1.659  0.1049 -0.1981 -0.2187
16634W        W31765   2.529  18.239   2.546 -0.2507 -0.2255  0.0833
16635W        W31766  10.631  15.761   1.224 -0.2840 -0.2077  0.0551
16636W        W31767  12.106  11.091   2.007 -0.1219  0.3104 -0.0161
16637W        W31768   4.203   4.939  13.081 -0.0996 -0.2415 -0.0097
16638W        W31769   5.459   8.307   4.780 -0.0165 -0.1481  0.1376
16639W        W31770  11.688  11.256   4.720 -0.1364  0.3658  0.1844
16640W        W31771   3.522   9.661  11.928 -0.2738 -0.0343 -0.1718
16641W        W31772  12.037   6.123  15.924 -0.0537  0.0229 -0.1187
16642W        W31773  13.846   2.249   2.067 -0.1499  0.0040 -0.0574
16643W        W31774  16.192  14.190  10.779  0.3563 -0.0290  0.1896
16644W        W31775  11.749   7.380   2.451 -0.1571 -0.1211 -0.1122
16645W        W31776  10.432   0.571   1.403 -0.0786 -0.2916  0.1619
16646W        W31777   6.383  15.848   3.436  0.0070  0.0802  0.0803
16647W        W31778  16.228  17.144   0.122  0.2078 -0.2272  0.0750
16648W        W31779   3.599   7.537  15.979 -0.2511 -0.1007  0.0393
16649W        W31780  17.868   9.707  13.662 -0.3899  0.0152 -0.2994
16650W        W31781   6.354  17.183  10.897 -0.1792 -0.0063  0.0251
16651W        W31782   9.222  14.146   2.347 -0.0764 -0.1615  0.1338
16652W        W31783  10.900   8.844  14.916 -0.1465  0.0224  0.3699
16653W        W31784   5.393   9.345   4.644  0.1628 -0.0821  0.0408
16654W        W31785  12.759  11.609   5.080  0.0725 -0.2451  0.2569
16655W        W31786  14.736   4.086   0.522  0.0719  0.3003 -0.0793
16656W        W31787   6.913   4.857   3.014  0.0071 -0.1731  0.2726
16657W        W31788   6.160   7.920   0.633 -0.0828  0.1853 -0.1956
16658W        W31789  18.000  17.075  15.455 -0.1022  0.2192 -0.1546
16659W        W31790  17.459   8.587   4.397  0.1137  0.0116 -0.2099
16660W        W31791  15.516  17.844  14.607  0.0827  0.0840 -0.0177
16661W        W31792  16.421   3.251   5.756 -0.0614 -0.0679  0.0741
16662W        W31793  12.017  17.175  14.238  0.4885 -0.0532  0.0573
16663W        W31794   7.453   2.060  12.187  0.3662 -0.2548  0.0247
16664W        W31795  15.121  15.569  11.333  0.0017  0.2406 -0.3448
16665W        W31796  17.217   2.753  14.386 -0.2449 -0.2668 -0.2629
16666W        W31797   5.008   7.482   4.930  0.1730 -0.1483 -0.1278
16667W        W31798   7.500   8.494   3.716  0.2775 -0.2103 -0.1406
16668W        W31799   4.657  13.121  14.497 -0.4803 -0.0377  0.0424
16669W        W31800   6.321  13.482   2.972 -0.0173  0.1229  0.2224
16670W        W31801   3.113  10.865  13.260  0.1384  0.0642 -0.1244
16671W        W31802   3.891  16.879  13.190 -0.2868 -0.0148 -0.1677
16672W        W31803   4.743  11.784   0.658  0.0116 -0.2446 -0.1349
16673W        W31804   4.877   3.646  11.157 -0.2480  0.2632  0.0990
16674W        W31805  10.909  17.253   5.433 -0.0079  0.1471  0.0999
16675W        W31806  10.110   2.348  10.786  0.0023 -0.2863 -0.1416
16676W        W31807   4.000   2.279  11.353  0.1600 -0.2461  0.1790
16677W        W31808   2.397   8.039   1.016  0.0755 -0.3014 -0.1128
16678W        W31809   9.407  16.464   3.874  0.0209 -0.0118  0.1582
16679W        W31810   8.278   0.147  15.277  0.2608  0.3415 -0.1321
16680W        W31811   1.112  17.027  11.193 -0.1846 -0.1940 -0.3077
16681W        W31812   1.003  17.709   3.004 -0.2589 -0.2221 -0.3997
16682W        W31813   9.251  10.171   2.423 -0.3065  0.2019  0.1048
16683W        W31814   4.524   2.642  15.708 -0.0984  0.0788  0.3010
16684W        W31815   8.004  16.797  15.618 -0.0336  0.1000  0.0857
16685W        W31816   3.761   4.969   1.602 -0.1821 -0.3603 -0.0980
16686W        W31817  10.356   9.837  16.046  0.1683  0.2037  0.2746
16687W        W31818  17.016  14.346   9.994  0.3087  0.3491 -0.0424
16688W        W31819   6.939  13.940  15.130  0.1907  0.1669  0.0106
16689W        W31820  18.049  16.672  15.142 -0.1288 -0.1577  0.1255
16690W        W31821  14.416  17.266  12.107  0.0362 -0.3330 -0.0146
16691W        W31822   4.244   3.553  10.527  0.0079  0.1835  0.2792
16692W        W31823  13.170  16.815  15.806 -0.0059  0.3200 -0.1317
16693W        W31824  16.236   9.908  12.936 -0.1240  0.0009  0.1260
16694W        W31825   0.336  15.734  10.773  0.0003 -0.0642 -0.0805
16695W        W31826  15.658  17.749   5.848 -0.1752 -0.1209  0.1474
16696W        W31827   9.646  13.461   2.845  0.1224  0.2427  0.0778
16697W        W31828   7.364   2.358  11.284  0.3279 -0.2923 -0.2014
16698W        W31829  11.705   1.739  11.695  0.2972 -0.0020  0.0733
16699W        W31830  13.197  13.225   3.827  0.1606  0.2233  0.0845
16700W        W31831   4.145   8.388  11.317  0.1872 -0.2442 -0.1588
16701W        W31832   9.768   6.013  10.789 -0.2931  0.0476  0.4418
16702W        W31833   2.281   6.667  11.213  0.4314 -0.2367  0.0310
16703W        W31834   6.314   1.168  14.254 -0.2485 -0.0449 -0.1385
16704W        W31835   9.183  17.871   4.446  0.2026 -0.3936  0.3348
16705W        W31836   7.906   2.990  14.805  0.1201  0.1402  0.0252
16706W        W31837   4.419   7.353  11.513  0.1651  0.2729 -0.2541
16707W        W31838   4.926  13.649  15.974  0.3884 -0.6349 -0.1991
16708W        W31839  12.626   2.530   0.220 -0.0362  0.1301 -0.1833
16709W        W31840  15.887   9.503  14.120 -0.1841  0.3144  0.1944
16710W        W31841  14.731   7.829   5.571 -0.1367 -0.3493 -0.2439
16711W        W31842   6.106   4.798  10.704 -0.2011  0.1078  0.2129
16712W        W31843  17.555  17.306   4.853 -0.0206 -0.0873  0.0966
16713W        W31844   8.273  10.796  13.024 -0.0643 -0.2440  0.1020
16714W        W31845  17.744  11.177  12.498 -0.2068  0.0469  0.1912
16715W        W31846  13.710   8.706   3.493 -0.0126 -0.0717 -0.0699
16716W        W31847   4.379   6.459  14.127 -0.3432  0.2440 -0.0216
16717W        W31848  10.495   6.612   0.675 -0.0174  0.0554  0.0119
16718W        W31849  12.822   7.720   0.608 -0.1798 -0.1969 -0.1833
16719W        W31850   0.302   0.762   2.024  0.0808 -0.3411 -0.0948
16720W        W31851   3.622   8.021  13.911 -0.1247 -0.0308 -0.1240
16721W        W31852  16.081  11.686  13.408 -0.1435 -0.1683  0.0180
16722W        W31853   4.686  15.843   2.631 -0.3269  0.2377  0.2493
16723W        W31854   4.647   4.905   0.580 -0.0304 -0.1954  0.0591
16724W        W31855  11.482   1.787  16.073 -0.2904  0.1826  0.1076
16725W        W31856   0.190  17.104  11.345  0.1495 -0.0862  0.1061
16726W        W31857   7.788   5.487  12.246 -0.1634  0.1902 -0.0715
16727W        W31858   8.044  12.950   4.651 -0.2061 -0.1080  0.2853
16728W        W31859  10.118   2.964  15.269 -0.1452 -0.0392  0.1199
16729W        W31860  15.256  14.066   5.603 -0.1804 -0.2408 -0.2552
16730W        W31861  16.674   2.510   4.099 -0.2245 -0.0236  0.0248
16731W        W31862   0.723  11.038  12.474  0.1462  0.0553 -0.1687
16732W        W31863   0.180  16.519  14.853 -0.1016 -0.0262 -0.0981
16733W        W31864  12.582  16.606  11.431  0.2897 -0.0167 -0.2069
16734W        W31865  11.338  13.440  12.228 -0.4301 -0.0310  0.1751
16735W        W31866   1.777   4.660  13.118 -0.0430 -0.0390 -0.1508
16736W        W31867  12.779   8.115   3.599  0.0536  0.0922  0.2775
16737W        W31868   0.926  13.386   5.256 -0.2437  0.2126 -0.0306
16738W        W31869  10.440  12.797  10.867 -0.0584 -0.1170 -0.0083
16739W        W31870  16.911   1.833   2.007 -0.0701  0.2010 -0.1052
16740W        W31871  17.733   6.982   3.794 -0.5698  0.1601 -0.1913
16741W        W31872  10.288  16.121  15.820 -0.0480  0.0852  0.1066
16742W        W31873   6.287   5.498   9.784  0.0312 -0.2083  0.1316
16743W        W31874   0.934   0.402   2.371  0.4354 -0.2502 -0.0280
16744W        W31875   4.572  11.615  13.030  0.0446 -0.0367 -0.0260
16745W        W31876  12.844   2.136  11.410 -0.0297 -0.0970  0.1082
16746W        W31877   2.617  10.634  11.119  0.1239  0.0753 -0.0448
16747W        W31878   5.768  18.153   4.268 -0.0444 -0.0883 -0.0296
16748W        W31879   3.662  17.098  15.368 -0.0575  0.1016 -0.0309
16749W        W31880  11.192   7.147  15.536  0.0429 -0.0109 -0.2531
16750W        W31881  12.550   0.121   5.349  0.0860  0.5272  0.0901
16751W        W31882   7.780   1.648   0.888  0.0044 -0.0538 -0.1856
16752W        W31883   8.224   5.311  15.284  0.0620  0.1637  0.1573
16753W        W31884  12.237  13.903   0.119 -0.0922  0.0340  0.0056
16754W        W31885  12.515   7.477   2.651 -0.0153 -0.1222 -0.3162
16755W        W31886   5.866   7.234  14.658  0.0434  0.3384 -0.2152
16756W        W31887   8.443  10.991  15.094  0.1533 -0.4750 -0.2288
16757W        W31888  11.029  15.315  15.469  0.1765 -0.0799 -0.0440
16758W        W31889   7.751  13.814  12.555  0.0283  0.0205  0.0599
16759W        W31890  16.952   8.268  11.346  0.0634  0.1553 -0.0828
16760W        W31891  17.351  18.184  12.690  0.0967 -0.1006 -0.2131
16761W        W31892  17.516   6.174   4.586 -0.0235  0.0017 -0.1075
16762W        W31893  12.623   2.805   4.958 -0.0524  0.1971  0.3340
16763W        W31894   3.789   9.919   2.337  0.0640  0.2081 -0.3886
16764W        W31895   7.857  14.209  15.664  0.1209  0.0248  0.0843
16765W        W31896  16.084   6.019  14.757  0.1074  0.1725  0.0019
16766W        W31897   3.436   5.561   0.816 -0.1698 -0.0627 -0.0814
16767W        W31898   5.053   5.905  14.351  0.5947 -0.1284  0.0697
16768W        W31899   3.258  15.718   4.196  0.0801 -0.0454 -0.0754
16769W        W31900  12.284  16.215   5.055  0.2397 -0.0032 -0.1277
16770W        W31901  16.752  11.636  10.211 -0.3129 -0.0714 -0.1562
16771W        W31902   4.815  10.908  13.731 -0.0010 -0.1893  0.0787
16772W        W31903   4.680   0.166   5.115 -0.0037  0.1420 -0.0630
16773W        W31904   2.276  16.708   4.853  0.0138 -0.0201 -0.0018
16774W        W31905   2.086  13.994  12.610 -0.0018  0.1735  0.1907
16775W        W31906  12.143   8.449   1.952 -0.1592 -0.0526 -0.0830
16776W        W31907  15.319   3.065  14.104 -0.0466  0.2303  0.2787
16777W        W31908  16.059  13.147   3.962 -0.0665 -0.0140 -0.0460
16778W        W31909   2.810  11.548  10.950 -0.0605  0.4264 -0.2201
16779W        W31910   0.809   2.255  15.258 -0.2221  0.1158 -0.2736
16780W        W31911   3.913   9.263   4.272 -0.1801 -0.0876 -0.2822
16781W        W31912  11.114   9.727  14.359 -0.1306  0.1879 -0.1502
16782W        W31913  13.119   0.625  13.903  0.0001  0.0430  0.4279
16783W        W31914  15.091   4.536   0.876  0.3214 -0.1264 -0.0388
16784W        W31915  12.717   5.800  14.240 -0.0058  0.0770 -0.5208
16785W        W31916   2.064   2.070  11.535 -0.0573 -0.0360 -0.2857
16786W        W31917   8.202   2.159   4.529 -0.0759  0.1398 -0.0996
16787W        W31918  14.341  18.214   0.230 -0.1009 -0.1133 -0.2241
16788W        W31919   4.557   9.145  15.564  0.0282 -0.0555 -0.1565
16789W        W31920  10.289   1.190  14.933  0.0951 -0.0369  0.2196
16790W        W31921   2.814   7.265   1.475  0.0467  0.3422  0.0473
16791W        W31922  18.251  17.223   4.533  0.1927 -0.0516 -0.3259
16792W        W31923  17.477   2.008  14.486  0.1176 -0.0050 -0.2843
16793W        W31924   1.189  13.061  13.054  0.0343  0.2042 -0.0499
16794W        W31925   4.246  18.112   2.403 -0.1048  0.0796 -0.2445
16795W        W31926   2.250  10.834  11.521 -0.1437 -0.3392 -0.1140
16796W        W31927   7.432  12.339   4.897 -0.0810  0.0241 -0.1141
16797W        W31928   9.918  15.801  15.766 -0.0774  0.2161  0.0319
16798W        W31929  13.546  10.457   9.931 -0.4174  0.1732 -0.0236
16799W        W31930   3.862  14.929  10.955  0.3310 -0.2694  0.0161
16800W        W31931   2.581   5.363  14.492  0.0571 -0.0896 -0.0138
16801W        W31932   1.848   0.827   1.045 -0.0449  0.2004 -0.0997
16802W        W31933   5.085   3.314   6.219 -0.0566  0.2486  0.1187
16803W        W31934  14.160   5.323  15.921  0.3658  0.0441 -0.0096
16804W        W31935  17.186  15.879   5.386 -0.2693  0.0240  0.2085
16805W        W31936  13.828   6.617  10.920 -0.0953 -0.1067  0.2310
16806W        W31937   3.347  15.587   4.862 -0.0431  0.0445 -0.1153
16807W        W31938   7.968  10.475   0.556  0.1178  0.1188  0.0639
16808W        W31939  13.758  15.344   3.043  0.1720 -0.1243  0.0662
16809W        W31940  17.523  12.800   4.253  0.2944 -0.3043 -0.1382
16810W        W31941   9.051  12.025  14.017  0.2316 -0.3011 -0.2168
16811W        W31942   2.098   4.110  12.679 -0.0577  0.0554  0.1067
16812W        W31943  11.441   8.261  11.986  0.1694  0.0090 -0.3963
16813W        W31944   1.452  10.300   2.577  0.1229  0.1703 -0.2633
16814W        W31945   3.347   4.612  14.129 -0.0640  0.0609  0.1062
16815W        W31946   7.179   0.513   0.881 -0.1150 -0.2578  0.1003
16816W        W31947   5.892   6.178  11.576  0.1550  0.2005 -0.3273
16817W        W31948   0.984   4.733   4.918 -0.0137 -0.0548 -0.1734
16818W        W31949  10.386   1.120  16.066 -0.0602  0.3073  0.2001
16819W        W31950   8.957  13.743  12.995  0.1976  0.0525 -0.2202
16820W        W31951   8.519  11.932   3.031  0.1659 -0.2653  0.1277
16821W        W31952  15.186  13.809  12.386  0.0422 -0.0835  0.1983
16822W        W31953   6.873   2.221   1.642  0.1116  0.0407  0.0749
16823W        W31954   4.299  15.941  13.377 -0.0637 -0.2542 -0.0062
16824W        W31955  12.509   1.771  15.745 -0.1218  0.3815 -0.1300
16825W        W31956  11.228   6.968   0.659 -0.0673  0.0887  0.0360
16826W        W31957   8.063  18.245   2.772 -0.2623  0.2581  0.1114
16827W        W31958   4.616  10.075  12.142  0.1389 -0.4628 -0.0170
16828W        W31959  12.990   6.115   2.348 -0.1324 -0.0692 -0.2933
16829W        W31960   0.155   0.839   6.640  0.0303  0.2677 -0.1212
16830W        W31961   3.628  16.256   0.986  0.1034  0.1209  0.1725
16831W        W31962  17.512   4.207   5.743 -0.1086  0.2528  0.0912
16832W        W31963   6.749  14.867  12.142  0.0161  0.2060  0.0131
16833W        W31964   2.268   2.983   3.209  0.1565  0.0587  0.1472
16834W        W31965  10.342   8.973   0.534 -0.0081  0.1172 -0.0716
16835W        W31966  12.885  15.063  14.955 -0.0430  0.0021  0.0511
16836W        W31967   8.532  15.084   1.453 -0.0711  0.0223  0.0857
16837W        W31968   4.959   8.186   5.453 -0.2735  0.5790 -0.2558
16838W        W31969   2.847   0.450   2.369  0.2884  0.0974  0.3051
16839W        W31970   2.906  14.380   5.223  0.0786  0.3164  0.1012
16840W        W31971  12.299  13.734   4.797  0.3403  0.2133 -0.0814
16841W        W31972   5.781  10.389  15.182  0.1492  0.0414  0.1250
16842W        W31973  13.682   3.575  14.099 -0.0151 -0.0959  0.0733
16843W        W31974  15.845   1.871  13.636 -0.3163 -0.3855  0.0765
16844W        W31975  13.398   1.683   2.744  0.0766 -0.3036  0.0060
16845W        W31976   9.640   6.845   4.548  0.1537  0.0552 -0.0132
16846W        W31977   7.236  10.260   2.721 -0.1423 -0.0939  0.2538
16847W        W31978   6.294   2.431  14.927 -0.0796  0.0819 -0.1462
16848W        W31979  17.322  12.894  14.235 -0.1574 -0.0692  0.1356
16849W        W31980   6.742   4.105  13.645 -0.0220  0.0442 -0.4521
16850W        W31981  10.635  14.312  13.082 -0.0725 -0.1528 -0.1181
16851W        W31982  17.232  11.782   4.440 -0.0252  0.1403  0.1391
16852W        W31983  17.987  16.578   1.988 -0.1703 -0.1917  0.2187
16853W        W31984   1.479  18.296   1.784  0.1571  0.2832 -0.4097
16854W        W31985  16.635  17.242  15.702  0.1862 -0.2338  0.1398
16855W        W31986   6.184  18.015   5.400 -0.1381  0.1880 -0.3664
16856W        W31987  17.675   7.894   4.407 -0.1354 -0.3226  0.0414
16857W        W31988   2.391  12.585   1.132  0.0534 -0.3766  0.0056
16858W        W31989  10.712   9.848  11.757 -0.5514 -0.1406  0.0428
16859W        W31990  11.410  12.651  15.787  0.1379  0.0387  0.1009
16860W        W31991  12.883   8.618   3.440 -0.1858 -0.1081  0.2683
16861W        W31992  17.275   3.026  15.975 -0.1958 -0.0112  0.3240
16862W        W31993  18.328  16.487   1.508  0.2102  0.1779  0.1059
16863W        W31994   3.297   0.419   6.181 -0.1975  0.0386  0.1169
16864W        W31995   0.042  14.558   0.927  0.1301  0.1798  0.0605
16865W        W31996   7.773  11.754  15.464 -0.0788 -0.0331 -0.0344
16866W        W31997  10.729   1.846   5.048  0.0583 -0.2906  0.0800
16867W        W31998  15.365   8.918   3.998  0.1353 -0.0690  0.0958
16868W        W31999   4.302   5.099  12.616 -0.1719 -0.7237 -0.1266
16869W        W32000   1.135   1.197  13.166  0.1471 -0.1590  0.1117
16870W        W32001   5.815   7.039  15.094 -0.0809  0.0691  0.4158
16871W        W32002  12.433   8.105   4.572 -0.0331  0.1903  0.1530
16872W        W32003   2.238   3.475   4.269  0.1765  0.1394 -0.2879
16873W        W32004  10.778  12.963   5.157  0.1280 -0.0069  0.1773
16874W        W32005  11.978   5.711   5.201  0.0970  0.2452  0.4514
16875W        W32006   1.901   9.064   2.005  0.0717  0.2038  0.1904
16876W        W32007   2.738  15.970   4.244  0.0229 -0.1274 -0.1591
16877W        W32008  18.274  17.055   0.969  0.0091 -0.0690 -0.2839
16878W        W32009  15.161  15.944   3.371  0.1950  0.1628 -0.0342
16879W        W32010  10.435   9.694   1.405 -0.0930  0.2560 -0.1408
16880W        W32011   5.686   0.301  12.869 -0.1834  0.1685  0.0787
16881W        W32012  16.774   9.512   3.886  0.0226  0.3354 -0.0271
16882W        W32013  15.985   4.923   2.893 -0.0628 -0.1253  0.1410
16883W        W32014   6.511   1.534   3.933 -0.3833 -0.1735  0.3452
16884W        W32015  11.404  16.784  12.170  0.0969 -0.0423  0.0271
16885W        W32016  15.152  15.838  15.703  0.0968  0.0073 -0.1035
16886W        W32017  14.083   3.920  14.199 -0.0418 -0.2327 -0.2459
16887W        W32018  17.280   6.631  13.171  0.3226  0.1063  0.0359
16888W        W32019   2.714   4.847  14.631 -0.2214  0.1957  0.6975
16889W        W32020  10.253  13.385   1.933  0.1165  0.0533  0.1087
16890W        W32021   4.612  11.556  14.283  0.0045 -0.0554  0.2978
16891W        W32022   9.197  15.579   3.665  0.0645  0.1061 -0.1785
16892W        W32023  17.806  14.195  12.399 -0.2573 -0.0676 -0.1657
16893W        W32024   1.774   5.468   4.304  0.1284 -0.2073  0.0012
16894W        W32025  14.749  16.476   4.958 -0.1056 -0.1536  0.1866
16895W        W32026   6.213   1.773  11.401 -0.0810 -0.4216  0.0940
16896W        W32027  15.500   9.551  14.389  0.0192 -0.2660  0.0379
16897W        W32028   1.395  13.865  14.221 -0.0771 -0.1974 -0.1134
16898W        W32029  14.213   6.265  11.819  0.0311  0.0111 -0.1911
16899W        W32030   9.233   8.435   3.659  0.1398 -0.0561  0.1656
16900W        W32031  14.812   6.817  11.226  0.1269  0.1000 -0.2545
16901W        W32032  13.890   3.916  15.205 -0.0314  0.4084  0.1859
16902W        W32033  14.041  14.975   2.793  0.0404 -0.0827  0.1195
16903W        W32034   5.559   3.036   0.451  0.2872  0.3042  0.2596
16904W        W32035   9.455  13.530  14.606  0.0318 -0.1391 -0.1098
16905W        W32036   6.195   9.738  15.912  0.0744 -0.0822  0.2107
16906W        W32037  16.159   6.887  15.550 -0.1749 -0.1404  0.0835
16907W        W32038   9.723  16.487  14.377  0.2049  0.1722  0.2494
16908W        W32039   0.537   5.162  12.824 -0.0317 -0.0348  0.0829
16909W        W32040   9.659   2.865   4.784 -0.1601 -0.0927  0.2337
16910W        W32041   2.923   3.140  12.065  0.0989  0.2387  0.0623
16911W        W32042   4.731  14.879  11.492  0.0340 -0.0524 -0.0508
16912W        W32043  13.049   2.817   2.037  0.0458 -0.0901 -0.1579
16913W        W32044   9.779   5.401   0.501  0.3897  0.0395  0.2841
16914W        W32045  10.215  13.764   4.889  0.2096  0.2959  0.3844
16915W        W32046   7.472   8.141  15.344 -0.0942 -0.3211 -0.0017
16916W        W32047   2.863  17.963   3.921 -0.1389 -0.0035  0.2112
16917W        W32048  10.909   0.489   1.486 -0.0421 -0.0572  0.0181
16918W        W32049   6.421   5.674  12.858 -0.0140 -0.1441 -0.0167
16919W        W32050   0.943   7.614   0.969 -0.0081  0.0544 -0.0574
16920W        W32051   1.310   3.070   3.545 -0.1011  0.2701  0.2033
16921W        W32052  13.641   2.475  14.983  0.0728  0.1940  0.0325
16922W        W32053   5.020  16.908  15.758 -0.1266 -0.3874  0.0588
16923W        W32054  15.311  11.606  13.935  0.0694 -0.0226 -0.1675
16924W        W32055   3.734   9.534  15.470  0.0691  0.0388  0.3257
16925W        W32056   0.206   3.339  12.801  0.0202 -0.1201  0.2705
16926W        W32057   4.991   6.539  15.594 -0.4523  0.0987 -0.0343
16927W        W32058   9.189   3.691  13.663 -0.0769  0.0863 -0.1456
16928W        W32059   8.672   4.237   4.187  0.0742  0.1038  0.0803
16929W        W32060  13.261   6.411   3.032  0.0410  0.0038 -0.4071
16930W        W32061  12.689   3.431   5.223 -0.0712 -0.1404  0.0133
16931W        W32062   2.090   6.835   1.100  0.2206 -0.0184  0.4412
16932W        W32063   9.454   8.106  12.693 -0.3279 -0.2929  0.2717
16933W        W32064  13.404   9.453  14.325  0.1674 -0.1977  0.3973
16934W        W32065  10.388   4.189   3.892  0.2164  0.1972 -0.0858
16935W        W32066   6.545   3.153   0.483 -0.1242  0.0500 -0.0840
16936W        W32067   7.380  12.918  15.902 -0.0249 -0.1516 -0.3219
16937W        W32068   0.133   0.423  12.554  0.3266  0.0737  0.2890
16938W        W32069   3.551   9.503  10.152  0.2395  0.2655  0.0496
16939W        W32070   7.999   0.028   3.966 -0.1441 -0.2445  0.0188
16940W        W32071  15.418   2.954   2.356 -0.2326 -0.1394 -0.3653
16941W        W32072   9.700  10.943  14.577 -0.1242  0.1283  0.2565
16942W        W32073   6.739   0.383  15.371 -0.1705  0.1518  0.2197
16943W        W32074  11.996  13.090   3.688 -0.0930  0.0107 -0.2258
16944W        W32075   5.556  15.842   1.697  0.2989 -0.0195 -0.2325
16945W        W32076  12.220   5.233   4.115 -0.0730  0.1256  0.4860
16946W        W32077   4.153  18.189  11.972 -0.0140  0.0050  0.0088
16947W        W32078   9.241  11.529   0.877 -0.0414 -0.0313  0.3316
16948W        W32079   1.378   0.280  10.267  0.2990 -0.3215 -0.0842
16949W        W32080  11.057   7.553  13.219 -0.2291  0.2322  0.5024
16950W        W32081   6.722   7.758   5.411 -0.2443  0.0872 -0.3099
16951W        W32082   6.582   4.518  12.883 -0.2605 -0.0048  0.2411
16952W        W32083  11.256   3.721  15.875  0.2409  0.1004  0.0089
16953W        W32084   7.917   6.595   0.783 -0.0989  0.0976  0.0494
16954W        W32085   8.302   1.301  13.353 -0.1301 -0.2750  0.1840
16955W        W32086  15.657   6.341   1.105 -0.0308 -0.3791  0.1684
16956W        W32087  14.610  13.553  11.013  0.1798  0.1685  0.3071
16957W        W32088  16.532   1.048  12.814  0.1754 -0.1257  0.1892
16958W        W32089  16.194   3.423   2.241 -0.1244 -0.0933  0.1093
16959W        W32090   9.899  16.532   5.157  0.2111 -0.0463 -0.1370
16960W        W32091   2.942  14.064   4.828  0.0650  0.0981  0.1286
16961W        W32092  12.996   6.042  14.637  0.3544 -0.1495 -0.3402
16962W        W32093   0.072  18.144  14.251  0.2728  0.0388  0.2998
16963W        W32094   8.776   0.991  14.836 -0.1671  0.0377  0.2914
16964W        W32095   8.613   4.258   6.006  0.0711 -0.1186 -0.0258
16965W        W32096   2.742  12.496   0.823 -0.2234  0.3182 -0.1278
16966W        W32097   2.210   0.398  14.107 -0.1899  0.0228 -0.1846
16967W        W32098  13.728   0.050  14.258  0.1315  0.2950  0.0932
16968W        W32099   3.208   7.676   4.926 -0.1507 -0.0244 -0.1847
16969W        W32100   3.991  11.463   1.963 -0.3747  0.0484 -0.0297
16970W        W32101   7.661  10.894   2.876  0.0234 -0.0058  0.4453
16971W        W32102  14.352  12.401  13.952  0.1003 -0.2580  0.3224
16972W        W32103   6.413   4.639  11.143  0.0699 -0.3124 -0.1454
16973W        W32104  13.615  13.099  15.297 -0.0550  0.0222 -0.2404
16974W        W32105   4.304  15.693   0.609  0.0670  0.2783  0.4245
16975W        W32106   0.122  15.794  14.780  0.1408 -0.1549  0.0520
16976W        W32107   3.010  11.262  15.115 -0.1063 -0.2311  0.0618
16977W        W32108   7.576  12.787  14.161  0.1337  0.4943  0.1907
16978W        W32109  14.492  11.528  12.714  0.0700  0.3577 -0.1055
16979W        W32110  15.794   9.487   3.485  0.1617 -0.0744  0.2139
16980W        W32111  13.830  12.008  13.427 -0.0829 -0.2266 -0.0506
16981W        W32112  15.614  12.456   3.628 -0.1789  0.4862 -0.1660
16982W        W32113   2.824   5.091   1.491 -0.1476 -0.1267 -0.4616
16983W        W32114   6.666   5.645  14.710  0.1821 -0.1518 -0.0756
16984W        W32115   4.700   8.102  12.935 -0.1615 -0.1435 -0.2921
16985W        W32116   0.951   5.277   3.771 -0.1076 -0.0961 -0.0034
16986W        W32117   5.541   5.300   4.471  0.1566 -0.0717 -0.0179
16987W        W32118   8.604   5.584   0.019  0.2492 -0.0356  0.0957
16988W        W32119  14.611   4.355   4.599  0.1815 -0.2022 -0.1998
16989W        W32120  14.881   4.390  14.545 -0.0839  0.4090  0.0727
16990W        W32121  14.947  13.170  12.768 -0.0315  0.0131 -0.0958
16991W        W32122   1.045   4.671   2.613 -0.2547  0.0992 -0.1388
16992W        W32123   2.545  10.537  14.445  0.2068  0.1998  0.2646
16993W        W32124  16.651   7.236   2.312  0.2888  0.1408  0.1250
16994W        W32125   4.607   9.802   3.486 -0.0101  0.0912 -0.2521
16995W        W32126  17.300   4.880  13.490 -0.0044  0.1250  0.2134
16996W        W32127  14.823  12.794  10.875  0.0749  0.3666  0.1212
16997W        W32128  11.567   9.000   1.942  0.2674  0.2416 -0.0200
16998W        W32129   1.923   8.198   1.106  0.2576 -0.0032 -0.0308
16999W        W32130  13.781   2.342  14.193  0.0624 -0.2158  0.1911
17000W        W32131  15.054   8.839  12.058  0.3382  0.0162  0.1213
17001W        W32132   9.483  14.995   1.263 -0.0668  0.0784  0.3893
17002W        W32133   3.541   4.998  14.890  0.0483  0.2287 -0.1176
17003W        W32134  12.210   5.877   4.716  0.2480 -0.1566 -0.0537
17004W        W32135  17.168  11.208   4.272 -0.0148  0.1145 -0.0150
17005W        W32136  17.774   3.682  12.175 -0.0503 -0.2173 -0.2778
17006W        W32137   1.776   9.452  14.104 -0.2212  0.3404  0.0681
17007W        W32138  10.294   1.796  15.779 -0.0045  0.2100 -0.2848
17008W        W32139  13.761   0.838  14.982  0.0443  0.0480  0.0210
17009W        W32140   9.684   5.358   3.031  0.1534 -0.0440 -0.2308
17010W        W32141  14.716  12.444   3.678  0.2177 -0.0593  0.1533
17011W        W32142   2.775  10.092   2.261  0.2198 -0.0216  0.0027
17012W        W32143  11.845   8.966  11.306 -0.1072  0.0461 -0.3952
17013W        W32144  10.147   4.464  11.531  0.3246 -0.2454  0.1352
17014W        W32145  10.261  14.069   3.045 -0.0693 -0.0010  0.1851
17015W        W32146  14.609  11.535   9.745  0.0021  0.1200 -0.1349
17016W        W32147   7.176   9.449   1.596 -0.1679 -0.1543 -0.1767
17017W        W32148  11.935  11.758  11.467  0.2564  0.0587 -0.0191
17018W        W32149  15.617  13.369   2.491  0.1338  0.0328 -0.0108
17019W        W32150   5.390   6.578   3.524 -0.0243 -0.4235  0.0141
17020W        W32151   4.118   8.124  10.380  0.0177 -0.0670 -0.2123
17021W        W32152  13.211   5.615  15.724  0.2029  0.1037  0.3185
17022W        W32153  16.074   4.621   1.665 -0.0976  0.0237  0.2083
17023W        W32154  12.022   4.291  15.135 -0.2174  0.0452 -0.2108
17024W        W32155   8.994  17.656  15.557 -0.2104  0.1275 -0.0671
17025W        W32156   9.173   9.705   0.930  0.0276  0.1003 -0.0387
17026W        W32157  15.945  16.474   3.280 -0.1399  0.1859  0.0028
17027W        W32158   1.518  12.535  11.162 -0.0799 -0.0820  0.1136
17028W        W32159   6.298   3.537  12.829  0.2216 -0.0366 -0.0623
17029W        W32160   8.999  10.768  15.412  0.0714  0.3196 -0.0459
17030W        W32161  18.141   3.627  11.325  0.1008  0.0126  0.0269
17031W        W32162  11.799   8.116   1.933 -0.0598 -0.3762  0.1970
17032W        W32163   5.527   0.559  15.667  0.0231 -0.1038  0.1481
17033W        W32164   4.573   3.117   2.255 -0.2770  0.2864  0.2450
17034W        W32165  11.298   0.305   2.533  0.1752  0.0875 -0.0095
17035W        W32166  16.381  11.700  15.152 -0.0946 -0.1291  0.0663
17036W        W32167  12.944   2.916  14.007  0.1736 -0.0271 -0.0471
17037W        W32168   4.635   4.605   4.579 -0.0262  0.1347  0.0226
17038W        W32169  16.652  16.525   4.183  0.1450  0.0029  0.0575
17039W        W32170  13.207   4.176  11.474 -0.0956 -0.1961  0.5275
17040W        W32171   6.116  16.942  14.711  0.1940  0.2636  0.2306
17041W        W32172  14.323   2.561  13.191 -0.1116  0.1315  0.1055
17042W        W32173  15.329  12.652   2.769 -0.0735  0.1295  0.0475
17043W        W32174  14.546  15.202   3.007 -0.0400 -0.1026  0.2139
17044W        W32175   8.237  12.572   3.814  0.2385  0.1010 -0.0975
17045W        W32176  14.893  15.427   3.920 -0.0288  0.0643  0.1665
17046W        W32177  10.597  14.530  13.851  0.1008  0.3537 -0.0653
17047W        W32178  11.054   4.916   2.114  0.0376  0.2161  0.2529
17048W        W32179   2.429   3.181  11.847  0.2028 -0.0406 -0.3296
17049W        W32180  11.968  16.918   4.847  0.0247  0.0199 -0.1090
17050W        W32181  13.674  10.165  15.644  0.1077 -0.0174 -0.3515
17051W        W32182   7.432  11.625   5.570  0.0825 -0.2044 -0.2372
17052W        W32183  11.014  17.330  12.807  0.0060 -0.1492  0.3352
17053W        W32184  12.846   8.807   5.727  0.1687  0.2119  0.3227
17054W        W32185  12.869   3.772   0.497 -0.0145  0.0111  0.1239
17055W        W32186  16.401   0.346  15.267  0.0853 -0.1374 -0.0191
17056W        W32187  18.097   3.367   2.700  0.1104  0.1898 -0.0123
17057W        W32188   0.809   9.697  14.282  0.2246  0.1217  0.2348
17058W        W32189  12.212   0.813  11.482 -0.1629  0.1031  0.2818
17059W        W32190   8.880  15.661   2.263 -0.2157  0.3270  0.0939
17060W        W32191   0.730  17.200   4.012  0.3543 -0.0601  0.1861
17061W        W32192  18.296  18.215  12.265  0.0932  0.1938 -0.0676
17062W        W32193  16.246  12.710  10.736 -0.2579 -0.2319  0.0465
17063W        W32194  15.651   5.857  10.807  0.0405  0.0118 -0.1224
17064W        W32195   4.756  12.130  12.181  0.1010 -0.0653  0.0738
17065W        W32196   1.791   3.609  11.530  0.0825  0.0802 -0.2268
17066W        W32197   9.089  17.481  12.417 -0.0133  0.3353 -0.0884
17067W        W32198  15.133  14.351  12.665 -0.4147 -0.2353 -0.1987
17068W        W32199   3.087  18.042   4.466  0.2564  0.0967 -0.0878
17069W        W32200   7.583  18.202  11.177 -0.0112  0.2453 -0.1535
17070W        W32201   3.385  10.107  13.776 -0.2053 -0.1013  0.2489
17071W        W32202   8.046   9.085  11.336 -0.0323  0.0458 -0.2930
17072W        W32203   7.135  18.322  15.373 -0.2229  0.1284  0.0299
17073W        W32204   8.806   6.346  14.315 -0.0260  0.1076  0.1602
17074W        W32205   2.601  15.857  11.703 -0.3670  0.4765 -0.0518
17075W        W32206  10.267   7.143   3.332 -0.1182  0.1760  0.0542
17076W        W32207   8.717  12.906   1.965  0.0214  0.3118 -0.0077
17077W        W32208   8.867   9.631   4.655 -0.2352 -0.0885  0.2575
17078W        W32209   2.956  10.920  16.045  0.0772  0.1192  0.0465
17079W        W32210  15.766   8.308   9.699 -0.1876 -0.1806  0.1138
17080W        W32211   0.279  17.982   6.303  0.2953 -0.1770 -0.1512
17081W        W32212  16.726   5.242   1.109 -0.0534 -0.0025  0.2370
17082W        W32213   5.738   7.276  14.152 -0.3808  0.1727  0.2762
17083W        W32214  10.936   0.810   4.184 -0.2277 -0.0098  0.2944
17084W        W32215   0.461  13.881   0.408 -0.0305  0.1239 -0.0233
17085W        W32216   6.104  16.508  15.003  0.2080 -0.2508  0.1302
17086W        W32217   4.812  16.336   2.580  0.0655 -0.1107 -0.0041
17087W        W32218   9.335   1.521  13.756 -0.0321 -0.1177  0.0834
17088W        W32219   8.953   9.344  14.902 -0.0481  0.0502  0.1858
17089W        W32220   0.324   5.559   4.902 -0.0248  0.0855  0.1329
17090W        W32221  10.257  16.156  11.600  0.0670  0.0739  0.3233
17091W        W32222  11.464  16.438   2.533 -0.1514 -0.0148 -0.2574
17092W        W32223  13.920  15.727   0.685  0.2912  0.0320  0.0254
17093W        W32224   1.794   0.272   3.975  0.0413 -0.3079  0.1644
17094W        W32225   0.043   0.551  14.947 -0.0758  0.2506 -0.0048
17095W        W32226   9.575   7.566   0.955 -0.0668  0.1833 -0.0605
17096W        W32227   4.114   4.886   0.599  0.5812  0.2482  0.0108
17097W        W32228   7.939  17.092  15.032  0.1424  0.3115 -0.3076
17098W        W32229  13.736   7.443  15.255 -0.0182 -0.0503 -0.1080
17099W        W32230  16.698   4.652   4.206 -0.0206 -0.0094 -0.0818
17100W        W32231  14.423   1.172  15.001  0.2286  0.4098 -0.1376
17101W        W32232  11.278   3.053  12.794 -0.0565 -0.1896 -0.1785
17102W        W32233   0.976   3.144  12.382  0.1010 -0.2587 -0.1764
17103W        W32234   6.725  10.511   3.907  0.2959  0.1480 -0.2213
17104W        W32235   7.517  11.839  11.779  0.2322  0.0124 -0.2059
17105W        W32236  14.607  11.087   1.124  0.2790  0.0434  0.1028
17106W        W32237   8.253  10.281   4.162 -0.1969  0.1030 -0.1056
17107W        W32238   9.018   8.487  10.825 -0.1893  0.2546  0.0353
17108W        W32239  16.666  12.148  13.909 -0.0247 -0.1314 -0.4559
17109W        W32240  14.448  16.558   3.129  0.0702 -0.0467 -0.0597
17110W        W32241   7.376   3.869  14.460 -0.1619  0.1349 -0.0230
17111W        W32242   5.007   3.139   0.540 -0.1152 -0.2417 -0.0521
17112W        W32243   6.820  15.858  15.550 -0.4312  0.1452  0.1607
17113W        W32244  12.037   2.078  13.442 -0.0157  0.0006  0.0063
17114W        W32245   9.802  14.754  11.938  0.3916  0.5498 -0.3018
17115W        W32246   2.727   5.944   0.982  0.0878 -0.2374  0.1353
17116W        W32247  17.807   2.353  11.845 -0.0343 -0.1361 -0.0806
17117W        W32248   5.455   3.918   0.287  0.3941  0.0189 -0.0342
17118W        W32249   1.332  14.247  11.599  0.2274 -0.1677 -0.1285
17119W        W32250   2.725   6.061   2.497  0.2049 -0.1104  0.1120
17120W        W32251  18.146  12.661   1.306  0.2304 -0.2205  0.4139
17121W        W32252   5.088  10.701   4.458 -0.0041 -0.1028 -0.1798
17122W        W32253  15.763  12.021   3.440  0.3217  0.0852  0.0198
17123W        W32254   4.065  14.093   5.250 -0.5895 -0.2054 -0.0780
17124W        W32255  16.373  10.679  12.596  0.0491  0.0997  0.3069
17125W        W32256  18.319   3.144  12.304 -0.0447 -0.1361  0.1758
17126W        W32257  10.135   8.126  12.014  0.1720 -0.2384 -0.4894
17127W        W32258  16.374   1.030   1.969  0.3579  0.0175 -0.1203
17128W        W32259  18.116   0.803   5.372 -0.0883 -0.0115  0.1697
17129W        W32260  15.279  13.428  13.690  0.1249 -0.0212  0.1089
17130W        W32261  14.552  11.554  14.392 -0.0355  0.1904  0.0355
17131W        W32262  18.165   7.183   6.537  0.2984 -0.0722  0.0603
17132W        W32263   7.048  10.828  12.959  0.0026 -0.1626 -0.0377
17133W        W32264   6.481  14.959  15.547 -0.2970 -0.1822 -0.2875
17134W        W32265  17.439   4.124   4.758  0.3349 -0.3414  0.0248
17135W        W32266  13.191  14.717  10.992  0.0624  0.1246 -0.0818
17136W        W32267   1.089  13.126   1.172  0.1656 -0.0795 -0.1720
17137W        W32268   7.361  16.848  13.958  0.0021  0.2612 -0.2785
17138W        W32269   3.571  14.933  13.539 -0.0648 -0.0297 -0.0254
17139W        W32270   3.794   6.616   3.133 -0.0494  0.0666  0.4275
17140W        W32271   7.826   4.109   0.109 -0.1005 -0.0352 -0.3289
17141W        W32272   9.600  16.975   0.167 -0.0053  0.1823 -0.0272
17142W        W32273  13.316  12.268   1.193 -0.0019  0.0646 -0.2042
17143W        W32274   0.877   6.003  14.923  0.0717  0.1055 -0.0287
17144W        W32275   7.926  14.267   3.960  0.3041 -0.1443 -0.0861
17145W        W32276  11.347   0.173   3.464 -0.2506  0.3697 -0.1009
17146W        W32277   5.860   1.198   0.844 -0.3140  0.1735  0.1768
17147W        W32278   1.378  13.466  12.818  0.3119  0.1108 -0.2807
17148W        W32279  10.877   5.041  15.200  0.1011 -0.0007 -0.1831
17149W        W32280  10.010  11.921  11.036 -0.0452 -0.1596  0.0813
17150W        W32281  16.612  15.849   3.908  0.2264  0.0707  0.0080
17151W        W32282   4.870   4.688  13.004  0.2138  0.1155  0.1653
17152W        W32283  15.094  18.100   0.125 -0.0073  0.0326 -0.2550
17153W        W32284   0.491  14.223   1.238  0.0914 -0.3322 -0.1505
17154W        W32285   6.499   2.477   1.856  0.3092  0.2435 -0.1500
17155W        W32286  11.423   1.296   2.478  0.0984  0.0357  0.0188
17156W        W32287   3.171   2.316   4.180 -0.1612 -0.2683 -0.2543
17157W        W32288   4.432  12.572  13.102  0.4630  0.5451 -0.3439
17158W        W32289   0.061  13.051   2.348 -0.0096  0.1758 -0.0597
17159W        W32290   0.063   9.987   3.824 -0.0620 -0.0601  0.1992
17160W        W32291   3.201  15.931   5.519 -0.3837 -0.0074  0.3006
17161W        W32292  16.287  11.304  10.937  0.0705  0.1078 -0.3730
17162W        W32293  13.933   7.205  13.971  0.0813 -0.2359 -0.0329
17163W        W32294   9.779   5.509  10.913  0.0539 -0.0422  0.0428
17164W        W32295   1.706   6.216   4.224  0.1323 -0.1215 -0.1258
17165W        W32296   7.082  13.922  12.839  0.0239 -0.1174  0.1631
17166W        W32297   1.043   6.821  13.790  0.1467  0.2327  0.1120
17167W        W32298   6.501   1.475   2.112 -0.0981  0.1919 -0.6060
17168W        W32299  13.928  12.731   4.884  0.2082  0.1913  0.0960
17169W        W32300  10.779  13.403  10.854 -0.2607 -0.1676 -0.0445
17170W        W32301   8.156   3.500  15.601  0.2432 -0.0722  0.0805
17171W        W32302  11.385  12.007   3.223  0.0104 -0.0614 -0.0443
17172W        W32303   5.274  10.892   4.913  0.0536  0.3169 -0.0217
17173W        W32304   5.774   4.679  12.003 -0.1733  0.0909 -0.0503
17174W        W32305   3.433   9.395  13.079  0.1501  0.1990  0.0712
17175W        W32306   2.458  17.493  12.417 -0.0874  0.0747 -0.1483
17176W        W32307   6.194  17.479   1.391 -0.1489  0.1957 -0.3068
17177W        W32308   5.187  17.022   4.006 -0.0477 -0.0666 -0.1279
17178W        W32309   0.913  10.581   0.608 -0.2648 -0.0176 -0.0769
17179W        W32310  10.837   3.126   2.626 -0.1711 -0.1114 -0.0280
17180W        W32311   1.587  16.174  14.454  0.3876  0.4167  0.0530
17181W        W32312   8.333   6.785   4.380 -0.0131 -0.1283  0.0116
17182W        W32313  11.717  17.670  12.042  0.4181  0.1865 -0.1487
17183W        W32314   8.381  13.725  12.034  0.0938  0.1890 -0.0368
17184W        W32315  16.301   4.903   0.629 -0.1669 -0.3910  0.0518
17185W        W32316   9.012   6.470  13.876 -0.1557  0.3015  0.0287
17186W        W32317  13.161  17.419  15.034 -0.2548  0.0238 -0.1801
17187W        W32318  14.153   3.386   1.741  0.0468  0.2132 -0.0003
17188W        W32319   5.308   4.981  12.182  0.0741 -0.1912  0.1997
17189W        W32320  12.242   8.472  15.420  0.2252  0.1510  0.1694
17190W        W32321   3.827   1.364   0.830 -0.2176  0.1038  0.0289
17191W        W32322   3.396   9.173  15.839 -0.0735 -0.0077  0.5202
17192W        W32323   6.514  10.908  14.753 -0.0557  0.0017  0.0457
17193W        W32324   9.100  11.000   0.413 -0.3253  0.2798 -0.1051
17194W        W32325  16.593  16.029  11.030 -0.3423 -0.0398  0.0017
17195W        W32326   3.085  11.058   2.931  0.4407  0.0926 -0.2927
17196W        W32327  17.899  17.767  15.365 -0.3544 -0.4093  0.1157
17197W        W32328   6.469  17.796  11.388  0.0801  0.0622 -0.0917
17198W        W32329   4.305  12.969   1.131 -0.2824  0.0486 -0.0374
17199W        W32330  12.971  17.094   1.616 -0.3270  0.1512 -0.1178
17200W        W32331  14.662  13.079  13.181 -0.0291  0.0979  0.3569
17201W        W32332   9.196  10.349   0.289 -0.0251 -0.2192 -0.2016
17202W        W32333   4.419  17.874   3.448 -0.0502  0.0165  0.2437
17203W        W32334   1.924   5.607  11.305 -0.0436  0.4273 -0.0596
17204W        W32335  10.365  15.738  11.321 -0.2333 -0.1570  0.0595
17205W        W32336  11.418  14.043   2.780  0.2223 -0.0734  0.1089
17206W        W32337   2.782  12.226   1.265  0.0767 -0.0481  0.1368
17207W        W32338   2.973   7.128  12.377 -0.2755 -0.0149  0.2766
17208W        W32339   9.734  14.762  11.455 -0.3117  0.4719 -0.1096
17209W        W32340   3.948  11.390  12.343  0.0038 -0.0431  0.4661
17210W        W32341   4.653   4.012   1.397 -0.1935 -0.0624  0.0975
17211W        W32342   3.769  16.503  12.815  0.0637 -0.3041  0.0686
17212W        W32343   0.452   9.876   3.540 -0.0093  0.1780 -0.2046
17213W        W32344  17.928  17.126   2.541 -0.1170  0.1088  0.1484
17214W        W32345  14.823  13.585  13.468  0.1489 -0.0926 -0.2874
17215W        W32346  12.016   2.699   4.721  0.0520  0.4437  0.0628
17216W        W32347  15.967   6.247  16.064  0.0060  0.0736  0.1969
17217W        W32348   1.585   8.778  14.762 -0.1741  0.1042 -0.4219
17218W        W32349   2.573   3.278   5.197  0.0201  0.0454  0.0214
17219W        W32350  16.725   0.779  10.329 -0.2511 -0.0194 -0.1776
17220W        W32351   5.803   1.335   5.478  0.0541 -0.1313  0.1427
17221W        W32352   4.460   0.995  12.782 -0.4171  0.1656  0.1885
17222W        W32353  14.499   9.671  12.411  0.1823  0.1878 -0.2596
17223W        W32354  14.797   6.516   0.032  0.0695  0.4420 -0.2033
17224W        W32355  15.076  14.839  15.718 -0.0435  0.1437 -0.3024
17225W        W32356   4.790   7.506   3.367 -0.1352  0.0425 -0.1998
17226W        W32357   6.303   5.641  14.240 -0.1693  0.0603  0.0078
17227W        W32358   3.933   5.331   2.986 -0.0047  0.1685 -0.1544
17228W        W32359  10.733   4.090  10.685 -0.0885 -0.1092 -0.0930
17229W        W32360  13.487  16.011   0.876  0.2251 -0.0715  0.2089
17230W        W32361  12.352   2.409   2.872 -0.1812  0.3523 -0.0858
17231W        W32362   5.334  15.443   1.454  0.2179 -0.1407 -0.0161
17232W        W32363  10.955  13.792  15.681  0.1009  0.0958 -0.1922
17233W        W32364  16.743   5.351   2.206  0.0184 -0.1048 -0.4187
17234W        W32365   4.080  10.686   0.152 -0.1358 -0.0407 -0.1107
17235W        W32366  14.300  12.240   0.273  0.3446 -0.1529 -0.4203
17236W        W32367  15.033  11.626   4.169  0.1944 -0.2639 -0.0994
17237W        W32368  16.817   1.926   3.377 -0.0852  0.1544 -0.2527
17238W        W32369  15.272  12.952  10.708 -0.0973  0.0462 -0.1399
17239W        W32370  10.582   2.041  10.703 -0.0369 -0.1651 -0.0324
17240W        W32371   4.746   7.220   1.039 -0.0609  0.3036 -0.0721
17241W        W32372   6.182  12.963   1.689 -0.2414 -0.4335 -0.1736
17242W        W32373  18.032   6.091   6.117  0.0556 -0.1727  0.0856
17243W        W32374   0.768   5.721  10.373  0.1332 -0.2202 -0.1094
17244W        W32375  13.926  17.053  11.955  0.1403  0.2138  0.1485
17245W        W32376  17.340  14.353   5.746 -0.1515 -0.0203 -0.1980
17246W        W32377  11.913  12.212  14.851  0.1866 -0.0726  0.1950
17247W        W32378   1.446  17.556  11.283 -0.0334  0.1218  0.0820
17248W        W32379  17.332  13.264  15.572  0.0992 -0.2691  0.1433
17249W        W32380   6.544   6.778  12.611 -0.1190  0.0611 -0.1834
17250W        W32381   3.450   2.517  13.116  0.0443 -0.1184 -0.2473
17251W        W32382   2.867   3.025  13.228  0.0488 -0.0212 -0.3766
17252W        W32383  10.336   3.676   3.890 -0.2001 -0.1976 -0.0136
17253W        W32384   4.106   9.733  15.716 -0.3056  0.0492  0.1152
17254W        W32385  15.338   1.950  14.963 -0.1377 -0.0034  0.1131
17255W        W32386   9.282  11.294   2.639  0.1940  0.1743 -0.1647
17256W        W32387   6.928   2.781  11.991  0.0909 -0.2246 -0.0165
17257W        W32388  11.172   0.783   2.762  0.0218  0.0218  0.1437
17258W        W32389  13.390   3.022   4.636  0.1618 -0.1888  0.2292
17259W        W32390  18.056   2.845   3.006 -0.2933 -0.1614  0.2891
17260W        W32391   6.531  15.766   1.157  0.0280  0.3450 -0.2589
17261W        W32392   7.847   6.709  12.326  0.1152 -0.0487 -0.0964
17262W        W32393  13.183   3.265   0.308 -0.2916 -0.1725 -0.0260
17263W        W32394   1.012  13.889   3.107 -0.2831 -0.2560 -0.2798
17264W        W32395  17.410   8.831  12.997 -0.4283  0.3122  0.2198
17265W        W32396   2.744   2.712   1.042 -0.0752 -0.2370 -0.0706
17266W        W32397   5.693   5.965  13.386  0.1536  0.0128 -0.0151
17267W        W32398   0.509   4.782   0.488 -0.5006  0.1937 -0.1093
17268W        W32399   3.382   5.579  11.105  0.2341 -0.1125 -0.0491
17269W        W32400  13.786  16.238   1.586  0.3026  0.2373 -0.1305
17270W        W32401  18.309  16.249  14.417  0.0701 -0.1476  0.0238
17271W        W32402  10.191  11.196   2.571 -0.0539  0.0213 -0.0118
17272W        W32403  11.238   5.132  13.104 -0.2658 -0.2470  0.1888
17273W        W32404  11.227  11.810  12.661  0.1610 -0.1808 -0.0304
17274W        W32405  16.030   1.247   5.246 -0.1517 -0.0738  0.5528
17275W        W32406   5.990  13.832  12.097  0.0639 -0.1857 -0.1199
17276W        W32407   2.239  12.968  12.044  0.1345  0.2466 -0.0504
17277W        W32408   0.741   7.153   1.674 -0.1813 -0.1065  0.1229
17278W        W32409   7.321  17.251  11.967 -0.0344 -0.1659  0.1228
17279W        W32410  17.079   6.599  14.865 -0.0124 -0.1351  0.1636
17280W        W32411  10.249   1.291  13.996  0.3676 -0.0403  0.1292
17281W        W32412   1.954   8.397  14.878 -0.3879  0.0061 -0.0201
17282W        W32413   5.736  12.281  13.911 -0.2038  0.1689 -0.1636
17283W        W32414   9.414   7.150   0.139  0.2049 -0.0944  0.1297
17284W        W32415   8.485   1.880   3.415 -0.1711 -0.0181  0.0345
17285W        W32416  14.655   1.684  14.990  0.2727  0.1118 -0.1333
17286W        W32417   2.640   8.254  10.762  0.0781  0.0592 -0.0991
17287W        W32418   8.698  10.536   4.951  0.0445 -0.4290 -0.3512
17288W        W32419  13.948  13.741   0.452 -0.0061 -0.1979  0.3175
17289W        W32420  11.825   4.408   1.360  0.2289 -0.0998  0.0273
17290W        W32421  17.019   5.046   5.014 -0.0645  0.0677 -0.3034
17291W        W32422   7.407   3.843   0.895 -0.2555  0.2339  0.0238
17292W        W32423   7.210   6.033  11.648 -0.1881 -0.1822  0.0819
17293W        W32424   0.951   5.986  13.902 -0.1162  0.2411 -0.1203
17294W        W32425   1.944  10.458   0.943 -0.0714 -0.0643  0.2583
17295W        W32426  14.583  11.261  13.119 -0.0933  0.2891  0.1676
17296W        W32427   8.949  16.432   3.516 -0.1642  0.0236 -0.2943
17297W        W32428   3.133   3.471   0.667 -0.2726 -0.4688  0.0935
17298W        W32429  13.010  12.316   5.009  0.0889  0.0012 -0.2676
17299W        W32430  11.934   4.757   2.641  0.2304  0.0849 -0.3044
17300W        W32431   0.284  14.651  11.987  0.3911  0.0839 -0.1829
17301W        W32432   3.613  15.945  15.008  0.0910  0.1156  0.0367
17302W        W32433  10.406  18.009  15.127 -0.1275 -0.0436  0.4096
17303W        W32434   7.401  11.963   2.861  0.1294 -0.1495  0.2087
17304W        W32435  12.740   0.072  11.167  0.0433  0.1163  0.3462
17305W        W32436  12.419   0.017  14.673 -0.1794 -0.1382 -0.1752
17306W        W32437  14.434   9.768   2.999 -0.1582 -0.1048 -0.0940
17307W        W32438   0.545  13.517  12.501 -0.0679  0.0540  0.3316
17308W        W32439   8.525   4.257  11.869 -0.0015  0.0012  0.2087
17309W        W32440  15.318   3.918  12.991  0.0332  0.2226  0.0176
17310W        W32441   2.682   2.555   2.587  0.0948 -0.2771  0.1178
17311W        W32442  15.843  10.524   4.059  0.2705 -0.0577 -0.3688
17312W        W32443   9.100   5.700   2.639 -0.2745 -0.1897  0.1102
17313W        W32444   1.207   9.015   2.983 -0.1716  0.1365 -0.0059
17314W        W32445   3.503  14.279   0.036 -0.0600  0.2635  0.2605
17315W        W32446  15.963  11.409   0.094 -0.1995  0.1201  0.1497
17316W        W32447  16.213  14.065   2.101  0.2417  0.2293 -0.0011
17317W        W32448  11.608  16.798   2.830  0.1297 -0.3973  0.1517
17318W        W32449   0.518   0.505  15.249 -0.1905  0.1405 -0.0961
17319W        W32450  17.517   7.131  15.005 -0.1736  0.1520  0.1484
17320W        W32451  15.707   7.513  10.670 -0.0247 -0.1948 -0.0894
17321W        W32452   9.277  13.016  15.364 -0.3354  0.1503  0.1686
17322W        W32453  12.558  10.884  14.011  0.3148  0.1771  0.2645
17323W        W32454  14.096  15.714  10.999  0.1021 -0.2430 -0.1575
17324W        W32455   3.953   2.453  12.598 -0.0847 -0.0108 -0.1795
17325W        W32456  15.140  12.849   2.351  0.0008 -0.0714  0.3663
17326W        W32457  14.839  12.331  13.776 -0.2467 -0.3887  0.1503
17327W        W32458  12.794  16.311  12.339 -0.0742 -0.1808  0.1240
17328W        W32459   5.901  11.350  12.672  0.0812  0.1209  0.1468
17329W        W32460   0.644   0.959  13.278  0.2257 -0.0802  0.1664
17330W        W32461   6.526  10.397  14.932 -0.0092 -0.1187  0.1888
17331W        W32462   5.136  13.370  14.734 -0.0677  0.2298 -0.0025
17332W        W32463  15.862  14.606  14.239 -0.0987  0.0902 -0.1748
17333W        W32464  17.085   1.449   1.660 -0.2650 -0.1015 -0.1580
17334W        W32465   5.975   7.475   0.831  0.1071  0.0544  0.1150
17335W        W32466  11.764   3.216   4.165 -0.0600 -0.0805  0.2646
17336W        W32467   0.490   7.446   0.226  0.2007  0.0354 -0.0748
17337W        W32468  13.098   0.013   5.358 -0.0524  0.0626 -0.1707
17338W        W32469   0.977  10.800   3.311 -0.0608  0.1608 -0.0266
17339W        W32470  18.312  14.053   2.399  0.0729 -0.3130 -0.3510
17340W        W32471  13.903  11.194  15.027  0.0626  0.0253  0.1338
17341W        W32472   1.046   6.673   0.157  0.3736  0.0611 -0.0669
17342W        W32473   7.537  14.078   1.006  0.0492  0.1857 -0.1184
17343W        W32474  10.073  12.775   5.224 -0.1378 -0.2290  0.1799
17344W        W32475   9.229   1.697   2.949 -0.0712 -0.0319 -0.2009
17345W        W32476  17.972  16.573  14.162 -0.1048  0.0624  0.1892
17346W        W32477  18.031  15.061   3.585 -0.1646 -0.1415 -0.2760
17347W        W32478  14.692   9.058  14.739  0.4604 -0.0952 -0.1345
17348W        W32479  15.162   3.386   4.309 -0.1670  0.0116 -0.2284
17349W        W32480  12.311   4.904  11.955  0.1880 -0.0839  0.2496
17350W        W32481   3.183   6.061   0.717 -0.2631 -0.0238  0.0844
17351W        W32482   1.106  12.859  13.485 -0.0419  0.5199 -0.1050
17352W        W32483   3.342   5.232   0.317 -0.0040  0.2498 -0.0979
17353W        W32484   1.069   6.262   1.412 -0.0496 -0.3382  0.2206
17354W        W32485  14.807   3.365  12.556 -0.0675  0.1565 -0.0760
17355W        W32486   7.592   8.462  10.785  0.4864  0.2103  0.2254
17356W        W32487   9.801  16.980  11.621  0.1089  0.1262 -0.0781
17357W        W32488  13.797   6.003  13.454  0.3766 -0.0208 -0.0674
17358W        W32489   9.138   8.109   1.974 -0.0774 -0.1356 -0.2025
17359W        W32490  13.398   4.082  14.044  0.1817 -0.0752 -0.3346
17360W        W32491  13.249   1.486   4.449 -0.0995 -0.1803 -0.1573
17361W        W32492   2.862  13.035  11.712 -0.1207 -0.1856 -0.2523
17362W        W32493  18.093  10.263   0.061  0.0497  0.0351  0.2205
17363W        W32494   4.977  10.025  14.269 -0.1037  0.0599 -0.0024
17364W        W32495   6.279   9.147  12.827  0.0823  0.1853  0.2688
17365W        W32496  18.030   0.374   2.011 -0.4012 -0.2250 -0.2766
17366W        W32497   7.141   4.507  13.772  0.0455  0.3052  0.0410
17367W        W32498   5.745  16.225  14.966  0.0179 -0.0109 -0.1133
17368W        W32499   3.119   2.080  13.024 -0.2853  0.0967  0.0700
17369W        W32500   9.613  10.966   5.492  0.0469 -0.0463  0.0060
17370W        W32501  16.694   2.952  12.493 -0.1518  0.0164  0.0284
17371W        W32502   7.327   2.572   4.884  0.1093  0.0300  0.0051
17372W        W32503  17.671   7.967  11.286 -0.3332  0.2745 -0.1484
17373W        W32504   4.328  17.076  15.065 -0.1041  0.0210 -0.4911
17374W        W32505   6.668   7.463  13.496 -0.0529 -0.0964 -0.0485
17375W        W32506   9.349   9.712  15.846  0.0372  0.2219 -0.1881
17376W        W32507   1.606   3.159   0.704 -0.0546 -0.1413 -0.0594
17377W        W32508  11.226   9.386   0.915  0.2451 -0.1455  0.1396
17378W        W32509   8.724   1.790   3.861 -0.0153  0.0744  0.0953
17379W        W32510  14.059   7.613  15.653 -0.0725 -0.1833  0.1830
17380W        W32511  10.153   9.906  11.630 -0.2094 -0.1877  0.0494
17381W        W32512   7.109   6.277   2.052 -0.1042  0.0085 -0.0817
17382W        W32513  17.593  13.087   3.626  0.3875  0.1097 -0.2311
17383W        W32514   0.635  17.348  12.239 -0.0232  0.1296  0.0325
17384W        W32515  14.063  13.422   3.686 -0.2076  0.0832  0.0538
17385W        W32516   0.474   1.863  13.693 -0.1526  0.0559 -0.0471
17386W        W32517  17.905   7.001   4.251  0.0647 -0.0519 -0.2820
17387W        W32518  17.873   1.394   4.518  0.1102 -0.2797 -0.0527
17388W        W32519   7.830   3.986   4.272  0.0864 -0.1419 -0.0309
17389W        W32520  16.141   3.453  15.568  0.1364 -0.0304 -0.0708
17390W        W32521  16.375  16.102  12.749  0.2543 -0.4625 -0.0724
17391W        W32522   4.175  15.728  11.194 -0.1765  0.1759  0.0307
17392W        W32523   1.717  15.715  12.168 -0.3682 -0.1356 -0.3761
17393W        W32524   5.724  15.285   2.328 -0.1028 -0.1227 -0.1353
17394W        W32525  14.944   1.102   0.024 -0.0252 -0.3343  0.1468
17395W        W32526  13.488   7.842  12.776  0.3794  0.2754 -0.0023
17396W        W32527   4.132   8.799  15.955 -0.0027  0.2363 -0.4455
17397W        W32528  16.391   7.577   4.111 -0.1316  0.0163 -0.2062
17398W        W32529   2.754   4.204  11.486 -0.0414 -0.0752  0.0916
17399W        W32530  12.961   6.500   3.863  0.0675  0.0049 -0.1101
17400W        W32531   6.343   5.332  10.835  0.0094  0.0839 -0.1414
17401W        W32532   5.614  17.354  14.686  0.0446  0.2178  0.1842
17402W        W32533  14.890  17.633   3.122  0.1467 -0.1693  0.1026
17403W        W32534  10.493   5.174   2.840 -0.0404  0.0191  0.0241
17404W        W32535   1.387  16.203   1.139  0.1283 -0.0527 -0.1139
17405W        W32536  10.375   5.896   4.286 -0.1385  0.0332 -0.1387
17406W        W32537   5.687   4.148   1.327 -0.1940 -0.1919  0.0243
17407W        W32538   1.231  11.718   4.846  0.0730 -0.0393 -0.2032
17408W        W32539   2.770   3.530   3.759  0.0008  0.1942 -0.0855
17409W        W32540   4.886  10.335  14.691 -0.1321  0.2718  0.1048
17410W        W32541   4.295   8.552  13.600  0.0313 -0.2176  0.2135
17411W        W32542   6.350  14.045   3.663 -0.1151  0.2055  0.2103
17412W        W32543   4.845  12.970   1.590 -0.1847 -0.0525  0.1951
17413W        W32544  17.452   3.455   4.540  0.0035  0.3110  0.0392
17414W        W32545  13.554  16.365   3.849  0.4003  0.0945  0.1659
17415W        W32546  16.148   1.363   3.085  0.0790 -0.0455 -0.0301
17416W        W32547   3.013  18.295  15.511 -0.0701  0.0327 -0.0547
17417W        W32548   0.452   0.883  14.768  0.4990  0.0696  0.0465
17418W        W32549  13.450  14.315  14.389  0.1750  0.1756 -0.1866
17419W        W32550   0.450   7.713  11.080 -0.3044 -0.1611  0.0449
17420W        W32551  12.513  11.492   4.468 -0.2099  0.1416 -0.0160
17421W        W32552   1.611   0.594   3.635 -0.1849  0.2293  0.3175
17422W        W32553   6.134   4.778  13.254 -0.2165  0.2327  0.0949
17423W        W32554   2.492  12.180  16.046  0.1101  0.2434  0.1167
17424W        W32555  15.364   4.234  14.624 -0.0296 -0.0397  0.1241
17425W        W32556  13.861   0.540   1.933 -0.0477 -0.0498 -0.0639
17426W        W32557  17.853   6.289  15.514  0.2156  0.1120  0.1204
17427W        W32558   5.097  10.740   3.260 -0.0905 -0.0667  0.1001
17428W        W32559  15.079   7.421   5.666  0.3969 -0.0660  0.0302
17429W        W32560  12.321   1.400   2.669 -0.3647 -0.3849 -0.0733
17430W        W32561   6.241   6.301   2.683 -0.0219  0.0978  0.1281
17431W        W32562   6.484  11.486  13.355  0.5638 -0.3028  0.2581
17432W        W32563   2.803   2.162   2.940 -0.0344 -0.3451  0.1030
17433W        W32564   3.201   7.307   2.940  0.1487 -0.1288 -0.2487
17434W        W32565   7.209   3.654   0.474 -0.0313 -0.2119 -0.0002
17435W        W32566   5.659   4.320  10.689 -0.1789 -0.1998  0.1990
17436W        W32567   0.686   3.107  11.518 -0.0275  0.0844  0.3108
17437W        W32568  17.909   1.627   3.594 -0.0178  0.0026 -0.0539
17438W        W32569   1.879   3.885   5.405  0.1854 -0.1954 -0.3131
17439W        W32570   0.253   7.709   0.643  0.0718  0.1370  0.0011
17440W        W32571   6.392   9.352  14.612 -0.1485  0.0818  0.1510
17441W        W32572  12.696   5.766  13.345  0.0606 -0.0748  0.0469
17442W        W32573  15.831  15.946  11.647 -0.0832 -0.1825  0.1672
17443W        W32574   6.268   2.754  14.127  0.0730 -0.1262 -0.0576
17444W        W32575   6.559  17.564  13.319 -0.4196  0.4531  0.0377
17445W        W32576  17.263   5.101   3.658 -0.2582 -0.0789  0.0679
17446W        W32577   9.262   3.604   5.380  0.0448  0.2281  0.0626
17447W        W32578  14.811  18.306   3.429 -0.1435 -0.0889 -0.1563
17448W        W32579  17.499   5.227   4.087  0.3360  0.0457  0.1032
17449W        W32580  14.239  11.504   4.142 -0.2716 -0.0748  0.0729
17450W        W32581   7.547  15.834   5.632  0.2904  0.0396  0.0287
17451W        W32582   5.555   0.371   5.525  0.1507 -0.2900 -0.3140
17452W        W32583   8.950   2.730  12.600  0.2685  0.1684  0.1508
17453W        W32584  10.726   7.746   0.366 -0.2330  0.2586  0.0610
17454W        W32585   9.809   5.465   1.559  0.0825 -0.0724  0.0512
17455W        W32586  16.847  11.747   0.277 -0.0397 -0.1264 -0.0261
17456W        W32587   4.890  11.031   1.473 -0.0014 -0.1865  0.0128
17457W        W32588  12.227  10.599  11.934  0.1888  0.1516 -0.0419
17458W        W32589   1.225   2.375   5.149 -0.0612 -0.5553  0.1344
17459W        W32590  14.649  16.689  14.577 -0.0642  0.1566  0.1857
17460W        W32591   1.340  17.210  14.948  0.0294 -0.0931 -0.0326
17461W        W32592   8.495   3.069  14.239 -0.2727 -0.3871 -0.0048
17462W        W32593   8.482  11.538  11.405  0.2485 -0.0551  0.3279
17463W        W32594  15.566  16.237  13.249 -0.0636  0.1750  0.1111
17464W        W32595   3.420   8.395   1.892 -0.0236 -0.1874  0.2370
17465W        W32596  13.858  10.993  13.626 -0.0280 -0.0181  0.1628
17466W        W32597   6.030  18.294  13.106 -0.1138  0.1123 -0.5388
17467W        W32598   1.554  14.110  13.578  0.0031  0.3034  0.0906
17468W        W32599   1.148  14.306  12.492  0.0231 -0.2032 -0.1045
17469W        W32600   3.223   2.014   3.734 -0.3586  0.1691 -0.2121
17470W        W32601   1.049   9.018   1.114 -0.2141  0.0948  0.2125
17471W        W32602   3.246  12.660  10.544 -0.0319 -0.2596  0.0009
17472W        W32603  12.679   1.551  10.469 -0.2117 -0.0033  0.1071
17473W        W32604   2.593  14.600   0.249 -0.2962 -0.2393 -0.0076
17474W        W32605  15.077   5.132  12.495 -0.0893 -0.0749 -0.1955
17475W        W32606   0.301  13.314  13.463 -0.2252  0.0227  0.1413
17476W        W32607   5.563  13.105  14.663  0.0321 -0.0501  0.1817
17477W        W32608   3.540  17.822  16.081  0.3458  0.1074 -0.1297
17478W        W32609  13.433  11.267  13.653  0.2147 -0.1593  0.1675
17479W        W32610  11.007  14.121  11.319 -0.2255 -0.0796 -0.0050
17480W        W32611   7.956   8.012  15.209 -0.0262  0.1343 -0.2885
17481W        W32612   3.004   8.532   1.553 -0.1303  0.0610  0.1084
17482W        W32613  11.004   6.501   3.636  0.2315 -0.5064  0.0624
17483W        W32614   1.683   7.371   5.787 -0.1715  0.1299  0.0044
17484W        W32615  13.831   5.903   2.339  0.3799 -0.1477 -0.1287
17485W        W32616  13.333   1.070  14.156 -0.2435  0.1977 -0.1433
17486W        W32617  11.869  12.995  12.959  0.1444  0.1761  0.0535
17487W        W32618  18.110   2.182   0.441  0.0092  0.0137  0.1491
17488W        W32619  11.661   8.409   2.663  0.1102 -0.3808  0.1208
17489W        W32620  10.202  11.754  12.415 -0.4129  0.2381  0.0992
17490W        W32621  11.568  17.045  14.147 -0.1209 -0.1080  0.1645
17491W        W32622   5.317   8.640   2.605  0.0922  0.1358  0.0340
17492W        W32623   8.752   6.346  10.968 -0.1666 -0.2972  0.0830
17493W        W32624  12.862   2.387  12.420 -0.2809 -0.0681  0.1408
17494W        W32625   1.492   0.495   1.378  0.1533 -0.1018  0.1383
17495W        W32626   7.247  15.250  11.137  0.0267  0.0007  0.0033
17496W        W32627   1.544   1.224  12.348 -0.0531  0.1332 -0.2175
17497W        W32628  14.527   4.133  14.236 -0.0392 -0.1521  0.0632
17498W        W32629  12.418  12.215   5.053 -0.1557  0.0248 -0.4803
17499W        W32630   0.270   0.210   4.038 -0.0284  0.0990 -0.1659
17500W        W32631  15.266  11.160  13.651  0.0501  0.2253 -0.0369
17501W        W32632   2.458  13.989  14.283 -0.1868 -0.1804  0.1456
17502W        W32633  12.840   5.410  11.971 -0.1011  0.0220  0.2249
17503W        W32634   7.377   5.258  12.130  0.0771 -0.3946 -0.0283
17504W        W32635  13.746   1.189  11.257  0.0670  0.1695  0.1592
17505W        W32636  16.504  17.603  16.016  0.0787  0.0581  0.0719
17506W        W32637   0.361   7.149   2.023 -0.2411 -0.1173 -0.3947
17507W        W32638  16.978  17.886   4.820 -0.0641  0.5446  0.1658
17508W        W32639   8.106   6.776  14.747 -0.0334  0.2259 -0.4636
17509W        W32640   3.967  14.199  11.702 -0.0701 -0.2908  0.1093
17510W        W32641   2.910   9.189  15.593 -0.0506  0.1714  0.1411
17511W        W32642   3.798   4.782  10.774  0.1918 -0.1644  0.2684
17512W        W32643   2.463  10.946   0.179  0.0339 -0.4445  0.2209
17513W        W32644   9.743   3.332  14.259  0.1628 -0.1337  0.1019
17514W        W32645   8.206   4.839   5.122 -0.1339  0.1739 -0.0436
17515W        W32646  17.264   3.262   3.633 -0.2201  0.2412 -0.4006
17516W        W32647   2.099   4.760   0.717 -0.1292 -0.2210 -0.0917
17517W        W32648  12.094   6.675   4.343  0.1132 -0.0399 -0.1281
17518W        W32649   5.120  13.793   1.242 -0.1758  0.0331  0.0630
17519W        W32650   9.772  18.180  12.861 -0.2418 -0.0731 -0.2816
17520W        W32651   1.672  16.581  14.711  0.0523  0.2207  0.2324
17521W        W32652  11.999  11.728   4.523  0.1616  0.0423 -0.0740
17522W        W32653  12.325   6.151  14.042 -0.2397  0.1788 -0.1166
17523W        W32654  13.393   3.317  11.622  0.1204 -0.1584  0.4406
17524W        W32655   1.189  17.911   2.222 -0.0241 -0.0448 -0.1796
17525W        W32656  11.880   1.931   4.055  0.4364  0.0552  0.5677
17526W        W32657   2.422   3.681   5.569 -0.0553 -0.4001  0.1255
17527W        W32658   6.520   1.818   2.512 -0.0828 -0.3919 -0.0012
17528W        W32659   9.817  16.723  10.437 -0.0645 -0.1255  0.1997
17529W        W32660  15.718  10.838  13.548 -0.0263 -0.0730  0.2570
17530W        W32661   3.593   3.707  16.096 -0.0180 -0.1584 -0.1714
17531W        W32662  10.686   6.225  14.632  0.2840 -0.2335  0.0939
17532W        W32663  11.193   3.929  14.097 -0.0356 -0.0222  0.1133
17533W        W32664  10.080   2.031  14.295 -0.1158  0.0347  0.0166
17534W        W32665   5.216  11.515  11.989  0.0959 -0.0977  0.1111
17535W        W32666  11.661   9.839   2.073  0.2733  0.0061  0.0063
17536W        W32667  13.643   1.850   4.716  0.6427 -0.0126 -0.2290
17537W        W32668  17.692   9.656  11.391  0.0629 -0.0115 -0.2775
17538W        W32669  11.895   4.098   2.329  0.1525 -0.2003  0.1167
17539W        W32670  16.738   5.156  14.067 -0.1246 -0.3389  0.0144
17540W        W32671  17.245  17.853  11.585 -0.0881 -0.2825 -0.0738
17541W        W32672   9.243   1.892  15.491 -0.0853 -0.0720 -0.3232
17542W        W32673  15.995   4.292  13.859 -0.0142  0.1736 -0.2071
17543W        W32674  11.757   4.117   9.842 -0.1749 -0.1036  0.1866
17544W        W32675   3.811   4.206   5.244  0.0680 -0.0390 -0.1157
17545W        W32676  14.998   1.745  13.258  0.1755  0.0170 -0.0018
17546W        W32677  15.768   6.292   2.199  0.0907 -0.1598  0.0860
17547W        W32678   6.951  12.514  15.309  0.2382 -0.0744  0.0152
17548W        W32679   0.654   4.701  13.740 -0.0132 -0.2443 -0.2292
17549W        W32680   3.512   2.519   2.258 -0.0839  0.1880  0.0573
17550W        W32681  13.867   3.168   2.161  0.0494 -0.2938 -0.1065
17551W        W32682   7.475  11.881  15.789  0.5168  0.3904 -0.2613
17552W        W32683  10.785   7.575   4.172  0.0071  0.2779  0.0769
17553W        W32684   8.647  13.886  15.079  0.2568  0.1000 -0.0978
17554W        W32685  12.317   1.313   4.678  0.2518 -0.0755 -0.0863
17555W        W32686   7.357   7.967  10.699  0.3245  0.1381  0.1119
17556W        W32687  11.877  10.267  12.117  0.0152  0.0481  0.0483
17557W        W32688  16.567  16.325  13.157 -0.0658  0.0949  0.0762
17558W        W32689  12.814  14.064   3.831  0.2541  0.1124  0.1574
17559W        W32690   6.555   2.734   2.765 -0.0043  0.0364  0.1906
17560W        W32691  14.201   3.858   4.715  0.0455  0.2813  0.1062
17561W        W32692  16.056   8.248  12.489  0.1832  0.1329 -0.0663
17562W        W32693  14.734   1.067  12.205  0.0950 -0.0194  0.0636
17563W        W32694  17.660   1.020   5.823  0.2186 -0.0383  0.2019
17564W        W32695   5.418   0.874  13.118  0.0018  0.1639 -0.0755
17565W        W32696   8.563  10.367  13.216  0.0508 -0.1374 -0.0087
17566W        W32697   3.078   9.591  11.625 -0.0315 -0.1886  0.1451
17567W        W32698   5.048   7.594   4.408  0.2106  0.0060  0.1213
17568W        W32699   6.772   5.010  11.330 -0.1935  0.0253 -0.2281
17569W        W32700  15.425   7.239   4.683  0.1315  0.2413  0.2718
17570W        W32701  17.824  10.221   3.517 -0.0423  0.1069 -0.3962
17571W        W32702   5.150   5.740   3.338  0.1514  0.4163  0.3052
17572W        W32703  10.445   6.008   2.653  0.1583  0.1287 -0.1407
17573W        W32704  17.634  17.032  11.531  0.3354 -0.1049  0.1781
17574W        W32705   1.989  14.368  13.732 -0.3727  0.3560  0.1927
17575W        W32706   2.717   5.020  11.191 -0.2413 -0.0925  0.0689
17576W        W32707  14.307  18.094   4.368 -0.0414  0.0902 -0.1128
17577W        W32708   7.319   1.329  13.863 -0.0642 -0.0563 -0.1227
17578W        W32709   1.394  16.917   5.999 -0.2430  0.3734  0.3227
17579W        W32710  16.737   7.794   3.836  0.0885  0.1076  0.2330
17580W        W32711   1.389   6.394  13.647 -0.0868  0.2212 -0.1376
17581W        W32712  10.062   8.570  10.843 -0.0202  0.1325  0.3066
17582W        W32713   7.735   2.326   5.135 -0.0886 -0.2698  0.0377
17583W        W32714  11.684   6.768  13.525  0.2430 -0.1430  0.3556
17584W        W32715  12.778   5.818  11.151 -0.1678 -0.3196 -0.0830
17585W        W32716  13.588  12.803   0.408  0.0150 -0.0806  0.1232
17586W        W32717  15.281   7.894   1.492 -0.3491  0.0607  0.0888
17587W        W32718   7.852   3.304   2.835  0.2980  0.1605  0.0169
17588W        W32719  11.038   6.642   2.255 -0.1668  0.0551 -0.0432
17589W        W32720   0.828  10.282   2.669 -0.0781 -0.3418 -0.0871
17590W        W32721   9.353  14.368  14.704  0.1608  0.0832 -0.0980
17591W        W32722   9.203  13.767  12.440  0.2701  0.0903 -0.0791
17592W        W32723   2.856   7.609   0.285 -0.0481  0.2465  0.0815
17593W        W32724  15.726   5.456  13.152 -0.3207 -0.0351 -0.1205
17594W        W32725  16.270  13.640   4.070  0.1165 -0.0294 -0.0687
17595W        W32726   4.244  18.066   6.498 -0.0605  0.0125 -0.3149
17596W        W32727   5.057   7.427   1.990  0.1199 -0.0634 -0.1108
17597W        W32728  14.931  10.229  15.177  0.0259 -0.3320  0.1599
17598W        W32729   1.399  12.291  14.152 -0.0691  0.1437  0.0342
17599W        W32730  13.813   2.549   0.254 -0.0278 -0.0561 -0.0589
17600W        W32731  11.502   9.916  12.411 -0.2863  0.2350 -0.0260
17601W        W32732   0.499   7.660   1.866  0.0905  0.2928  0.3816
17602W        W32733  11.585  16.056  12.853  0.0890 -0.1405 -0.2940
17603W        W32734   4.489  11.471   4.819  0.3630  0.2850  0.1457
17604W        W32735  10.560  14.958   0.119  0.2217 -0.3178 -0.2361
17605W        W32736  18.077  14.655   4.905  0.3896  0.3223  0.1344
17606W        W32737  12.131   8.761   3.314  0.1364  0.3302  0.0211
17607W        W32738   9.574   8.924   1.039 -0.0468  0.1416  0.1041
17608W        W32739   9.821  12.578   1.769 -0.2343  0.1193  0.3015
17609W        W32740   0.003   7.252   0.472 -0.1396 -0.2500  0.1441
17610W        W32741  13.704   9.151   3.943 -0.0137  0.3007  0.0954
17611W        W32742  12.028   7.559  11.136  0.0887  0.1558  0.2626
17612W        W32743   1.144  15.149  13.520  0.0072 -0.2903 -0.0617
17613W        W32744  18.296   1.699   4.613  0.1172  0.2099 -0.2646
17614W        W32745   6.916   9.767  14.548  0.0323 -0.0801 -0.1788
17615W        W32746   5.174  14.695   4.324  0.2060  0.0043 -0.1436
17616W        W32747  16.952   9.690  12.629  0.1466  0.1249 -0.2377
17617W        W32748  14.635   5.320  11.469 -0.1947 -0.0202 -0.1621
17618W        W32749   2.577  15.444   2.589  0.1525  0.0552  0.0438
17619W        W32750   7.191   4.157  14.849 -0.0819 -0.1193 -0.0221
17620W        W32751  10.354  12.934   2.141 -0.1674  0.2442  0.0178
17621W        W32752   6.494   9.969   1.685  0.0244 -0.2455 -0.2486
17622W        W32753   3.460   8.427   0.322 -0.2156 -0.1475 -0.1003
17623W        W32754  12.170  17.926   3.492  0.2079  0.1159 -0.1760
17624W        W32755   0.816   4.723  12.854  0.0600  0.0290  0.2580
17625W        W32756  15.840   8.562  15.867  0.1684 -0.1605 -0.1437
17626W        W32757   1.109  14.831   3.257 -0.2486 -0.1394  0.0218
17627W        W32758   0.432  15.363  14.803  0.3273 -0.2315  0.2945
17628W        W32759  11.291  18.322  15.317  0.0245  0.2648 -0.0428
17629W        W32760   5.745  14.245   0.715  0.1323  0.1398  0.1714
17630W        W32761   5.697  13.245  12.475  0.1406 -0.2386 -0.0531
17631W        W32762  12.304  15.982  12.080  0.2901  0.3536  0.1158
17632W        W32763   3.702  18.051   3.114 -0.2025 -0.0476  0.0377
17633W        W32764  12.463   0.389   1.670 -0.0048  0.0958 -0.0938
17634W        W32765   3.186  10.795   3.956  0.3204  0.0562 -0.4186
17635W        W32766  11.302   9.633  11.593 -0.0185  0.1764 -0.0613
17636W        W32767   8.025  16.319  15.921  0.2449  0.0329  0.1954
17637W        W32768   8.307  15.679  15.001 -0.0256 -0.1919 -0.1379
17638W        W32769  17.381  15.700   4.983 -0.1150 -0.0836  0.0556
17639W        W32770   4.218  17.700  12.070  0.0498  0.2757 -0.3233
17640W        W32771   4.878   2.603   4.330  0.0599  0.2042  0.1403
17641W        W32772   8.175   0.865   5.870  0.3261  0.0315 -0.0524
17642W        W32773   3.388   6.112  15.950 -0.1555 -0.1792 -0.3876
17643W        W32774  10.132   5.455  10.140  0.2335 -0.0005 -0.3035
17644W        W32775   5.540   2.891  15.094  0.1327 -0.1919 -0.1203
17645W        W32776  15.608  14.588  11.830 -0.2788  0.2346 -0.1185
17646W        W32777   0.301  12.102   1.282 -0.0364  0.3205  0.0662
17647W        W32778   6.875  10.493   3.041 -0.2340  0.0393  0.0137
17648W        W32779   5.085   8.655  14.010  0.1486  0.0085 -0.0090
17649W        W32780  15.846  11.158  10.662 -0.0512  0.1184  0.1196
17650W        W32781   7.841  11.147  13.154  0.1005 -0.0334  0.4099
17651W        W32782  15.793  18.179   5.024 -0.3606  0.0393  0.3074
17652W        W32783   0.009   5.073   3.401  0.2492 -0.3204 -0.0911
17653W        W32784   9.433  16.910   3.058 -0.3459  0.2983  0.0503
17654W        W32785   8.702   2.358   4.641  0.0749 -0.1709 -0.0406
17655W        W32786  12.446  10.524   4.013  0.2312 -0.2079  0.0695
17656W        W32787   6.866  16.074   2.632 -0.2251  0.0662  0.0111
17657W        W32788   5.855  15.938   3.539  0.1956  0.1510  0.1104
17658W        W32789   9.702  10.770  13.347 -0.0542  0.1998 -0.4338
17659W        W32790   4.125  16.919  14.616  0.0927  0.0817  0.0572
17660W        W32791  15.538  17.393   2.124 -0.0904 -0.2411 -0.1811
17661W        W32792   8.590  11.890  12.495 -0.1966  0.0498  0.0065
17662W        W32793  17.358  14.551   1.623  0.1151  0.1101 -0.1041
17663W        W32794  14.824  16.940  11.061 -0.1352  0.0164 -0.0111
17664W        W32795   1.807   1.749   4.062 -0.0946 -0.0817  0.1022
17665W        W32796   1.740   4.618  13.666  0.3538 -0.2417  0.3372
17666W        W32797  17.054   4.577   2.073  0.0873  0.1114  0.1689
17667W        W32798   4.579   6.690  14.588  0.0917  0.0960  0.3613
17668W        W32799   9.358  17.529   2.787  0.0233  0.1113  0.0926
17669W        W32800  14.208   3.179  13.997  0.0582  0.2306  0.2853
17670W        W32801  10.074  16.254  14.975  0.3131  0.2194 -0.4124
17671W        W32802  16.632  13.264   1.665  0.3519 -0.0643  0.0714
17672W        W32803   7.081   1.338   0.418  0.1883  0.3798  0.2603
17673W        W32804   8.169   4.160   1.509 -0.3411  0.0489 -0.2177
17674W        W32805  17.730  13.524  11.487 -0.0655  0.2383 -0.1883
17675W        W32806  11.583   5.671  12.961 -0.1743 -0.1266 -0.0887
17676W        W32807   0.913  14.540   1.280 -0.3015 -0.2367  0.1802
17677W        W32808   5.441  18.245  12.050 -0.1617  0.0624 -0.0443
17678W        W32809   5.052   3.342   3.706 -0.0644 -0.0182  0.3056
17679W        W32810  14.409  12.268  11.611 -0.1689 -0.1793  0.0486
17680W        W32811  14.617   9.132   4.626 -0.2881 -0.2802 -0.2878
17681W        W32812   6.556  17.929   0.115 -0.1296  0.1557 -0.0601
17682W        W32813   6.319  11.772  15.218 -0.1680 -0.2227 -0.2071
17683W        W32814  11.397   9.193   0.420  0.0603  0.1451  0.0629
17684W        W32815   6.168   7.021  15.753  0.0985 -0.1682 -0.1902
17685W        W32816   0.964  14.893   4.930 -0.0306 -0.2900 -0.2389
17686W        W32817  15.861  15.199  10.876  0.0545 -0.1939 -0.2553
17687W        W32818  14.330   6.746  14.032 -0.0516 -0.0841  0.0614
17688W        W32819   7.264   7.467   3.632 -0.1376  0.1300 -0.3003
17689W        W32820  15.688   6.728  14.311 -0.0047 -0.1041  0.0165
17690W        W32821   9.351   1.535   9.772 -0.0014  0.0003  0.0204
17691W        W32822  11.900   8.956   1.133 -0.0741  0.1562 -0.0907
17692W        W32823   1.123  15.123  11.433  0.0265  0.1861  0.0911
17693W        W32824  10.753   5.908   1.767 -0.0196  0.0383 -0.2342
17694W        W32825   9.790   2.118  11.057  0.0528 -0.2498  0.1107
17695W        W32826  17.460  10.294   3.178  0.0060  0.0075  0.0537
17696W        W32827  11.629   3.402   2.237  0.1248 -0.2126  0.1704
17697W        W32828  10.155  17.906  16.079  0.0250  0.1739  0.0091
17698W        W32829  12.068  10.593  11.451  0.2008  0.0554  0.1972
17699W        W32830   0.900   1.251  15.671 -0.2429 -0.2646  0.2964
17700W        W32831   4.587  14.971  13.983 -0.2660  0.0246 -0.3408
17701W        W32832   9.997  14.195   0.550 -0.2329 -0.1563 -0.2853
17702W        W32833   7.370   3.277   2.964 -0.2889  0.4472  0.0350
17703W        W32834   2.201   9.847   4.500  0.1669  0.2451 -0.0441
17704W        W32835  12.432  13.717  14.210  0.1541  0.0912  0.2248
17705W        W32836   1.843  13.042  13.908  0.1808  0.1338  0.1152
17706W        W32837   0.755   2.492   1.392  0.1359  0.0985 -0.0198
17707W        W32838   6.257  18.146  14.234  0.1682  0.1167 -0.1453
17708W        W32839  14.432   4.430  13.232 -0.0480  0.2349  0.0898
17709W        W32840  10.192  17.894   3.075  0.2337 -0.1801 -0.0505
17710W        W32841  11.460   3.954   1.193  0.0248 -0.0582  0.0899
17711W        W32842  11.076   4.751   4.415  0.1985 -0.2474  0.2528
17712W        W32843  10.170   2.983  14.308 -0.2853 -0.0682  0.1914
17713W        W32844   9.644   1.189  14.301 -0.0649 -0.2856 -0.1139
17714W        W32845   4.835   6.809   0.781  0.2517 -0.0370  0.2785
17715W        W32846  12.956   7.395   2.392  0.2963  0.3962  0.2396
17716W        W32847   4.876   1.149  12.443  0.1005  0.2840  0.0367
17717W        W32848   8.839  15.849   1.255 -0.1358 -0.0802 -0.1169
17718W        W32849  13.922  14.900   0.976 -0.1237  0.1113  0.0622
17719W        W32850  14.398   6.105  14.670 -0.1238  0.3583 -0.3260
17720W        W32851  18.075  14.751  11.256 -0.1223  0.0805 -0.1447
17721W        W32852   5.597   0.968   3.731  0.0268  0.3148 -0.0499
17722W        W32853   1.833  10.359  13.641 -0.0368 -0.1875  0.0245
17723W        W32854   1.064   7.806  15.232  0.0747 -0.0438 -0.2144
17724W        W32855  16.172  17.717  14.987  0.0622  0.2521  0.3971
17725W        W32856   9.876   9.849  12.111 -0.3334 -0.1515 -0.0698
17726W        W32857   7.937   6.614   4.688 -0.1058 -0.1454 -0.0945
17727W        W32858   8.201   8.140   2.483  0.0968  0.1607 -0.2972
17728W        W32859   1.276   4.602   2.007  0.0316  0.1886 -0.0523
17729W        W32860   2.137   2.245   0.853 -0.2576  0.0871 -0.2550
17730W        W32861  14.341   0.911  12.556  0.0632 -0.0232 -0.6005
17731W        W32862  10.581  12.674  11.465 -0.0565 -0.2359 -0.1719
17732W        W32863   7.185  16.787   3.494  0.3506  0.0198  0.2868
17733W        W32864  17.043  16.155  12.286  0.0874  0.0335  0.1471
17734W        W32865   1.625  17.034  12.215  0.0469  0.1540 -0.2713
17735W        W32866   0.341  10.422   4.942  0.0335 -0.0394 -0.1469
17736W        W32867   0.855   3.519  11.978  0.0158  0.0650 -0.4175
17737W        W32868  11.367   5.781  14.296 -0.2851  0.0180 -0.1200
17738W        W32869   4.029   8.927   1.544 -0.0273 -0.1963  0.0864
17739W        W32870  15.194  17.063   2.363  0.2879 -0.1923 -0.1658
17740W        W32871   3.098   3.169   4.390  0.0642  0.1529 -0.2203
17741W        W32872  10.770   2.686   4.263 -0.1650  0.2653 -0.1263
17742W        W32873  12.343  17.030  15.070  0.2225 -0.1570 -0.1349
17743W        W32874   3.467   5.844   4.543 -0.0471 -0.3008  0.0890
17744W        W32875   4.696   1.579   3.231  0.0005 -0.1421  0.1175
17745W        W32876  16.905  16.285  16.090  0.1635 -0.0314  0.0179
17746W        W32877  14.281   4.660  10.723  0.3123  0.0897 -0.2477
17747W        W32878  11.223   3.588  12.850 -0.3974 -0.1164  0.1956
17748W        W32879  10.937   7.816  15.470 -0.0349 -0.0807  0.1505
17749W        W32880  18.060   4.613   5.675  0.0815  0.0152 -0.2319
17750W        W32881   6.620  17.204   1.536 -0.1473  0.2791  0.3857
17751W        W32882   8.386   4.888   2.523  0.1205  0.1511  0.1189
17752W        W32883  18.039  13.642   4.647  0.5410  0.1350  0.1498
17753W        W32884   5.631   6.789  13.960  0.1107  0.0246 -0.2594
17754W        W32885  10.380  17.124  15.208  0.0334 -0.2049  0.1199
17755W        W32886   6.005  13.048  15.533  0.0296  0.3024  0.0366
17756W        W32887   7.744   8.900  10.909  0.1005 -0.1892 -0.3491
17757W        W32888  12.673  15.875   4.746 -0.2282  0.0638  0.0248
17758W        W32889  18.173  11.666   4.469  0.1986  0.2823  0.1656
17759W        W32890  12.200   5.756   2.505 -0.1819 -0.1525 -0.4226
17760W        W32891  12.262   5.368  11.672 -0.0331  0.0228  0.0348
17761W        W32892  11.151  12.703   1.521 -0.2079 -0.0240  0.0706
17762W        W32893   4.995   6.302  10.959  0.0217  0.0316 -0.1802
17763W        W32894   8.331   3.210  13.330  0.0230  0.1951 -0.0003
17764W        W32895  16.303  12.613   1.547  0.0674 -0.1390  0.2188
17765W        W32896  14.304  17.465  14.689  0.0280 -0.1161  0.1558
17766W        W32897  11.691   8.029   4.338  0.1205  0.2522  0.0454
17767W        W32898  11.529   3.177  13.918  0.2635 -0.0419 -0.2195
17768W        W32899   1.437  13.135  12.034 -0.3028  0.2230 -0.1175
17769W        W32900  16.010   5.373   1.343  0.1400 -0.1959  0.0243
17770W        W32901   3.245  16.295  15.856 -0.0959  0.2147 -0.2172
17771W        W32902   9.890   1.712  16.066  0.0626  0.1184  0.2723
17772W        W32903  13.154   8.687  14.855 -0.0508  0.1374  0.2670
17773W        W32904   8.934  11.267  13.898  0.0646 -0.0367 -0.3455
17774W        W32905  12.952   7.280  13.639  0.1939  0.0481 -0.2583
17775W        W32906  15.807  13.728   2.168 -0.2230  0.1129  0.3568
17776W        W32907  13.384   7.175   2.185 -0.1555 -0.3143  0.1843
17777W        W32908  15.587  13.116   4.374  0.0187  0.1260 -0.2855
17778W        W32909  11.611   8.114  14.653  0.2465 -0.1415  0.0205
17779W        W32910   7.792  11.647  12.925 -0.1934 -0.3395  0.0420
17780W        W32911  16.327   3.284  12.326  0.3382  0.1487 -0.0715
17781W        W32912   9.974   4.559   3.953  0.0311  0.0415 -0.1662
17782W        W32913   5.175  13.185   1.935 -0.2263 -0.1935 -0.1594
17783W        W32914   5.370  12.194   4.197  0.2159 -0.0206  0.0607
17784W        W32915  11.062  13.406  14.494 -0.2248  0.2563  0.0821
17785W        W32916  13.852   5.174   1.570 -0.2472  0.3573  0.3679
17786W        W32917   2.094  17.230  12.152  0.0138 -0.0161  0.3054
17787W        W32918   6.549  17.857   1.257 -0.0486  0.0763  0.0619
17788W        W32919   5.471  16.520   4.869 -0.1809 -0.0103 -0.3576
17789W        W32920  17.135   8.765  11.365  0.2406 -0.1351  0.0384
17790W        W32921   7.702  16.276   0.205  0.0709 -0.1343 -0.0838
17791W        W32922  17.429  17.721   4.689 -0.2715 -0.0634  0.0314
17792W        W32923  10.767  15.906  10.945  0.3350 -0.3060 -0.2634
17793W        W32924  10.215   8.765   3.369  0.0968 -0.1761 -0.3608
17794W        W32925   3.078   5.437  15.473 -0.1626  0.0899  0.1468
17795W        W32926   4.984   6.572   2.312 -0.0784  0.1307 -0.1904
17796W        W32927  11.393   0.950  13.562 -0.3500  0.0707 -0.2597
17797W        W32928  12.428   7.328   3.705 -0.0178 -0.0962 -0.0664
17798W        W32929  16.452   5.551  12.958  0.1410 -0.1028 -0.1298
17799W        W32930  11.210   8.820  14.358  0.4043 -0.1420 -0.1137
17800W        W32931  11.805   7.192  12.939 -0.0791  0.0552 -0.1464
17801W        W32932   4.945  15.044  14.990 -0.2371 -0.0096 -0.0220
17802W        W32933   4.845   9.511  14.533  0.0709 -0.2052  0.1900
17803W        W32934  17.916  14.898  12.898  0.3286  0.1838  0.2898
17804W        W32935   1.078  15.360   4.992  0.4116 -0.3402 -0.1608
17805W        W32936   1.989   6.962   3.458  0.1485 -0.0645  0.1640
17806W        W32937  15.816  14.764   1.838  0.2147 -0.2120 -0.1965
17807W        W32938   0.010  12.525   4.537 -0.3775 -0.0238  0.0303
17808W        W32939  16.021  14.008   5.163  0.2700 -0.2783  0.0494
17809W        W32940  10.398   6.428  13.934  0.2338 -0.0801  0.0118
17810W        W32941   1.077   0.367  13.469 -0.1375 -0.0486  0.2687
17811W        W32942  17.093   6.884  15.977 -0.2147 -0.1994 -0.2959
17812W        W32943   4.468  15.014   1.889  0.0172  0.1524 -0.2111
17813W        W32944  16.720  14.176   3.807  0.1795  0.0635  0.1630
17814W        W32945   0.723  10.139  11.330  0.2900  0.0523 -0.1354
17815W        W32946  16.617  17.853  15.131 -0.0366  0.1770 -0.1112
17816W        W32947  11.065  15.448   3.917 -0.1658  0.0214  0.2573
17817W        W32948  17.712   7.028  16.083 -0.0622  0.1883 -0.2874
17818W        W32949  12.576  10.599  15.047  0.1610 -0.0258 -0.1415
17819W        W32950   4.361  11.642   1.001  0.5590  0.0706 -0.2584
17820W        W32951   5.871   1.811   4.602  0.0071 -0.4659 -0.2193
17821W        W32952  16.440  14.716  14.413  0.1007 -0.2386  0.2248
17822W        W32953  11.146   0.634   2.022 -0.2218 -0.4017 -0.1777
17823W        W32954  15.076   6.760   2.314 -0.0922 -0.0212 -0.0142
17824W        W32955   1.698  13.395   0.144 -0.2478 -0.2311  0.3884
17825W        W32956   8.612  16.639  12.462 -0.0887 -0.1440 -0.1744
17826W        W32957   5.748  12.512   1.693  0.3430  0.0472  0.3002
17827W        W32958  13.445  12.192   4.678 -0.1683  0.0730  0.0688
17828W        W32959  14.005   4.047  15.709 -0.1924 -0.1708 -0.1567
17829W        W32960  10.920   5.339   3.122  0.0625  0.0151  0.0333
17830W        W32961   0.864  12.451  12.200 -0.0709  0.2398 -0.2473
17831W        W32962  13.591   3.680  11.366 -0.1861  0.0527 -0.4261
17832W        W32963  11.479  11.732   0.175 -0.0774  0.1269 -0.2926
17833W        W32964   7.974   9.370   1.338 -0.2792 -0.1371  0.1644
17834W        W32965  11.011  15.078  10.384 -0.0824  0.0547  0.1251
17835W        W32966   3.071   2.022  16.041  0.0266 -0.1617  0.0276
17836W        W32967  16.037   1.005   0.717 -0.0117  0.1520 -0.2112
17837W        W32968  18.076   4.927  13.551  0.0734  0.0367 -0.3695
17838W        W32969  13.146  17.922   0.668  0.1882 -0.0865 -0.0333
17839W        W32970   5.822  14.531   5.112  0.4195  0.0456  0.1862
17840W        W32971  11.376  16.003   0.658  0.0542  0.1861 -0.1265
17841W        W32972  12.188  16.494   4.612 -0.3950 -0.0623 -0.0880
17842W        W32973   9.449   7.214   2.822  0.2884 -0.1904  0.1518
17843W        W32974  17.670   0.535   5.633 -0.0467 -0.3686  0.0948
17844W        W32975   1.336   3.192   3.018 -0.1232  0.4631 -0.0297
17845W        W32976  15.192  13.384   0.130  0.0244  0.1887 -0.0066
17846W        W32977   2.988  14.574   5.680  0.1010 -0.3668  0.3251
17847W        W32978  14.900   4.102   1.773  0.1241 -0.0297  0.1842
17848W        W32979  15.187  13.233  10.263 -0.2308  0.1204  0.0232
17849W        W32980   1.586  10.984  15.443 -0.1447 -0.2762  0.0432
17850W        W32981  12.394   5.412  14.455 -0.1164 -0.0922  0.0761
17851W        W32982   0.800   9.216   2.795 -0.0912 -0.0381 -0.2788
17852W        W32983   6.467  11.811  10.345 -0.2503 -0.0890 -0.0742
17853W        W32984  14.788  14.961  10.703 -0.2177  0.1446  0.0761
17854W        W32985   2.915   1.873  13.452  0.0324  0.0516  0.1972
17855W        W32986   1.240  16.586  11.386 -0.0416  0.3516  0.1884
17856W        W32987  13.222  12.015   3.756  0.2916 -0.1290  0.1595
17857W        W32988  12.815  12.061   1.338  0.2100 -0.0603 -0.2239
17858W        W32989   9.141  16.290   0.633  0.1222 -0.0942 -0.0155
17859W        W32990  17.290  11.564   4.882 -0.1010 -0.1413  0.0391
17860W        W32991   7.217   3.713   1.467 -0.3136  0.0773  0.1249
17861W        W32992   6.625   7.088  13.015 -0.0899  0.0633 -0.1290
17862W        W32993   5.850  11.170   1.497  0.1692 -0.1399  0.1406
17863W        W32994  10.871   2.805  12.400  0.1528  0.0021 -0.1558
17864W        W32995   1.711   9.394  11.089  0.1954 -0.1923 -0.5030
17865W        W32996  16.930  12.198   2.924 -0.1826  0.1636 -0.0859
17866W        W32997   8.327   4.092   4.550  0.2757  0.3326 -0.2415
17867W        W32998   5.482  16.819  12.815  0.2914 -0.1599 -0.0040
17868W        W32999   6.536  12.224  14.374  0.0861 -0.1845 -0.1539
17869W        W33000   2.459   8.517  14.947  0.1651 -0.1870  0.2841
17870W        W33001  12.913   8.408   4.676  0.4444  0.0706  0.0197
17871W        W33002   4.342  13.999  12.979 -0.0292 -0.0101  0.1181
17872W        W33003   3.912   3.571   1.778 -0.0059 -0.0122 -0.0108
17873W        W33004  14.826   4.924  15.193 -0.1690  0.2425  0.1142
17874W        W33005  12.888   6.029   5.210  0.1516 -0.0517 -0.1571
17875W        W33006  10.759  16.380   3.402  0.4182  0.0057 -0.1261
17876W        W33007   7.703   5.558   2.402 -0.0814 -0.0123  0.2355
17877W        W33008   8.558   1.516   2.250  0.0280 -0.0779 -0.1529
17878W        W33009  11.848  17.780   4.332 -0.0863 -0.4107  0.1895
17879W        W33010  17.067   7.349   2.576 -0.1775  0.0656 -0.2546
17880W        W33011  14.856  12.980   3.313  0.0012 -0.1000  0.0784
17881W        W33012   3.484  14.006  12.609  0.2116  0.0502  0.0358
17882W        W33013   9.302  17.374  14.784 -0.0855  0.0540  0.1183
17883W        W33014   6.342   4.342   2.626 -0.0328  0.0515  0.0624
17884W        W33015   5.891  15.599  11.889 -0.0777 -0.4655  0.2771
17885W        W33016   1.343  13.397   1.518  0.0040 -0.2773 -0.3168
17886W        W33017  12.722  15.936   0.338  0.0125  0.3002  0.1331
17887W        W33018  11.730  10.626  11.092 -0.0689 -0.0133 -0.0914
17888W        W33019   9.249   3.099  15.502 -0.0219 -0.1277  0.3334
17889W        W33020   6.845   1.965   3.313  0.0437 -0.4596 -0.1833
17890W        W33021  17.800   4.779  15.297  0.1781 -0.1027 -0.0825
17891W        W33022   0.934   2.366   0.018  0.0350 -0.3644 -0.0658
17892W        W33023  16.400   2.214  13.376 -0.0156  0.0619  0.1751
17893W        W33024   2.360  16.541   0.059 -0.0410 -0.2075  0.2391
17894W        W33025  10.503   6.523   0.191  0.0361 -0.1076  0.2264
17895W        W33026  10.420  17.048   0.627  0.0241 -0.1149 -0.1599
17896W        W33027  15.773  17.732  11.029 -0.3350  0.2013  0.1286
17897W        W33028   6.269   4.804  12.686  0.1103  0.1999  0.0685
17898W        W33029   4.651   3.254   5.890 -0.0911 -0.3293  0.1676
17899W        W33030  15.469  13.057  11.741  0.0570  0.2583  0.0926
17900W        W33031   7.911   3.404  12.026  0.1494  0.2349  0.1426
17901W        W33032   6.367  11.702   2.590 -0.1120  0.3209  0.1439
17902W        W33033  17.306   7.116   0.308 -0.3028  0.0866 -0.2033
17903W        W33034  13.822   3.918  11.007  0.0115  0.0274 -0.0715
17904W        W33035  17.391   8.678  10.609 -0.1418  0.1848  0.0707
17905W        W33036   1.566   9.413   1.715 -0.2840  0.2431  0.1023
17906W        W33037   7.327  14.077  10.172 -0.0918  0.1153 -0.0743
17907W        W33038  11.896  12.553  11.180 -0.1110  0.2334  0.1060
17908W        W33039  10.958  17.874  13.684 -0.0074 -0.5520 -0.1307
17909W        W33040   2.897   8.244   5.102 -0.2333 -0.0681  0.0229
17910W        W33041  11.165   6.049  14.732 -0.0072 -0.2295 -0.0228
17911W        W33042  10.355   0.332  15.936 -0.3877 -0.2507 -0.1613
17912W        W33043  10.330   0.330   1.845 -0.1078  0.3005  0.3449
17913W        W33044   4.623   0.194  13.858 -0.2722 -0.2022  0.0201
17914W        W33045   5.269   3.374   1.578  0.0568  0.1267  0.1142
17915W        W33046   6.444  12.543  12.278 -0.0876  0.0719 -0.1067
17916W        W33047  16.623  10.368   4.067  0.0092 -0.0415 -0.2417
17917W        W33048  12.514   1.418  12.964  0.1929  0.2833  0.0123
17918W        W33049   6.031   6.938   2.154 -0.1971 -0.1870 -0.0230
17919W        W33050  12.940   4.625  11.286 -0.3370  0.1705  0.0231
17920W        W33051  17.014   7.913   1.725  0.2702  0.0253 -0.1234
17921W        W33052   1.108  12.314   5.148 -0.0211  0.0146  0.1173
17922W        W33053  17.216   3.403  10.468  0.1009  0.0345 -0.0040
17923W        W33054  11.989   5.473  15.912  0.2316  0.0074  0.0707
17924W        W33055  13.050  10.464   4.013 -0.0124  0.1479  0.0555
17925W        W33056  16.820   5.449  14.956  0.1830 -0.2281  0.1338
17926W        W33057   3.087   8.830  13.611  0.1171 -0.1138  0.1364
17927W        W33058  13.172   5.141  14.970 -0.0354  0.1756 -0.3878
17928W        W33059  10.533   0.551   3.831  0.0884  0.2750 -0.0337
17929W        W33060  16.176  13.136  10.367 -0.0030 -0.0561 -0.0168
17930W        W33061  14.978  12.627   0.818 -0.0769 -0.1989  0.0385
17931W        W33062   9.290   4.239  13.593  0.3269 -0.0396 -0.0881
17932W        W33063   6.222  12.886  11.290  0.1677  0.2642 -0.0415
17933W        W33064  11.935   1.410  12.310  0.0513  0.3415 -0.2729
17934W        W33065  13.707  17.420   0.785 -0.2336 -0.0856 -0.2592
17935W        W33066   1.512  10.052  14.976  0.0616 -0.0751  0.1872
17936W        W33067  17.796  10.599  15.228  0.0236 -0.2284 -0.1607
17937W        W33068  13.403   8.339  11.816 -0.1516  0.3178  0.0483
17938W        W33069   7.376   6.349   2.984 -0.0813 -0.2561  0.0139
17939W        W33070   8.392  12.574   1.821 -0.1469  0.3430  0.0663
17940W        W33071   1.198   8.404  11.233  0.2094 -0.2212  0.2848
17941W        W33072  17.367  15.034   2.796 -0.0328 -0.3970  0.2035
17942W        W33073   9.674   8.740   3.650  0.1034 -0.0597  0.0589
17943W        W33074   5.947   9.514  12.103  0.2518  0.4308  0.0200
17944W        W33075  10.684   6.422   5.985  0.2611 -0.4205 -0.0731
17945W        W33076   7.600  11.188   2.425 -0.0139  0.1572 -0.2150
17946W        W33077  16.477   2.529  12.494  0.1098 -0.0863 -0.2119
17947W        W33078  16.502  12.870   1.123  0.1141 -0.2145  0.1265
17948W        W33079  11.437   1.399   1.441 -0.2520  0.2410  0.0213
17949W        W33080  10.206   9.158  13.371  0.1314 -0.1299 -0.1891
17950W        W33081  17.126   4.915  12.415 -0.2109  0.0650  0.0863
17951W        W33082  11.307   4.986  10.272 -0.1372 -0.0586  0.2306
17952W        W33083  15.848   2.035   2.439  0.0044  0.1119 -0.0889
17953W        W33084  13.437   1.712  12.608  0.0153  0.2130  0.1250
17954W        W33085  15.360   7.793   4.802  0.1900 -0.0022  0.0379
17955W        W33086   8.721   3.684   4.724  0.1709 -0.0640 -0.1840
17956W        W33087   4.902   0.581  14.044  0.0182 -0.0478 -0.0768
17957W        W33088   9.973   6.892   1.372 -0.1050 -0.0901 -0.0887
17958W        W33089  13.518  11.861   1.492  0.1518 -0.2053 -0.1555
17959W        W33090   8.821   3.541  11.227  0.0108  0.2176 -0.1135
17960W        W33091   0.990   1.211   2.962 -0.1084 -0.1340 -0.0717
17961W        W33092  10.867   9.365  10.183  0.0841  0.2543 -0.0963
17962W        W33093  11.697   7.282  15.620 -0.1183  0.0256  0.2139
17963W        W33094  12.685  11.447  11.536  0.2612  0.0632  0.0734
17964W        W33095  12.712  14.025   4.774 -0.0940  0.3703  0.1681
17965W        W33096  12.627   1.501   5.085  0.1099  0.1172  0.0435
17966W        W33097   6.105  14.411  13.482 -0.1518  0.0012  0.1907
17967W        W33098   3.635  13.528  15.507 -0.1287 -0.1341  0.0521
17968W        W33099   2.815  16.336   5.561 -0.0738  0.0158  0.1550
17969W        W33100   5.259  12.375  12.136 -0.0712 -0.1724  0.1031
17970W        W33101   6.731   5.881  14.248 -0.1175 -0.0918  0.2895
17971W        W33102  12.257   3.086   0.962  0.2974 -0.3158 -0.1116
17972W        W33103   0.951  13.082  11.082  0.3351 -0.0657  0.0256
17973W        W33104   7.885   9.975   0.231  0.1035 -0.1803 -0.1311
17974W        W33105   9.455   5.054   2.259 -0.1194  0.0642 -0.2507
17975W        W33106   8.503  18.027   4.686 -0.1373 -0.0552  0.2339
17976W        W33107  13.870   2.153  11.808  0.1546 -0.2194 -0.0701
17977W        W33108  16.422   4.037  11.101 -0.0505 -0.0617 -0.2541
17978W        W33109  15.515  12.301   3.083  0.1050  0.1764 -0.0295
17979W        W33110  13.786   0.970   5.136  0.3416  0.1183 -0.2180
17980W        W33111  13.967  18.011  13.911  0.0118 -0.0738  0.1062
17981W        W33112  14.522  13.288   3.802  0.0715  0.1818  0.0132
17982W        W33113  18.278  12.627  11.748 -0.1063  0.0599 -0.0969
17983W        W33114   5.256   0.741  13.695 -0.1003 -0.0412 -0.3783
17984W        W33115  12.876  15.617  11.649  0.2414 -0.0550  0.1613
17985W        W33116   8.885  11.468   2.946  0.1381  0.2353 -0.0501
17986W        W33117   4.820   2.101  12.023 -0.2309 -0.0514  0.1179
17987W        W33118   3.637  12.682   4.027  0.2092  0.2604  0.1383
17988W        W33119   2.969   5.845  11.036 -0.2749 -0.1615 -0.0815
17989W        W33120   9.879   1.811  12.385  0.1158 -0.1789  0.1841
17990W        W33121   6.245   3.767  14.707  0.0913 -0.1982 -0.1244
17991W        W33122   5.337   5.580  14.620 -0.0003  0.2161  0.0844
17992W        W33123   2.965   6.733   4.688 -0.2872 -0.0498 -0.3652
17993W        W33124  11.559   6.470  10.598  0.0024  0.0955 -0.1515
17994W        W33125   7.969  17.419   5.936  0.0961 -0.2621  0.3646
17995W        W33126   7.956   1.022  14.536 -0.1464 -0.1650 -0.0162
17996W        W33127   3.440   8.721  11.683  0.0769  0.0553  0.4453
17997W        W33128   5.022   3.964  11.998  0.0609 -0.1546 -0.1866
17998W        W33129  18.128  11.238   4.748 -0.2851  0.0793 -0.0248
17999W        W33130   2.550   5.522   3.271  0.1918  0.1363  0.5619
18000W        W33131   5.226  17.042   3.015  0.1654 -0.0891  0.1112
18001W        W33132   4.892  17.170   5.291 -0.2257  0.1514  0.3411
18002W        W33133   7.214  11.517  11.552 -0.0447  0.0804 -0.1077
18003W        W33134  10.425   5.487  14.219  0.2130  0.2073 -0.0157
18004W        W33135   6.425  14.814  16.030 -0.2259  0.2681  0.1771
18005W        W33136   4.736  11.840   1.808  0.1267 -0.1558  0.1230
18006W        W33137   7.913  10.981   2.038 -0.0744 -0.2192 -0.0517
18007W        W33138  11.636   4.043   3.822 -0.0205 -0.0722  0.0084
18008W        W33139   6.065   9.559  14.994  0.1839  0.1982 -0.0017
18009W        W33140  16.057  10.661   4.645 -0.4427  0.3090  0.3227
18010W        W33141  16.555  17.811   3.815  0.1365 -0.0987  0.1815
18011W        W33142  13.284   4.182  10.976  0.3378  0.0188  0.1814
18012W        W33143   8.987  16.149  15.713 -0.1259 -0.0138 -0.0379
18013W        W33144  15.960  11.124  11.245 -0.2354 -0.0317  0.0605
18014W        W33145  15.226   9.874  12.361  0.0643  0.2882 -0.1311
18015W        W33146   7.998  14.433   2.373 -0.2376  0.0225  0.0802
18016W        W33147   6.043  14.424  15.869 -0.1125 -0.3182  0.0528
18017W        W33148   9.834  15.672  12.618  0.0296  0.0569  0.0547
18018W        W33149   0.504   4.274  11.370 -0.1007  0.1956  0.0704
18019W        W33150  17.063  15.046  15.944 -0.0837 -0.5937 -0.0711
18020W        W33151  13.575  15.747   1.707  0.0346  0.0716 -0.3966
18021W        W33152   7.531  14.669   4.787  0.0240  0.2029  0.1394
18022W        W33153   1.707   1.941  13.106 -0.1364 -0.6091  0.1487
18023W        W33154   1.769   0.027   1.406  0.1684  0.2037  0.0793
18024W        W33155  12.740  11.734  13.092 -0.1134  0.1584  0.0119
18025W        W33156   1.251   2.595  12.008  0.2994  0.1014 -0.2135
18026W        W33157  17.324  12.516  12.602  0.0286 -0.0910 -0.1369
18027W        W33158   2.737   0.859   0.924 -0.0176  0.1867 -0.0831
18028W        W33159  10.294   5.708  15.761  0.1775  0.2427  0.0574
18029W        W33160  17.852  11.155   2.061 -0.0231 -0.1202  0.1314
18030W        W33161   5.487  15.948  11.003  0.1398 -0.0113 -0.1686
18031W        W33162   6.328   5.265  12.448  0.0637 -0.1744 -0.1567
18032W        W33163   4.488  10.572   0.459 -0.1318  0.0010  0.0093
18033W        W33164  17.220   9.128   0.292  0.0541  0.1763 -0.0724
18034W        W33165   7.466   1.342  14.326 -0.1067  0.1506 -0.1560
18035W        W33166  10.069   1.291  15.780  0.1087 -0.3043  0.2429
18036W        W33167   3.435   0.361   0.231 -0.0912 -0.1137 -0.4243
18037W        W33168  10.978  12.252  12.515 -0.4488  0.0137 -0.0443
18038W        W33169  12.433  17.301   2.626  0.2549  0.0113 -0.0170
18039W        W33170  10.796   3.202   1.474  0.2042  0.1288 -0.1639
18040W        W33171   4.303  11.960   4.067 -0.0406 -0.0260 -0.0692
18041W        W33172   0.109  12.179  11.828  0.2527  0.1467 -0.2500
18042W        W33173   5.807   6.793   4.866  0.1194  0.1882 -0.3029
18043W        W33174  13.174  10.975   3.134 -0.0693  0.0914  0.1916
18044W        W33175   1.480  13.184   2.032 -0.1274 -0.0989 -0.0500
18045W        W33176   7.609   0.663   2.283  0.0661 -0.0628  0.1651
18046W        W33177   4.231   8.885  10.959  0.1301  0.3052  0.0692
18047W        W33178   8.513  11.025   2.672 -0.1036 -0.2765 -0.1647
18048W        W33179   5.019  12.777   0.677 -0.1661  0.1182 -0.3563
18049W        W33180  11.085   9.617  12.499  0.3535  0.0032 -0.0013
18050W        W33181  13.742  12.044   5.620 -0.0655  0.0237  0.2332
18051W        W33182  12.475  14.432   1.162 -0.3454  0.1918  0.0351
18052W        W33183  10.654   2.497   9.963  0.1529 -0.1340  0.1137
18053W        W33184   5.819   2.907   2.171  0.1853 -0.1232  0.1599
18054W        W33185  17.755  15.540   1.616 -0.2609 -0.0790  0.0347
18055W        W33186   5.619  11.796  15.988  0.0267  0.0017 -0.1106
18056W        W33187  15.110  10.310  14.708 -0.3120  0.1055 -0.0143
18057W        W33188  13.037   6.030  11.983 -0.4495 -0.0525 -0.2101
18058W        W33189  15.264   9.821  14.925  0.0814  0.1184 -0.1891
18059W        W33190   7.160   2.616   0.779  0.0733  0.0387 -0.1919
18060W        W33191  16.774   7.274  10.396  0.2223  0.3631  0.0176
18061W        W33192  15.403  14.987   1.705  0.3881  0.2372  0.1161
18062W        W33193  17.972   8.619  10.448  0.3256  0.4045 -0.4481
18063W        W33194   3.816   8.906  11.995 -0.2327  0.0282  0.1672
18064W        W33195   1.544   1.810  14.300  0.1353 -0.2513 -0.0779
18065W        W33196   3.842  16.238   2.824 -0.0099  0.2898 -0.0091
18066W        W33197  16.720  15.869   2.033  0.1065  0.0782 -0.1529
18067W        W33198  12.813  15.979   2.900 -0.2036  0.2861  0.1006
18068W        W33199  15.856  11.347  13.079  0.0727 -0.0746 -0.3276
18069W        W33200   2.952   6.794  12.777 -0.1786 -0.1937  0.2992
18070W        W33201   1.625   0.694  14.811  0.1423 -0.0123 -0.0042
18071W        W33202   3.059  14.767   2.447  0.2622  0.1742 -0.1167
18072W        W33203   7.606   6.758  10.285  0.0571 -0.0346 -0.2575
18073W        W33204  10.114  11.456   4.914  0.1607  0.2674  0.0742
18074W        W33205   8.138  11.973  13.721 -0.1181 -0.1236  0.1035
18075W        W33206   0.976   5.436  11.937 -0.2282  0.0324 -0.1554
18076W        W33207  15.254   0.908  13.989  0.0028 -0.2412  0.2273
18077W        W33208  11.136   8.252   4.214  0.1656 -0.0514  0.4042
18078W        W33209  14.121   6.793   4.105  0.3245 -0.3579  0.4009
18079W        W33210   2.562  16.840  13.883 -0.0692  0.0746 -0.0222
18080W        W33211   4.439   6.323   3.197 -0.0510 -0.1020  0.0677
18081W        W33212   8.703   7.210   0.543 -0.2434 -0.1783  0.0637
18082W        W33213  12.637  13.815  10.353 -0.1891 -0.4156  0.0866
18083W        W33214   9.896  17.312  15.408 -0.0109  0.0705 -0.1319
18084W        W33215  10.625   3.653   2.545  0.1157  0.1237 -0.1254
18085W        W33216  15.002  15.922  11.047  0.4123 -0.2771  0.0608
18086W        W33217   4.470   8.857   1.731  0.1870  0.1560  0.0298
18087W        W33218   3.341  12.456  13.380 -0.0960 -0.2385 -0.1502
18088W        W33219  14.153  17.652  11.979  0.2494  0.1913  0.2127
18089W        W33220   5.472  15.727   5.653 -0.1546 -0.0045 -0.0068
18090W        W33221   3.269   8.442  12.590 -0.0938 -0.1830  0.1504
18091W        W33222  16.563  14.689   0.834  0.0524 -0.1085 -0.1797
18092W        W33223  16.179  15.148  15.419 -0.2542  0.1825 -0.2143
18093W        W33224  10.342   5.538  10.959 -0.0235 -0.0222  0.2553
18094W        W33225  18.293  15.777  12.811  0.4005 -0.1378 -0.0828
18095W        W33226   4.902  14.051   1.635  0.0006  0.2219  0.0571
18096W        W33227  15.214   1.076   1.463  0.3185 -0.0899 -0.0825
18097W        W33228   3.211  16.350  13.630  0.0898 -0.1279  0.0692
18098W        W33229   3.752  11.843  12.530  0.0110  0.0739  0.0519
18099W        W33230  16.202   4.481   0.329 -0.2661 -0.1026  0.0372
18100W        W33231   4.339   7.068  15.879 -0.5216  0.0997  0.2062
18101W        W33232   3.961   3.297   1.391 -0.1049 -0.0047  0.0921
18102W        W33233   7.629   3.779   2.836 -0.1763 -0.2389 -0.1925
18103W        W33234  15.746  11.982  11.548 -0.1077 -0.0359  0.0256
18104W        W33235  10.251  10.957   3.617 -0.2890  0.1459 -0.2731
18105W        W33236   0.454  13.782  11.591  0.0758 -0.1250 -0.1493
18106W        W33237  13.711  14.601  12.181 -0.2986 -0.1623 -0.2028
18107W        W33238  13.322  15.315   2.709 -0.1384  0.1260  0.0432
18108W        W33239   5.756   8.466   5.198  0.0645 -0.0102 -0.2958
18109W        W33240   1.779  12.994   0.612  0.3423 -0.0630  0.2123
18110W        W33241   4.700   1.272  11.954 -0.4404  0.1168  0.1041
18111W        W33242   1.675   7.582   0.572  0.0005 -0.1784 -0.1039
18112W        W33243   6.679   5.920  13.716 -0.1994 -0.3838 -0.1388
18113W        W33244   1.205   3.983  15.605 -0.2399 -0.1954 -0.1994
18114W        W33245   7.590   5.738  13.685 -0.0255 -0.1712 -0.0193
18115W        W33246  11.156  11.040   1.696 -0.0218  0.0084  0.0181
18116W        W33247   3.331  11.757  10.739  0.1448 -0.3541  0.1599
18117W        W33248  14.042  16.202   1.983 -0.0322  0.3872 -0.0476
18118W        W33249  12.979   1.429   0.945  0.0591 -0.1365  0.0237
18119W        W33250  15.270  14.148   4.525 -0.0444 -0.3113 -0.0403
18120W        W33251   0.971   6.763   5.463  0.1774 -0.1997 -0.1245
18121W        W33252   1.891  15.526   5.221  0.2789 -0.1175 -0.1749
18122W        W33253   4.442  16.265   0.535 -0.2629 -0.1491 -0.0303
18123W        W33254   6.289  17.689  15.371 -0.0587 -0.2730  0.2318
18124W        W33255  14.624  10.070   2.590  0.2084 -0.2175 -0.1192
18125W        W33256  14.025   4.995  12.051 -0.5392 -0.2661  0.3214
18126W        W33257  16.952  10.630  13.890 -0.0735 -0.1736 -0.1184
18127W        W33258  17.038   7.529  15.197  0.1980 -0.0837 -0.0507
18128W        W33259  16.034   0.926  13.818  0.0539  0.0064 -0.2044
18129W        W33260   4.950  14.649   5.436  0.0899 -0.0825 -0.0988
18130W        W33261  11.023   6.519   4.235  0.1439  0.2597 -0.2267
18131W        W33262  11.592  16.321  10.691  0.0343  0.2238 -0.0574
18132W        W33263  12.025   1.421  14.408  0.5148  0.1596  0.1157
18133W        W33264   3.606  13.078   3.619  0.2542 -0.0838 -0.0910
18134W        W33265   7.670   7.843  13.387  0.2849  0.1564  0.1258
18135W        W33266   1.204   0.855   1.622 -0.2017 -0.2870 -0.4626
18136W        W33267   1.054  16.832  11.856 -0.3251  0.0364  0.2067
18137W        W33268   0.689   9.567   5.449  0.3224  0.0554  0.1900
18138W        W33269  13.588  18.160   0.401  0.1717 -0.3183 -0.0730
18139W        W33270   4.269   6.605   5.724 -0.1191  0.1144 -0.2266
18140W        W33271  11.844   2.067   3.483 -0.0696 -0.0124 -0.0364
18141W        W33272   1.189  13.645  11.898 -0.3423 -0.0707  0.0506
18142W        W33273   7.738   3.010   0.070 -0.2299  0.3103  0.1707
18143W        W33274  11.321   0.691   3.266  0.1652  0.1438  0.2210
18144W        W33275  14.578  12.479   2.364  0.0639 -0.1752  0.3452
18145W        W33276   1.920   0.038   0.169 -0.0128 -0.1603  0.1625
18146W        W33277   5.545   8.091   1.925 -0.0246 -0.1681  0.0070
18147W        W33278   7.257   0.000  12.683  0.2108  0.1015 -0.3549
18148W        W33279   9.748  11.099   3.410 -0.0271  0.3112 -0.0935
18149W        W33280  10.204  11.464  15.017  0.3029 -0.4198 -0.1711
18150W        W33281  10.238   8.240   2.271  0.3144  0.1356 -0.0308
18151W        W33282   9.296  16.610   2.572 -0.2470 -0.0860 -0.0739
18152W        W33283   9.516  12.592   2.469  0.0237  0.1069  0.0290
18153W        W33284   3.164  17.262  15.324 -0.2638  0.2016  0.1219
18154W        W33285   4.333  11.154   4.314 -0.0705 -0.4829  0.1643
18155W        W33286  10.474  14.977   4.303  0.2405 -0.1381  0.0275
18156W        W33287   6.463  15.323  12.062  0.2244 -0.0365 -0.1713
18157W        W33288   0.237   2.151  15.546 -0.0810  0.1195 -0.0924
18158W        W33289  14.444   7.529  10.746 -0.0621 -0.0013 -0.1270
18159W        W33290   1.839  15.407   1.509  0.2670 -0.1490  0.1002
18160W        W33291   7.083   4.677  12.929 -0.0257 -0.1205 -0.0158
18161W        W33292   1.060   5.765   3.928  0.2331 -0.0078  0.2280
18162W        W33293   5.910   3.331  15.956  0.0155  0.0937  0.0373
18163W        W33294   4.021   2.092  10.891 -0.1533  0.2057  0.1237
18164W        W33295  14.806   8.433  11.736 -0.2253  0.1620 -0.0260
18165W        W33296   0.727  16.898   1.323 -0.3488  0.2779 -0.3536
18166W        W33297   1.496   2.749  12.990 -0.0289 -0.1921 -0.2591
18167W        W33298   4.669   7.488  11.081 -0.1729 -0.2296 -0.0825
18168W        W33299   6.605  12.161   5.418 -0.0359 -0.1392 -0.0806
18169W        W33300  13.168   5.660  13.308 -0.1374  0.1633  0.2256
18170W        W33301  15.675   9.757   3.026 -0.1572  0.1846  0.1311
18171W        W33302  15.302  11.852  11.775  0.2146  0.5692 -0.0291
18172W        W33303  11.587  10.810   1.768  0.0967 -0.2587  0.0366
18173W        W33304  11.319   2.044   4.853  0.1488 -0.0359  0.1143
18174W        W33305   2.207   1.855  12.019  0.0496  0.2762  0.0550
18175W        W33306   3.326  16.833  15.609 -0.0363 -0.1133 -0.0426
18176W        W33307   5.724   8.750  11.730 -0.2112  0.1530 -0.2908
18177W        W33308  14.564  18.056   4.891  0.1056 -0.1258 -0.1283
18178W        W33309   0.483   6.742   5.591 -0.0416  0.0394  0.0863
18179W        W33310  17.442  14.217  11.988  0.1289  0.1136  0.1380
18180W        W33311  13.153   8.547  13.137 -0.0617  0.1454 -0.1363
18181W        W33312  12.753  12.896  13.114  0.0024 -0.0839  0.0505
18182W        W33313   6.582   4.286   5.276 -0.2408 -0.2058 -0.2602
18183W        W33314  13.151   2.767  10.960 -0.2381  0.2386 -0.2716
18184W        W33315   6.846   8.839   2.909  0.2521 -0.1025 -0.1688
18185W        W33316   4.647   1.442  14.471  0.2198 -0.2416  0.2220
18186W        W33317   2.760   2.973   2.273  0.2141 -0.0557  0.3007
18187W        W33318  10.285   5.027  15.104 -0.2111  0.0242  0.2187
18188W        W33319   7.735   1.236   2.179 -0.1406 -0.4056  0.0011
18189W        W33320   1.935  15.250  12.047 -0.1436  0.2837  0.1332
18190W        W33321  15.780   3.768   1.504 -0.2775 -0.1481 -0.0335
18191W        W33322  11.785  12.098  11.041 -0.0290  0.2779  0.2202
18192W        W33323  13.501  10.742   0.963 -0.1818 -0.1621 -0.0229
18193W        W33324  10.263   3.148   3.960 -0.2232  0.3807  0.0518
18194W        W33325   8.753  17.159   0.903 -0.0332 -0.4326  0.0952
18195W        W33326   2.296   4.385  14.549  0.0338 -0.2626  0.0194
18196W        W33327  12.972   8.408   3.931 -0.1099 -0.2998  0.0484
18197W        W33328   0.926   5.117   0.528  0.2655 -0.0523 -0.0074
18198W        W33329  12.736   6.287   0.944  0.0189  0.0349  0.0061
18199W        W33330  10.625   9.865  12.344  0.0579 -0.2763 -0.0418
18200W        W33331  13.376  15.398   4.126 -0.0883 -0.1405 -0.1005
18201W        W33332  11.611   3.533   0.640  0.2317 -0.2320  0.2342
18202W        W33333   8.280   1.004   4.945 -0.0566 -0.0479  0.0386
18203W        W33334   2.283  16.586  13.548 -0.0971 -0.1425  0.1322
18204W        W33335  12.933  13.945  10.777 -0.0354  0.0347 -0.1864
18205W        W33336   1.174   0.756   6.214 -0.1347 -0.0998  0.0395
18206W        W33337  10.914  15.321   3.408 -0.0571  0.0874  0.1261
18207W        W33338   9.903  10.272   0.389 -0.0015 -0.0983  0.0397
18208W        W33339  11.023  11.598  14.450 -0.0512  0.0096 -0.1092
18209W        W33340   7.319   2.747   3.030 -0.2035  0.0329 -0.2045
18210W        W33341  10.072  10.719   0.270 -0.2394 -0.2810  0.0549
18211W        W33342   7.977   8.518   4.054 -0.0888 -0.0090  0.3983
18212W        W33343   4.642   8.080   1.408  0.1735 -0.0638 -0.1614
18213W        W33344   9.547   3.802  13.977  0.0642 -0.2821  0.0542
18214W        W33345  17.061   2.927   3.875  0.0175 -0.1046  0.2013
18215W        W33346   4.268   7.783   3.741  0.3926  0.1836  0.3635
18216W        W33347   4.879  12.032  10.742  0.0941  0.1220 -0.2873
18217W        W33348   2.432  10.834   4.090  0.0719  0.0633  0.1221
18218W        W33349  11.824  11.828   3.386 -0.0757 -0.0323  0.1211
18219W        W33350   7.920   7.253  12.417 -0.0732  0.0357  0.2766
18220W        W33351   3.388  10.613   1.204 -0.0108 -0.0744  0.1261
18221W        W33352  10.742  15.194  13.129  0.3023 -0.3414  0.0046
18222W        W33353  13.045  16.907   4.405  0.1867  0.0590  0.2524
18223W        W33354  13.124   8.932   2.915 -0.2905  0.0435  0.0896
18224W        W33355  17.763   9.902  14.925 -0.1110 -0.0903 -0.1284
18225W        W33356  12.806   3.151  13.507  0.0877 -0.3298  0.0700
18226W        W33357  16.489  13.332  14.030  0.0338 -0.1638  0.0891
18227W        W33358  10.534  10.802   5.121  0.3616 -0.1321  0.1153
18228W        W33359  14.780   2.450   4.735  0.2888  0.1692  0.0241
18229W        W33360  11.055   4.474   1.811  0.2393 -0.1650  0.1303
18230W        W33361   3.630   9.237   1.324 -0.1685  0.2056  0.0707
18231W        W33362  13.288  10.198  11.254 -0.2910 -0.0587  0.0133
18232W        W33363  16.139   1.320   1.061  0.2054 -0.1556  0.2718
18233W        W33364  10.911   4.938  10.643  0.0614  0.2400 -0.1338
18234W        W33365   3.063   7.617   1.658 -0.1283  0.0043  0.1859
18235W        W33366   1.591   5.527   1.810  0.1212 -0.3936 -0.0514
18236W        W33367  17.482  17.935  11.171  0.1133 -0.0938 -0.0124
18237W        W33368   4.526  11.026   0.323  0.1340  0.0295  0.1024
18238W        W33369   2.257   6.472  14.096 -0.4412  0.0049 -0.1027
18239W        W33370  16.841   9.144   1.977 -0.1197 -0.1836 -0.0199
18240W        W33371  12.468  14.844  12.809 -0.0896 -0.0961  0.0868
18241W        W33372  11.103  10.605   4.485  0.0522  0.1799  0.1533
18242W        W33373   3.268   0.337   2.189  0.0703  0.0040  0.2366
18243W        W33374  18.145   1.080  12.909 -0.1151 -0.1378 -0.1270
18244W        W33375  11.367   5.066   0.357 -0.1071  0.3942  0.1864
18245W        W33376  13.669   6.200   3.376  0.0370  0.0030  0.1549
18246W        W33377  14.513   4.755  13.591  0.0207 -0.0679 -0.1378
18247W        W33378   8.964  13.792   1.714 -0.1066  0.4427 -0.2125
18248W        W33379  14.851   5.671  13.405 -0.0739  0.1120  0.1478
18249W        W33380   5.041  15.750   1.114  0.0817 -0.1624  0.2945
18250W        W33381  14.708   5.397   1.116 -0.0858 -0.3335  0.0678
18251W        W33382   5.592  10.468  13.701 -0.1101  0.1707 -0.0653
18252W        W33383   1.887   7.752   5.460 -0.0283 -0.2636  0.0181
18253W        W33384   1.883   4.089  14.312  0.3554  0.1466 -0.4934
18254W        W33385  17.335   1.996   4.243 -0.0575 -0.0594 -0.1103
18255W        W33386   4.003   3.208   2.098 -0.2090 -0.0940  0.0513
18256W        W33387  13.029   1.182  15.135  0.2046  0.0200  0.1532
18257W        W33388   0.523   7.550   5.297  0.2903 -0.0018 -0.0515
18258W        W33389  16.440  18.083   0.280  0.0382  0.0582  0.0191
18259W        W33390   3.754   4.259   0.947  0.0026  0.1033 -0.0933
18260W        W33391   1.072   3.483  13.893 -0.3822  0.2398 -0.0050
18261W        W33392  13.380   4.513   0.629 -0.1209  0.0972 -0.4054
18262W        W33393  10.878   7.059  10.358 -0.4397  0.0812 -0.2099
18263W        W33394  10.725   7.155  13.361 -0.3739  0.0882 -0.0102
18264W        W33395  14.457   9.145   5.078 -0.0929 -0.3331  0.0248
18265W        W33396  11.738   6.756   0.629  0.1795  0.0857 -0.1350
18266W        W33397  12.023   1.375  15.525  0.0717 -0.1426  0.2250
18267W        W33398  17.679   5.937   5.567  0.0781  0.2897 -0.1112
18268W        W33399   8.481  11.607   4.409 -0.1117  0.2056  0.1788
18269W        W33400   6.893  13.587   2.508 -0.0559 -0.1127  0.0199
18270W        W33401   6.156   0.769  10.792  0.0893 -0.0375  0.1768
18271W        W33402  10.771   6.600  14.273 -0.1081  0.0697 -0.2273
18272W        W33403   5.686   4.632   1.074  0.0626 -0.0595 -0.1565
18273W        W33404   3.816   2.818  11.924  0.1660  0.0685  0.2744
18274W        W33405   0.014  15.572   3.576  0.3168  0.2017  0.4088
18275W        W33406   9.354   5.903   2.209 -0.2454  0.1592  0.0528
18276W        W33407  17.628  10.097  13.414  0.0405  0.2596 -0.2701
18277W        W33408   1.009  10.194  11.732 -0.3121  0.1517 -0.1814
18278W        W33409  14.581   5.832   2.759 -0.0316 -0.2025 -0.1164
18279W        W33410  18.041   9.092  12.246 -0.2854  0.1925 -0.0931
18280W        W33411  17.541  16.310   1.030  0.2138 -0.1320  0.1123
18281W        W33412   8.310   5.168   0.853 -0.0522  0.1968  0.1293
18282W        W33413   3.347   2.778  13.532 -0.5895 -0.0471 -0.2252
18283W        W33414   1.748   8.297   2.218 -0.1836  0.0658  0.0075
18284W        W33415   1.113  12.115  11.722  0.1548 -0.2064  0.1788
18285W        W33416  14.949  10.148  11.462 -0.1333 -0.1321  0.1098
18286W        W33417  17.831   9.041  14.369  0.2731  0.2314  0.1874
18287W        W33418  17.656   3.668   1.903 -0.0431  0.2606  0.2275
18288W        W33419   1.949  12.760  12.481  0.2360 -0.0550  0.2234
18289W        W33420   4.369  13.256  14.887 -0.2516  0.1287  0.0452
18290W        W33421   0.954   0.226   4.713  0.1699  0.1314  0.1568
18291W        W33422   5.696   7.899  10.610  0.3496 -0.5084  0.0545
18292W        W33423  11.445   8.371   4.569 -0.1550  0.2184 -0.0799
18293W        W33424   1.466   5.575  15.865 -0.1781  0.2275  0.0732
18294W        W33425   8.040   1.100   1.037 -0.1691  0.1380 -0.1267
18295W        W33426  15.683  13.896   4.033  0.0870  0.1962 -0.1488
18296W        W33427   3.329  17.947  11.825 -0.0591 -0.1440  0.0953
18297W        W33428   7.008   1.395  15.481 -0.0176  0.2246 -0.2658
18298W        W33429   9.431  16.633   1.505  0.0362  0.0834 -0.2049
18299W        W33430  16.510   5.784   2.331  0.1045  0.0829 -0.0478
18300W        W33431  16.757   9.996   5.715  0.1180 -0.2674 -0.0286
18301W        W33432  13.656   1.444  11.728  0.2083  0.1704 -0.1218
18302W        W33433   2.867   0.002  13.917 -0.1549 -0.0017  0.1605
18303W        W33434  17.295   1.678   5.745  0.0053  0.0083 -0.1538
18304W        W33435   8.862  14.111   4.973 -0.0393 -0.2245 -0.3924
18305W        W33436  13.125   8.959  13.413 -0.0603 -0.1033  0.0583
18306W        W33437   8.263   0.672   3.958 -0.0486 -0.1966 -0.3239
18307W        W33438  15.029   2.408  12.141 -0.0680 -0.1982  0.0553
18308W        W33439  17.568   0.315  12.875  0.1136  0.3239 -0.0779
18309W        W33440   6.333   8.131   3.257  0.1660  0.3899  0.3009
18310W        W33441   3.448   2.226  13.567  0.2304  0.1513 -0.1189
18311W        W33442  15.872  10.626   5.457 -0.2490  0.4840  0.0603
18312W        W33443   0.334   2.687   3.716  0.0014  0.1533  0.0840
18313W        W33444   7.786   8.425   2.103  0.4794 -0.1019  0.2930
18314W        W33445   8.028   5.274   5.280 -0.1061  0.1993 -0.3375
18315W        W33446   1.703   9.699   4.182  0.1288 -0.0211 -0.2913
18316W        W33447  11.163   2.101  10.809 -0.2280 -0.0798 -0.0318
18317W        W33448   9.411   2.373  15.648  0.0995  0.0251 -0.0411
18318W        W33449  16.759   2.469   2.610 -0.2592  0.1107 -0.1189
18319W        W33450  16.388   8.001   2.675  0.3109 -0.0673  0.1955
18320W        W33451   3.232  17.094   3.345 -0.0267  0.0161  0.1042
18321W        W33452  12.715  12.560   5.361  0.3710 -0.3630 -0.1952
18322W        W33453   4.791  17.912  11.426 -0.0717  0.0458 -0.2667
18323W        W33454   2.869   7.574  14.812  0.2912 -0.0186 -0.0015
18324W        W33455  10.748   6.871   1.537  0.2681 -0.0408 -0.0869
18325W        W33456   0.592   3.284   4.766  0.2173 -0.1214 -0.1374
18326W        W33457  11.650   1.088  11.797 -0.1264  0.0686  0.2796
18327W        W33458   6.547  13.583  11.095 -0.0969 -0.0600 -0.2197
18328W        W33459   8.703  15.263  13.211  0.1002  0.0571 -0.0104
18329W        W33460   1.242  13.947  13.073 -0.4135  0.1014  0.1643
18330W        W33461  18.229  13.213   4.356  0.0247 -0.0408  0.0431
18331W        W33462  13.908  15.258   0.508 -0.1325 -0.2363 -0.0670
18332W        W33463   7.370  15.370  13.419 -0.1258  0.1092  0.2559
18333W        W33464  11.045  13.208  14.009  0.1403  0.0624  0.3274
18334W        W33465   5.130   4.213  12.924  0.1206 -0.1841  0.4179
18335W        W33466  11.872  14.468  12.088  0.1048  0.4303 -0.4053
18336W        W33467   0.039   6.520   1.162  0.2507 -0.1451  0.1002
18337W        W33468   5.828   9.691   4.617 -0.0743  0.0588 -0.0141
18338W        W33469   5.802  12.406  12.105  0.0309  0.1697 -0.1385
18339W        W33470   8.757  13.397  14.866  0.3563  0.2234  0.0159
18340W        W33471   5.620   7.820  15.453  0.2844 -0.0124 -0.0917
18341W        W33472   5.756   3.659   5.276  0.0577  0.0007 -0.0868
18342W        W33473   5.110  15.203  12.288 -0.1366  0.4185 -0.1887
18343W        W33474  17.742   2.481   0.515  0.0158  0.1119  0.1285
18344W        W33475  11.363  10.327   3.008 -0.2086 -0.0578  0.0248
18345W        W33476   3.727   6.197  15.603 -0.1746 -0.0625  0.2351
18346W        W33477   9.300  17.534   0.289 -0.2069  0.0382 -0.1310
18347W        W33478   9.469  17.516   4.081 -0.0449  0.0815  0.2077
18348W        W33479  12.828  15.206  13.776  0.1176  0.1639  0.1907
18349W        W33480  13.950   6.062  14.930 -0.3527  0.0523 -0.0611
18350W        W33481   2.351  11.404   1.079  0.0507  0.0660 -0.2373
18351W        W33482  12.505  17.067  14.050  0.2653 -0.0035  0.0801
18352W        W33483   7.031  11.941   1.074  0.1759  0.1742 -0.0265
18353W        W33484  15.328   8.245  13.828 -0.0977  0.0425  0.0333
18354W        W33485  13.753   7.812   2.630  0.1015 -0.1880 -0.1908
18355W        W33486  11.584   0.398   2.068 -0.1142  0.3202  0.0975
18356W        W33487  12.261   3.870  11.735 -0.2235  0.0391  0.2778
18357W        W33488   5.220  13.963  12.884  0.0675  0.2400 -0.1816
18358W        W33489  13.622  13.323   2.684 -0.0807 -0.0246 -0.1619
18359W        W33490  10.510  13.493   0.147  0.3126 -0.1511 -0.1241
18360W        W33491  15.886   8.687  11.691  0.0780 -0.2820 -0.2210
18361W        W33492   2.125  11.845  15.969 -0.0609 -0.0865  0.4595
18362W        W33493  13.359   5.283   3.785 -0.1979 -0.0820  0.0618
18363W        W33494   9.548   1.920  11.973  0.0624  0.2895 -0.2894
18364W        W33495  12.102   7.555  11.622  0.2006  0.0304 -0.1768
18365W        W33496   3.655   1.958  12.816  0.1655 -0.3502  0.0860
18366W        W33497  12.035  12.445  10.358 -0.0362 -0.1574  0.2252
18367W        W33498  10.518   1.171   2.530 -0.0337 -0.1108 -0.1770
18368W        W33499   5.056  11.093   3.729 -0.2926  0.2146 -0.1177
18369W        W33500   2.785  17.080   4.088  0.1489  0.0253  0.0047
18370W        W33501  13.388   6.345  12.165 -0.0593  0.0646 -0.1932
18371W        W33502   5.442   4.415   0.208 -0.2637  0.1853  0.0678
18372W        W33503  12.339   2.700  11.525 -0.2101 -0.2084 -0.0068
18373W        W33504  11.747   3.596  11.464  0.3319 -0.1205  0.1982
18374W        W33505   4.790   5.295  14.802 -0.1080 -0.2433 -0.1407
18375W        W33506  13.354  15.600  12.172  0.1062 -0.1848  0.3661
18376W        W33507   7.092   1.130   3.423 -0.2626  0.0940  0.1907
18377W        W33508   5.287   0.022   3.814  0.1201 -0.4765 -0.0303
18378W        W33509  12.784   1.265   3.554  0.1683 -0.1704  0.3393
18379W        W33510   7.732  15.909   4.451 -0.2782  0.0032 -0.1312
18380W        W33511   2.985  12.101   2.202 -0.0704 -0.0628 -0.1825
18381W        W33512   1.753   4.398   3.574  0.2969  0.3600 -0.2265
18382W        W33513  10.769  15.089  11.909  0.3022  0.1961  0.0798
18383W        W33514   4.319  13.071  12.775  0.0147 -0.2128  0.3017
18384W        W33515  14.365  12.478  14.965 -0.1709 -0.0534 -0.0127
18385W        W33516  13.746  12.788  16.059  0.1489  0.1911 -0.1886
18386W        W33517  10.232   3.822   1.658 -0.1092  0.0221 -0.4788
18387W        W33518  13.231   2.815  11.654 -0.0897 -0.1797 -0.2609
18388W        W33519  11.282  16.031  13.392  0.2746  0.2241 -0.1126
18389W        W33520   0.569  14.033   5.889  0.3009 -0.0555  0.0460
18390W        W33521   5.227   8.358   1.676  0.1511  0.1462  0.0476
18391W        W33522  12.652   0.903  13.815 -0.1891 -0.1820  0.3058
18392W        W33523  12.995   6.032   2.881  0.2184 -0.1084  0.3558
18393W        W33524   5.617   5.875   2.219  0.1328  0.1710  0.1352
18394W        W33525   9.960  18.279   2.772 -0.0235 -0.1643  0.0936
18395W        W33526  13.766   3.064  12.490  0.1070 -0.0824 -0.4183
18396W        W33527   2.881  18.183  11.650 -0.1304 -0.0796 -0.2236
18397W        W33528  11.587   4.517  12.527  0.1622  0.1561  0.0163
18398W        W33529  11.724   3.063  10.570  0.1634 -0.0707 -0.0357
18399W        W33530  11.762  10.491   2.762 -0.0306 -0.1202  0.0704
18400W        W33531   5.188   5.066  13.052 -0.0404 -0.2810 -0.1216
18401W        W33532   9.600  12.565  12.317 -0.3411  0.2033 -0.0152
18402W        W33533  16.967   2.333  14.676 -0.0469 -0.2914  0.1765
18403W        W33534   5.917   9.927  13.357 -0.0560 -0.0007  0.0176
18404W        W33535  11.474  15.695  11.593  0.1280 -0.0455 -0.2796
18405W        W33536  14.562  13.740   3.064 -0.3713  0.2330 -0.2224
18406W        W33537  13.626  14.288  13.388 -0.2076 -0.1533  0.0402
18407W        W33538  13.517  14.557   3.418 -0.0825  0.0712  0.3163
18408W        W33539  14.815   7.788   0.696  0.1820 -0.0768 -0.0380
18409W        W33540   6.491  12.316   4.924  0.1286  0.1752  0.1522
18410W        W33541  11.021  16.756  12.973  0.2339 -0.1677  0.0799
18411W        W33542   5.910  17.095  11.713  0.0572 -0.2551  0.0806
18412W        W33543  16.236  10.549  10.040  0.0206  0.0892 -0.2018
18413W        W33544   3.081   1.062   3.560  0.1738 -0.1488 -0.0998
18414W        W33545   8.680   1.391  15.690 -0.1049  0.2897 -0.3751
18415W        W33546  14.599   7.276  11.246  0.2418 -0.0751  0.1777
18416W        W33547   4.654   0.663  12.416  0.2286 -0.3854 -0.1503
18417W        W33548   9.053  15.199   2.301  0.1254  0.2841 -0.1434
18418W        W33549   3.420   1.746  13.274 -0.0679  0.0859 -0.0497
18419W        W33550  17.520  15.158   1.891 -0.0526 -0.1127 -0.2707
18420W        W33551  17.184  12.522  15.004 -0.0964 -0.0587 -0.1077
18421W        W33552  13.511  15.457  14.408  0.0936  0.1307  0.0058
18422W        W33553  11.108  11.283   9.669  0.2609 -0.3739 -0.3444
18423W        W33554  16.744   2.813  11.648  0.1031  0.2385 -0.4110
18424W        W33555   6.328   0.139  12.759 -0.1829  0.1876  0.2019
18425W        W33556  10.454   8.995   9.976  0.0566  0.1035  0.2637
18426W        W33557  13.508  11.023  15.869  0.0199  0.1492 -0.0592
18427W        W33558  14.818  12.354   0.455 -0.0425 -0.2197  0.1589
18428W        W33559   9.099  12.324   2.367 -0.0843  0.0218  0.1232
18429W        W33560   2.620  17.858   1.463  0.1801 -0.0801 -0.3881
18430W        W33561   4.668  14.521  11.189  0.3580  0.2016 -0.3263
18431W        W33562   5.286   5.984   1.007  0.0128  0.0613  0.0773
18432W        W33563   6.803   6.439  11.237  0.3288 -0.0711 -0.0137
18433W        W33564  15.496   9.961  11.347  0.2150  0.1090  0.1045
18434W        W33565   4.481   4.658   2.077 -0.0726  0.0638 -0.3748
18435W        W33566  18.242   6.018  12.631 -0.0917 -0.0428  0.1262
18436W        W33567  12.039   1.714   4.819 -0.0741 -0.2701 -0.2131
18437W        W33568   1.349   0.069   4.454 -0.0910 -0.2651  0.1237
18438W        W33569   4.551   5.750   1.800 -0.1181  0.2178  0.0439
18439W        W33570   5.825   1.973   0.479 -0.0207  0.0150 -0.1016
18440W        W33571  15.219   7.579  10.558  0.1537  0.0421  0.1272
18441W        W33572   5.663  10.750  13.066 -0.1481 -0.3599  0.2564
18442W        W33573  14.675   5.410   2.052 -0.1861  0.0490  0.3092
18443W        W33574  17.741  16.509   5.160  0.1858  0.0344 -0.0154
18444W        W33575   4.174  15.861   5.406 -0.0393  0.2183  0.0254
18445W        W33576   7.650   9.495   0.266  0.0612  0.3229 -0.1070
18446W        W33577  16.680   6.364  11.227 -0.0286 -0.1690  0.0699
18447W        W33578   9.891   3.461  11.272  0.2153  0.1615  0.2609
18448W        W33579  12.485  12.187  14.832  0.2988  0.0323  0.0114
18449W        W33580   0.221  12.983   4.606  0.0249  0.1446  0.1244
18450W        W33581   8.204  14.525  13.788  0.0318 -0.0602 -0.3820
18451W        W33582   5.594   3.530   6.079 -0.0169  0.2743 -0.2645
18452W        W33583   1.258   3.595  12.361  0.0786 -0.0386 -0.1102
18453W        W33584   3.401   9.499  10.679  0.0322 -0.1310  0.1332
18454W        W33585  14.157  12.897   2.343  0.3222  0.0876  0.4164
18455W        W33586   2.048   6.465  12.353  0.0389  0.0417  0.4350
18456W        W33587  16.606   7.958  13.736 -0.1431  0.0225 -0.4636
18457W        W33588   7.836  17.608  15.020 -0.2567  0.0514 -0.1466
18458W        W33589   7.118   1.769  11.268 -0.0274  0.0761  0.2771
18459W        W33590  11.080   0.425   3.782 -0.0735  0.1219 -0.1140
18460W        W33591   0.949  17.331  11.790  0.1207 -0.0584 -0.2502
18461W        W33592   4.638   1.375   1.326 -0.2310  0.0408  0.1119
18462W        W33593   5.749   0.479   1.433 -0.1168 -0.1316  0.1005
18463W        W33594  14.633  10.370  13.524 -0.0540  0.1853 -0.0256
18464W        W33595  17.732  14.517  11.581  0.2197 -0.0769 -0.1048
18465W        W33596  16.133   5.720  15.167  0.2399 -0.0503  0.3103
18466W        W33597   8.588  12.958  10.947  0.2748  0.2365 -0.0250
18467W        W33598  15.477   9.343  13.819  0.0603 -0.0109  0.0093
18468W        W33599  11.820  14.863   3.839  0.2599 -0.0555 -0.2055
18469W        W33600  13.867  17.863  10.019  0.0417 -0.1106 -0.1911
18470W        W33601  15.107   6.770  10.741 -0.1681 -0.0444  0.1252
18471W        W33602  12.664   3.806  12.518  0.0121  0.3769 -0.0686
18472W        W33603  17.000   3.379  15.250  0.2078 -0.2182 -0.1553
18473W        W33604  10.527   2.489  12.679  0.4012  0.0760  0.4035
18474W        W33605  16.815   4.058  12.283  0.0617  0.1703  0.2531
18475W        W33606  11.918   4.983  11.612 -0.0994  0.0599  0.0620
18476W        W33607   1.363  14.049  12.127  0.3560  0.0768 -0.0967
18477W        W33608   1.580  15.542   4.798  0.2589  0.0897 -0.2411
18478W        W33609  12.904  17.518   5.374 -0.2085  0.0536 -0.1760
18479W        W33610   4.197   0.364  12.508  0.0961 -0.0720  0.1030
18480W        W33611   8.234  13.691   2.561 -0.0179  0.2058  0.2044
18481W        W33612   8.847  17.060  12.634  0.3065 -0.3252 -0.1651
18482W        W33613  18.018   7.621  11.494 -0.1038  0.3023 -0.1422
18483W        W33614   6.576  16.239   3.128 -0.0170  0.0696 -0.2211
18484W        W33615   6.033   1.868  13.826 -0.2008  0.0751  0.2486
18485W        W33616  14.906  14.770   2.180  0.0688 -0.0810  0.0312
18486W        W33617   2.334  13.021  15.207 -0.1408  0.1094 -0.1165
18487W        W33618   4.225  14.668  15.642  0.2641 -0.1125  0.0690
18488W        W33619   9.725   0.676  13.479 -0.0678  0.3249  0.1634
18489W        W33620   5.844   5.989   0.883 -0.1062  0.0378 -0.1263
18490W        W33621  10.971   1.166  12.660 -0.1305 -0.0771  0.0591
18491W        W33622   1.931   6.753  10.131 -0.1856  0.1171 -0.4540
18492W        W33623   3.243   3.681   4.493 -0.2857  0.0930 -0.2567
18493W        W33624  10.485   8.524  14.267 -0.0364  0.0987  0.0961
18494W        W33625  11.780   9.265  13.131 -0.0189 -0.2952  0.1320
18495W        W33626   4.898  13.983   0.803 -0.3861 -0.2313  0.3163
18496W        W33627  13.017   0.935   1.751  0.1759  0.0920 -0.1959
18497W        W33628   8.361   8.869   2.073 -0.2817  0.1378 -0.0927
18498W        W33629   5.648   5.195   3.028  0.1824  0.1651  0.1745
18499W        W33630   7.798  17.996  12.456  0.0768 -0.2279  0.0370
18500W        W33631  12.650   3.121  14.364 -0.4174  0.2043 -0.2448
18501W        W33632   8.788   0.653  15.751  0.0748  0.0195 -0.0680
18502W        W33633   5.075  10.015  10.658 -0.0036 -0.1621  0.2135
18503W        W33634   3.143  13.028  10.865 -0.0101  0.2166  0.0238
18504W        W33635   6.155  10.418   2.049 -0.1469 -0.4137  0.1103
18505W        W33636  15.356   4.205   4.615 -0.2401 -0.2250 -0.0508
18506W        W33637   3.302   8.390  15.989  0.0045  0.0322  0.1364
18507W        W33638  10.819   2.728   2.353  0.0442  0.4549 -0.1248
18508W        W33639   9.563   8.168  15.883 -0.1569 -0.3732 -0.1452
18509W        W33640   9.239   5.213  13.419  0.1641  0.0232  0.3321
18510W        W33641  18.074   8.332  11.384  0.3689 -0.1752 -0.2352
18511W        W33642   0.387   9.427   5.026  0.1001  0.2039 -0.0132
18512W        W33643  11.060   1.749  14.254  0.0958 -0.0843 -0.0678
18513W        W33644  16.155  13.924  15.812  0.0628  0.1662  0.2400
18514W        W33645   8.405   5.018   4.690  0.1833 -0.0864  0.0328
18515W        W33646   4.806  14.045   0.168 -0.1272  0.1641  0.4048
18516W        W33647   8.991   9.339  11.150 -0.2955  0.1556 -0.0119
18517W        W33648  17.264  14.478  12.447 -0.0790  0.1964 -0.2710
18518W        W33649   3.017  11.635   4.518 -0.3764 -0.0359  0.2761
18519W        W33650  15.845   7.781  11.815 -0.3105  0.1955  0.0453
18520W        W33651   0.250  15.357   2.493 -0.2099  0.3747 -0.2006
18521W        W33652   2.822   9.244   5.423 -0.4078 -0.2484 -0.0688
18522W        W33653   7.918   0.452  13.027  0.3616 -0.2230  0.0569
18523W        W33654  18.231  12.118   5.828  0.1750  0.1596  0.1542
18524W        W33655   2.578   5.515  14.986  0.1515  0.4506 -0.0287
18525W        W33656  15.130   6.744   0.367  0.1626  0.1808 -0.3359
18526W        W33657   2.605  13.762   0.950  0.1465  0.2453  0.2104
18527W        W33658  15.585   1.561   5.818  0.0326  0.1615 -0.1239
18528W        W33659  10.691   6.213  12.315  0.0156  0.0014  0.2057
18529W        W33660  17.267   3.434  12.131 -0.3211 -0.0373  0.0500
18530W        W33661  15.695  16.774  13.341  0.0959 -0.1100  0.0915
18531W        W33662  11.879  10.869  14.985  0.3084  0.0203 -0.0380
18532W        W33663   5.531  11.312   2.714 -0.1243 -0.1875 -0.0319
18533W        W33664   0.150   5.873   0.160  0.1777 -0.1259  0.1811
18534W        W33665   2.644   7.763   4.728 -0.0365  0.2326  0.0914
18535W        W33666   6.070   3.576  13.820  0.1671  0.1782 -0.3887
18536W        W33667   3.314   6.007  11.381 -0.1367 -0.1580 -0.3611
18537W        W33668   2.688  17.446   2.194  0.0575  0.1033  0.1818
18538W        W33669   7.303  11.213   1.423 -0.1751  0.2423  0.1601
18539W        W33670  11.733   1.809  15.404 -0.2711  0.0625  0.0008
18540W        W33671  14.414  13.383   2.134  0.4316 -0.1657  0.2908
18541W        W33672  14.906   7.660  13.170  0.2052 -0.0913 -0.0410
18542W        W33673   8.858   9.208  15.798 -0.0391  0.1901  0.2259
18543W        W33674  14.768  14.970  14.628  0.2223 -0.2175  0.1205
18544W        W33675   7.268  10.208  12.106 -0.0801  0.1087 -0.0222
18545W        W33676   1.444  10.212   2.080 -0.2750 -0.0639  0.2179
18546W        W33677  18.322   0.628  11.400  0.1498  0.2872  0.3066
18547W        W33678  15.395   8.602  16.044  0.1203 -0.1682 -0.0709
18548W        W33679   1.383   6.851   4.681  0.3036 -0.0358  0.0890
18549W        W33680   0.212   7.121  15.249 -0.1636 -0.3728  0.0744
18550W        W33681  12.686   8.366  13.941  0.1481  0.0565 -0.0086
18551W        W33682  10.797   3.444   4.032 -0.1553 -0.0453  0.0808
18552W        W33683   6.608   0.080   1.239  0.0680  0.2177 -0.1338
18553W        W33684  17.327   0.979   0.325  0.3352 -0.1005  0.0736
18554W        W33685   8.790  14.802   0.175  0.2014  0.0072 -0.0671
18555W        W33686   0.102   8.929  13.460 -0.2920 -0.1484  0.1625
18556W        W33687   6.818  11.147   5.650  0.2240  0.0915 -0.6973
18557W        W33688   8.225  13.217  11.225  0.2952 -0.1757 -0.0011
18558W        W33689   6.215   6.472  12.819  0.2234 -0.0472 -0.3330
18559W        W33690   4.761  15.816  13.579 -0.1765 -0.0431  0.3873
18560W        W33691  17.344   9.528  12.381 -0.1278  0.1947 -0.1067
18561W        W33692   5.986   6.739   1.290 -0.3061 -0.1087  0.0065
18562W        W33693  15.611   1.417   5.010 -0.2338 -0.1394 -0.2191
18563W        W33694  18.084   6.094   2.870 -0.0577 -0.1088 -0.2350
18564W        W33695  11.970   4.833   1.684 -0.4096  0.2359 -0.0454
18565W        W33696   6.648   5.553   0.405 -0.2289  0.0486  0.0689
18566W        W33697   5.453  13.876  10.844 -0.0893  0.0806  0.1046
18567W        W33698   0.993  15.634  12.705 -0.0559 -0.0901 -0.0945
18568W        W33699   6.050  12.273   1.393 -0.0022 -0.0025  0.0533
18569W        W33700   4.182  11.440  11.860  0.0795  0.1192 -0.0154
18570W        W33701   5.525  11.278  13.113 -0.0739  0.0993  0.0309
18571W        W33702  13.928   2.373  15.857  0.1589  0.0485  0.0039
18572W        W33703  13.822   3.447   3.211  0.1624 -0.1218  0.2204
18573W        W33704   6.526   8.343   2.204 -0.1831  0.2899 -0.1220
18574W        W33705  14.023   0.614   5.920 -0.1625  0.3108  0.2752
18575W        W33706   7.381   9.091  14.565  0.2070  0.0266 -0.3630
18576W        W33707   3.788   1.390  12.134  0.1554 -0.1524 -0.0309
18577W        W33708  15.739   6.084   2.760  0.0701  0.1350  0.0448
18578W        W33709  15.970   2.873   3.674  0.0961 -0.0072  0.2626
18579W        W33710   3.167   5.871  15.190  0.0900 -0.1605 -0.2722
18580W        W33711  13.127   1.373  15.624  0.0575 -0.2708 -0.1692
18581W        W33712   8.749   0.612  13.460 -0.2296 -0.0035 -0.2088
18582W        W33713  13.803   8.634  11.246  0.1173 -0.3690 -0.1607
18583W        W33714  12.632  12.631  15.251  0.3082 -0.0877 -0.0233
18584W        W33715  18.314   1.448  10.911 -0.1184  0.0507 -0.1327
18585W        W33716  16.123   0.335  11.646 -0.0230 -0.0028 -0.1633
18586W        W33717   3.261   0.177  11.575 -0.1171 -0.0081 -0.1973
18587W        W33718   2.854   8.069   3.541  0.1078 -0.2365 -0.3120
18588W        W33719   7.927  17.639  14.241  0.0307  0.1964  0.1524
18589W        W33720  13.836   4.874  12.996  0.0146 -0.1073 -0.0316
18590W        W33721   2.626   3.875  12.605  0.0435  0.1857 -0.2674
18591W        W33722  16.666   4.323   2.104  0.1931  0.0690 -0.2535
18592W        W33723  11.654  17.347  11.360 -0.1488 -0.1746 -0.0362
18593W        W33724  17.172  14.229   4.971 -0.2399  0.0729  0.1830
18594W        W33725  10.695   4.357   4.699 -0.0164 -0.3132 -0.0262
18595W        W33726   2.227  14.594   1.077 -0.2069 -0.1147 -0.0508
18596W        W33727  14.441  14.658   2.941  0.1746  0.3243 -0.0524
18597W        W33728  13.972  12.927   2.806  0.0966 -0.1404  0.1459
18598W        W33729  12.364  12.101  13.009  0.1775 -0.1118  0.0104
18599W        W33730  11.743   0.076  13.502  0.1907 -0.1347  0.1375
18600W        W33731  12.905   2.261  10.931  0.1317 -0.3214 -0.1250
18601W        W33732  11.895  17.639  14.317 -0.0144 -0.0018  0.0513
18602W        W33733  12.949   0.927   0.809 -0.0307 -0.0681  0.2806
18603W        W33734  12.679   5.108   1.995  0.2937 -0.3321 -0.1317
18604W        W33735  13.250  15.823   5.141 -0.0810 -0.2655 -0.1652
18605W        W33736   1.242  10.870  12.437  0.1397 -0.1535  0.1550
18606W        W33737   7.590  14.713  12.752  0.1525 -0.0145  0.1487
18607W        W33738   5.125  17.183  12.946  0.2703 -0.1211  0.1674
18608W        W33739  17.446  17.688  12.592  0.1339  0.1390  0.2667
18609W        W33740  12.840   5.578   1.254  0.0081  0.2971  0.0011
18610W        W33741  15.491  16.035  12.100  0.1278  0.0468  0.0904
18611W        W33742  11.916   1.267   1.559  0.0542  0.1436  0.2116
18612W        W33743  15.453  15.529  12.293 -0.3665  0.0776  0.0523
18613W        W33744   8.812  10.633  14.939 -0.2514 -0.4799 -0.0979
18614W        W33745   3.822   9.124   3.236 -0.2573  0.0214  0.1090
18615W        W33746  11.949   5.589   1.977 -0.0930 -0.1845  0.1386
18616W        W33747  14.688  16.192  12.125 -0.3880 -0.1341  0.0240
18617W        W33748   5.622   8.012   1.458  0.2903  0.3075  0.2394
18618W        W33749  11.000  10.864   1.218  0.2217  0.1943 -0.0017
18619W        W33750   4.689   6.669   2.745  0.0083 -0.1038  0.1430
18620W        W33751   5.619  18.328  13.509  0.1448  0.0395 -0.0989
18621W        W33752   2.635  16.494   1.928  0.2619  0.4142 -0.0734
18622W        W33753   4.719   0.582  10.700 -0.2524 -0.0575 -0.1190
18623W        W33754   3.568   7.005  12.773  0.1591 -0.1102  0.0022
18624W        W33755  14.573  17.449  15.162 -0.1756 -0.1146  0.2166
18625W        W33756   2.306  12.395  15.103 -0.1419 -0.2707  0.2231
18626W        W33757  10.274  16.184   4.025  0.0291  0.0435  0.0047
18627W        W33758  12.626   3.081  13.029 -0.2108  0.0172  0.0725
18628W        W33759   7.589  12.845   3.163  0.2317 -0.1045  0.0564
18629W        W33760   4.330  16.943   3.356  0.0862  0.1731 -0.3728
18630W        W33761   9.065  16.779  15.148 -0.2165 -0.2064 -0.0441
18631W        W33762   8.608  10.245   3.797  0.1168  0.1425  0.0431
18632W        W33763   2.148  14.259   2.446 -0.0673 -0.0791  0.1267
18633W        W33764  10.805  11.835  11.312 -0.0829  0.1853 -0.1618
18634W        W33765   9.386  14.655  12.769  0.2178  0.2995 -0.0112
18635W        W33766   8.957   5.531  13.161  0.1137 -0.1753 -0.1313
18636W        W33767  17.097   6.551  11.486 -0.2805 -0.1396 -0.0159
18637W        W33768  14.922   1.604   0.174  0.2244 -0.2820 -0.0413
18638W        W33769  12.634  14.363  13.250  0.0032 -0.3215  0.3939
18639W        W33770   5.185  14.558   3.427 -0.4694 -0.0700  0.0120
18640W        W33771  10.818   0.145   2.218  0.0692  0.0464  0.1651
18641W        W33772   8.710   1.170   1.854 -0.0090  0.5187 -0.1264
18642W        W33773   3.983  12.622   0.871 -0.1213  0.2812  0.0512
18643W        W33774  17.741  17.424   3.935  0.0366  0.0250  0.1797
18644W        W33775  11.217   2.652   1.351 -0.2519 -0.1481  0.0955
18645W        W33776   7.229   5.058  12.602 -0.1409  0.0167  0.0187
18646W        W33777   2.578   2.638   3.046 -0.1487  0.0557  0.1621
18647W        W33778  16.521   0.537  11.479 -0.0157  0.0154  0.0096
18648W        W33779   8.381  14.870   4.952 -0.3141  0.0716  0.0974
18649W        W33780   7.186  13.365  13.749 -0.2214 -0.2573 -0.0174
18650W        W33781   7.198  11.861   3.595  0.2034 -0.0324 -0.0123
18651W        W33782   4.266  13.248   2.499 -0.1937  0.3402  0.0515
18652W        W33783  18.141  14.776   1.290 -0.3090 -0.2192  0.0623
18653W        W33784  17.050   6.441   2.818 -0.0634 -0.1181  0.1855
18654W        W33785  11.879  17.516   3.342 -0.0949  0.0215  0.0711
18655W        W33786   7.284   1.172  13.401 -0.1061 -0.1141  0.2882
18656W        W33787  16.442   0.776   6.116  0.1741 -0.1575 -0.2090
18657W        W33788  18.010  15.764  11.516  0.0757  0.0292  0.0371
18658W        W33789   8.421   7.765   2.215  0.0183 -0.1741 -0.0850
18659W        W33790  16.587  11.356  14.693 -0.0332  0.1337 -0.0963
18660W        W33791  16.675  13.206  12.993  0.2390  0.0524  0.0421
18661W        W33792   9.842   7.942   2.041 -0.1134 -0.3096  0.1396
18662W        W33793   3.121   6.963  15.645 -0.1203  0.2048 -0.2746
18663W        W33794  17.397  11.259  11.266  0.0389 -0.2067  0.0690
18664W        W33795   4.716   1.035  13.694 -0.0321  0.1080 -0.0500
18665W        W33796  12.120   2.332   0.088 -0.2829 -0.5331  0.0480
18666W        W33797  17.727   2.410   5.778  0.0942  0.2030  0.0174
18667W        W33798   7.018   8.351  15.535  0.0606  0.0322 -0.2105
18668W        W33799   9.788  17.320  11.221  0.1267 -0.0377 -0.0662
18669W        W33800   1.282   5.543   4.391 -0.2069 -0.0666  0.2322
18670W        W33801   7.980   5.106  14.911 -0.0564 -0.3043 -0.1254
18671W        W33802   4.537   1.144   2.562  0.2995  0.0677  0.0615
18672W        W33803   2.116   2.382  15.287 -0.0270 -0.0780  0.0536
18673W        W33804  12.672   0.438  13.011 -0.0467 -0.1867 -0.0909
18674W        W33805  14.567   2.509  11.465  0.1867  0.4781  0.1085
18675W        W33806  13.727   3.324   4.751  0.1698  0.0054 -0.1574
18676W        W33807  14.789  11.721   2.849 -0.2043 -0.0777  0.2611
18677W        W33808   0.975   8.025   1.330 -0.0777 -0.0839 -0.3739
18678W        W33809  12.038  15.318   1.244  0.1270 -0.2949  0.0321
18679W        W33810   4.341   1.048  12.311 -0.0508 -0.2427  0.0839
18680W        W33811   1.507   9.746  10.790  0.1565  0.2596  0.0874
18681W        W33812   9.248  11.010  14.220 -0.0546 -0.0973  0.2778
18682W        W33813  11.346  14.434  15.805 -0.0379  0.0603  0.3218
18683W        W33814   7.227   5.805  14.163  0.0927 -0.0072  0.0670
18684W        W33815  14.419  14.631   3.981  0.1289 -0.1431  0.0987
18685W        W33816   7.066  18.034  11.172  0.1943 -0.0502  0.0107
18686W        W33817  15.944  17.951   5.449  0.3711 -0.0276  0.5567
18687W        W33818  15.968  12.630  13.878 -0.0504  0.0274 -0.1334
18688W        W33819  15.632   8.785  14.856 -0.1482  0.2260 -0.0981
18689W        W33820   2.036   1.092   4.895 -0.1992  0.0184  0.2315
18690W        W33821   7.756  14.458  13.527  0.2181 -0.1589 -0.0325
18691W        W33822  17.972   7.925  15.312  0.3332 -0.0578 -0.0210
18692W        W33823   9.464  14.204   0.649 -0.0883 -0.1193 -0.1882
18693W        W33824   6.943   3.996   0.739  0.1859 -0.0717 -0.0148
18694W        W33825  11.086  11.268  11.414  0.1091  0.2793 -0.0719
18695W        W33826   6.410   6.350  15.297  0.2882 -0.0758 -0.0379
18696W        W33827   8.605  15.524  10.961  0.1384  0.0097 -0.2354
18697W        W33828  17.541   4.047  11.860  0.2001  0.0438 -0.1641
18698W        W33829   1.635   1.892   5.387  0.2125  0.0117 -0.3840
18699W        W33830   9.709   9.854  11.327 -0.0484  0.0873  0.2655
18700W        W33831  14.727  12.617  13.369 -0.4242  0.4291  0.0042
18701W        W33832  13.037   8.363  12.240 -0.0900 -0.2922  0.2092
18702W        W33833   6.401   4.299   6.418 -0.0282 -0.2036 -0.0711
18703W        W33834   8.225  13.710  14.812  0.1327 -0.1290 -0.1327
18704W        W33835   4.501   4.182  12.228  0.2332  0.1148 -0.1202
18705W        W33836   8.398  16.401   6.023  0.3033 -0.1920  0.4325
18706W        W33837  11.083   2.407   3.404  0.1825 -0.2868 -0.4558
18707W        W33838   8.138  11.909   0.315 -0.0452 -0.1986 -0.0500
18708W        W33839   0.202  10.098  15.127  0.0564 -0.1008 -0.0962
18709W        W33840   3.769  18.055  15.221  0.0070 -0.0075  0.1277
18710W        W33841   9.910  10.194   4.767 -0.1100 -0.1976 -0.1756
18711W        W33842   3.001  15.069   1.945 -0.3048  0.0274 -0.1647
18712W        W33843  12.875   7.972   5.271  0.0675 -0.1092  0.0336
18713W        W33844  15.180  11.508  14.448 -0.0835  0.1507  0.0225
18714W        W33845  11.904  16.112   4.645  0.0205 -0.1248 -0.1119
18715W        W33846  16.758  17.765  11.434  0.1419  0.1715 -0.1732
18716W        W33847   6.927  10.176  10.899  0.1963  0.1962  0.1807
18717W        W33848   1.485  15.278   2.837  0.0964 -0.0759  0.0047
18718W        W33849  15.465   3.675  12.199 -0.0565 -0.1108  0.2380
18719W        W33850  12.965  13.961  12.879 -0.1503 -0.0534  0.0218
18720W        W33851  10.795   9.713   0.542 -0.1302  0.1717 -0.1635
18721W        W33852   1.932   9.111  11.490  0.3215  0.0445 -0.0543
18722W        W33853   8.633  17.711  10.057 -0.0815 -0.0692  0.0046
18723W        W33854  14.561  13.074  11.228 -0.1356 -0.1859  0.0212
18724W        W33855   0.895   7.580  10.157 -0.1421  0.1426 -0.0567
18725W        W33856   0.632  16.686   0.273 -0.0625 -0.2546  0.1493
18726W        W33857   9.568  13.655   3.330  0.0628  0.0416 -0.2341
18727W        W33858  17.299  11.149   1.109 -0.0053  0.0706  0.2206
18728W        W33859   3.714  17.596  14.432 -0.1198  0.1385  0.0829
18729W        W33860   4.525   5.637   5.868 -0.0947 -0.0419  0.3864
18730W        W33861   3.743   1.814  15.963 -0.3374 -0.3207  0.0858
18731W        W33862   6.842  11.243  15.419  0.3927  0.1583  0.1500
18732W        W33863  14.428  10.682   0.052 -0.0517  0.0566  0.0180
18733W        W33864   9.450   1.515  12.643  0.1482 -0.1564 -0.0295
18734W        W33865   5.756  11.982  11.106 -0.3620  0.2002 -0.0828
18735W        W33866   8.009  12.419   4.833  0.0349  0.1126  0.1953
18736W        W33867  11.783  15.868   4.150 -0.1105 -0.0695  0.3465
18737W        W33868   5.102   9.917  15.633 -0.1498 -0.0028  0.1446
18738W        W33869  13.703   7.893   3.574  0.2472  0.0461  0.2573
18739W        W33870   3.378   4.880  12.711  0.0128  0.0158  0.0651
18740W        W33871  15.638  15.969   4.917  0.1638  0.1503  0.0374
18741W        W33872   8.544   9.228  14.748 -0.0635 -0.1282 -0.0281
18742W        W33873   9.872  13.986  15.689  0.0512 -0.2718 -0.0349
18743W        W33874   1.744  16.783  13.576 -0.0807  0.3153  0.1124
18744W        W33875  13.959  14.007   2.012  0.0098  0.1005  0.2281
18745W        W33876   0.537   9.498  13.047 -0.2462 -0.1111  0.0198
18746W        W33877   7.903   8.993   0.243 -0.0057 -0.2483 -0.1759
18747W        W33878  16.465  15.794   1.103  0.1344  0.0526  0.1418
18748W        W33879  17.666   0.398   1.625 -0.0139  0.0373 -0.0535
18749W        W33880  14.122   7.397   4.924  0.2432 -0.1487 -0.0775
18750W        W33881  18.191   2.051  11.997  0.0523 -0.0091 -0.2871
18751W        W33882   2.884   8.711   5.373  0.1045  0.0332 -0.0853
18752W        W33883   2.278   9.954   2.585 -0.3034  0.1063  0.0802
18753W        W33884   8.342   2.883   2.836 -0.0608 -0.3613  0.3259
18754W        W33885  13.501  15.868   3.435  0.1713  0.1085 -0.1439
18755W        W33886   1.427  11.664   5.305 -0.1055  0.0419 -0.0051
18756W        W33887   3.520  16.811   2.393 -0.5835  0.0034  0.0284
18757W        W33888  12.293  11.050   3.371  0.1052 -0.0317 -0.0045
18758W        W33889   9.138  15.822  12.602  0.1392 -0.1072  0.0446
18759W        W33890   8.200   6.656   2.757  0.2789 -0.0764  0.2036
18760W        W33891   4.435   0.456   2.835  0.0790  0.1074  0.0961
18761W        W33892   0.676   5.975   1.354  0.1596  0.0501  0.1667
18762W        W33893   6.204  11.313  11.904  0.0798  0.2564  0.0308
18763W        W33894  13.813  13.559  15.426  0.0174 -0.0871 -0.1311
18764W        W33895   5.662  13.834  15.424 -0.0756  0.2556  0.0918
18765W        W33896  16.768  15.110  14.372 -0.1031  0.0957  0.2690
18766W        W33897  13.915  16.799   0.166 -0.0166  0.0863 -0.2116
18767W        W33898  13.417  10.102   1.506 -0.2548  0.0857  0.0779
18768W        W33899  15.934   0.101  13.544  0.1489  0.0806 -0.1265
18769W        W33900   3.754   6.389  14.683 -0.1659  0.0566 -0.2091
18770W        W33901  12.424   6.316   1.849 -0.0257  0.2987 -0.2543
18771W        W33902  11.774   8.654  13.821  0.0312  0.1726 -0.2681
18772W        W33903   1.110   5.449   0.111 -0.1764  0.1945 -0.1833
18773W        W33904  13.921  10.089   1.688 -0.4474  0.0919 -0.0817
18774W        W33905  17.291   2.068  11.396  0.1530  0.1706 -0.1788
18775W        W33906  10.767   0.595   2.409  0.0679  0.3828  0.0782
18776W        W33907   7.867   5.350   0.274  0.0415  0.2259 -0.3512
18777W        W33908  17.840   1.611   5.002  0.1097  0.2569 -0.0656
18778W        W33909   9.172   2.133   5.327 -0.2219  0.3158 -0.0293
18779W        W33910   7.015   4.005  11.158 -0.0185 -0.1246 -0.1309
18780W        W33911   6.981  11.272   0.009  0.2273  0.3035 -0.0831
18781W        W33912  16.078  11.563   9.932 -0.1373 -0.1125  0.0600
18782W        W33913   5.017   7.938  12.595  0.2066 -0.1326 -0.1378
18783W        W33914  14.669   7.826  15.427 -0.0176  0.0767  0.0154
18784W        W33915   8.133  10.269  14.895 -0.0328 -0.0714  0.0385
18785W        W33916   4.672  12.725   2.085 -0.0212 -0.0248 -0.1742
18786W        W33917  15.048   7.789  14.026 -0.1832  0.1471 -0.1645
18787W        W33918  14.928  11.842  10.996  0.0075 -0.2937  0.3197
18788W        W33919   9.702  16.007  12.234 -0.0884  0.0018 -0.1828
18789W        W33920   0.642   0.586  12.865  0.4195 -0.0292  0.1394
18790W        W33921  17.442   8.604   1.934  0.2289 -0.1876  0.1014
18791W        W33922  13.515   0.533  10.944 -0.2564 -0.0085  0.0860
18792W        W33923  17.255  15.344  14.326 -0.1356  0.1432 -0.0095
18793W        W33924   7.787  11.570  11.404  0.2431 -0.2264  0.3707
18794W        W33925  12.325   0.471  13.383  0.1003 -0.0384  0.1180
18795W        W33926   8.627   8.891  13.814  0.0182 -0.1217  0.2532
18796W        W33927   2.823   9.673   0.882 -0.1974  0.0653 -0.2502
18797W        W33928  15.667   4.549   4.833  0.2160 -0.0562  0.5960
18798W        W33929  11.322   2.975  11.914 -0.2544 -0.0251  0.4746
18799W        W33930   9.818   8.298  11.246  0.0860 -0.1173 -0.0597
18800W        W33931  12.671   4.948  12.966  0.3822 -0.1864  0.1044
18801W        W33932  15.754   4.059  12.042 -0.2367 -0.1951  0.1982
18802W        W33933   7.230   6.487  13.361 -0.1484 -0.1826 -0.0013
18803W        W33934   5.333  15.695  15.783 -0.1813 -0.0690  0.1119
18804W        W33935   4.492   2.171   0.396  0.1969  0.0372  0.0088
18805W        W33936   1.471  10.925  14.254 -0.0162  0.0975  0.0541
18806W        W33937  18.329   3.076  15.475 -0.0895 -0.3181  0.2126
18807W        W33938   4.811  17.912  15.410 -0.1507 -0.3230  0.0647
18808W        W33939  16.623   2.286   0.335  0.3313  0.1687  0.1392
18809W        W33940   4.366  17.900  14.811  0.0793  0.1424 -0.3492
18810W        W33941  15.909   8.198   2.721 -0.0220  0.1558  0.2721
18811W        W33942  13.657   7.106   4.904  0.0296  0.0274 -0.0067
18812W        W33943   7.975   6.181  13.584  0.0257  0.1077 -0.0375
18813W        W33944  17.827   9.740  13.136  0.0711  0.4095 -0.2362
18814W        W33945   9.442   3.093   0.188  0.1451  0.4794  0.0228
18815W        W33946  14.389  13.549   1.675 -0.0044 -0.0690 -0.0512
18816W        W33947   1.075  15.971   1.516  0.1513  0.4462 -0.0676
18817W        W33948  16.275  10.241  12.257  0.5260  0.0772  0.1891
18818W        W33949   0.618   5.917   2.633  0.4308 -0.0060 -0.0243
18819W        W33950   8.653  14.310   5.516 -0.0289  0.1041 -0.0646
18820W        W33951   3.754   0.957  14.811  0.0485  0.0457 -0.0430
18821W        W33952   5.459   4.910   6.209 -0.0353  0.1292  0.2232
18822W        W33953  14.089   7.088  13.102  0.2612  0.1601 -0.0451
18823W        W33954   9.777  10.860  15.639  0.1030 -0.2266  0.3027
18824W        W33955   7.398   7.640  10.264 -0.0964  0.2032 -0.2336
18825W        W33956  17.975   9.163   4.038 -0.1445 -0.4510 -0.2047
18826W        W33957   5.353   5.882   2.834  0.1805  0.2486  0.1427
18827W        W33958   4.301   8.296  13.172  0.1698 -0.1902 -0.1179
18828W        W33959   9.175   2.951  13.738  0.0341  0.1637 -0.0728
18829W        W33960  10.823   1.372  14.084  0.0606 -0.4276  0.0695
18830W        W33961  12.009  13.483   3.993  0.0847 -0.0513  0.0100
18831W        W33962  12.423   6.722  15.915  0.2871 -0.0723  0.0751
18832W        W33963  12.212   6.180   1.076  0.2193 -0.0380  0.1908
18833W        W33964   1.817   8.803  13.487  0.1529  0.1291 -0.1883
18834W        W33965   3.843  10.349   4.106 -0.3356 -0.1394 -0.1071
18835W        W33966  17.777  16.074   4.926  0.1189 -0.0305 -0.0259
18836W        W33967  10.228   9.411   1.764 -0.0444 -0.0512 -0.1092
18837W        W33968   0.525  16.676  15.631 -0.1049  0.0382 -0.2381
18838W        W33969  12.536  14.373  14.969  0.1641 -0.0475  0.0805
18839W        W33970   6.488   0.642   3.331 -0.0822 -0.3566 -0.0183
18840W        W33971   7.488   6.488   1.042 -0.1160 -0.4317 -0.0708
18841W        W33972  10.495   7.251   0.010 -0.3544 -0.0595 -0.3345
18842W        W33973   4.732  11.933   3.805 -0.3406 -0.2266 -0.1002
18843W        W33974   6.766  16.259   1.326 -0.1682 -0.0321  0.0069
18844W        W33975   3.219  11.312  15.759  0.1405 -0.4112  0.2022
18845W        W33976   8.819  11.934   5.475  0.1088  0.0399 -0.1891
18846W        W33977  16.214  11.407  10.365 -0.1221 -0.1705  0.1962
18847W        W33978  14.667   3.833  16.079  0.2573 -0.4651  0.1280
18848W        W33979   1.600  11.680   0.145  0.2357 -0.0114 -0.0007
18849W        W33980  10.435   2.170   3.134  0.0668 -0.0686 -0.1605
18850W        W33981  12.025  17.042   0.582 -0.1522  0.0202  0.0988
18851W        W33982  13.413  13.898  10.949  0.0410  0.0561 -0.0587
18852W        W33983  13.761  11.261  15.498  0.0211 -0.2099 -0.3221
18853W        W33984   2.499   1.053   6.199 -0.2253 -0.1913 -0.0832
18854W        W33985   1.763   7.908   5.003 -0.2678  0.2318  0.0068
18855W        W33986   0.977   0.418  12.524  0.1146  0.4392 -0.3569
18856W        W33987   0.187   7.067  13.617 -0.2300  0.0651  0.0963
18857W        W33988  17.860  18.140   4.582  0.1428  0.2455  0.1677
18858W        W33989   2.428  16.891   0.940 -0.1431 -0.1131 -0.2668
18859W        W33990  15.443   8.310   2.283 -0.1652 -0.1885  0.0524
18860W        W33991  13.951  18.088   3.844 -0.3664 -0.1668 -0.0518
18861W        W33992   8.306  10.834   4.916  0.0597  0.0173  0.1398
18862W        W33993   0.398   3.071   2.632 -0.0491  0.0418  0.0151
18863W        W33994  11.520   2.947   2.912 -0.0558  0.1803  0.0447
18864W        W33995  18.325  11.165   1.862  0.1218  0.2493  0.0930
18865W        W33996   8.600  12.701   0.469  0.1753  0.2287 -0.1871
18866W        W33997  13.006   0.331   5.015 -0.2809  0.0848 -0.2822
18867W        W33998  10.139  11.844   4.533  0.3520  0.3875  0.0084
18868W        W33999   6.063   8.931   1.640  0.0241 -0.0266 -0.1125
18869W        W34000   4.038  10.246   3.646 -0.2499 -0.1616  0.0846
18870W        W34001   7.928  11.065  15.935 -0.1198  0.0835 -0.1158
18871W        W34002  10.065   2.266   2.338 -0.2049 -0.0586  0.1361
18872W        W34003  14.977  13.409  11.947  0.0541 -0.3020 -0.0877
18873W        W34004   3.334   2.639   1.653 -0.4104  0.2858 -0.0910
18874W        W34005  13.192  10.103  15.809  0.0893  0.0959 -0.0119
18875W        W34006  10.511  16.953  13.529  0.1247  0.0909  0.3318
18876W        W34007  16.548   3.616   6.156 -0.3630 -0.2816  0.2187
18877W        W34008   4.667   0.586  15.563  0.0878 -0.2860  0.1174
18878W        W34009  12.632   9.973  14.462  0.0651 -0.2959  0.0380
18879W        W34010  11.736   6.709  11.732 -0.1130 -0.0735 -0.1208
18880W        W34011  10.552   2.193   4.211  0.0667  0.1635 -0.0607
18881W        W34012  15.874   3.511   4.270  0.1727 -0.0421  0.2079
18882W        W34013  13.582  13.410  13.580  0.0334  0.2008 -0.1316
18883W        W34014   8.641  16.081   4.333 -0.1340 -0.0364  0.0607
18884W        W34015  11.828   7.131  11.412  0.1344  0.0928  0.0706
18885W        W34016  10.616   2.302   1.719 -0.3497  0.0915  0.4179
18886W        W34017   9.548  12.115   3.874 -0.1693  0.1006  0.1722
18887W        W34018  11.671  15.776   0.122  0.2834  0.1688 -0.2130
18888W        W34019  11.555  16.990   3.709 -0.1780  0.1964  0.0377
18889W        W34020  11.673  11.538  12.626  0.1825  0.1763 -0.1902
18890W        W34021   4.967   1.456  15.332 -0.0178 -0.0771 -0.3092
18891W        W34022  11.083   6.167  11.345  0.0542 -0.0471 -0.0723
18892W        W34023   1.299  14.808   2.645  0.1640  0.1128 -0.0383
18893W        W34024   6.240   4.631   4.004 -0.0126 -0.2128  0.3094
18894W        W34025  16.662  13.171  14.863 -0.1079 -0.1995  0.2086
18895W        W34026   5.631  15.797  13.907 -0.2664 -0.0407  0.2374
18896W        W34027   3.131   8.697  14.090  0.0121 -0.0473  0.0334
18897W        W34028   6.554  16.641   4.634  0.0153  0.0026  0.2480
18898W        W34029   2.429  12.358  12.798  0.0304 -0.2898  0.1938
18899W        W34030  11.041   8.981   0.160  0.0879 -0.1240 -0.1096
18900W        W34031   5.122   4.964   4.261  0.1610  0.0765  0.0586
18901W        W34032   6.083   7.343  15.347 -0.2215 -0.1519  0.1159
18902W        W34033  12.962  13.225   1.712  0.0469 -0.0628 -0.0614
18903W        W34034   4.539   1.547   0.783 -0.1018  0.1577  0.1213
18904W        W34035   0.802   1.642  11.905  0.2196  0.0428 -0.1444
18905W        W34036  18.090  17.864   0.342  0.0026  0.1283 -0.1692
18906W        W34037   0.855  12.109   2.693  0.0251  0.1597  0.0071
18907W        W34038  14.643   2.164  13.196 -0.2854 -0.4326 -0.2162
18908W        W34039   3.177   4.380   5.528 -0.0056  0.0076 -0.2607
18909W        W34040  14.598   9.295  11.235  0.0000  0.1308 -0.2328
18910W        W34041  12.805   7.342   1.001  0.1208  0.0169 -0.0974
18911W        W34042   6.904  11.192  14.548 -0.0414 -0.4153  0.3288
18912W        W34043  16.535  10.336  10.750 -0.0721 -0.0856 -0.0596
18913W        W34044   2.190  11.018   5.325  0.0152  0.0637  0.0376
18914W        W34045  10.785   7.336  15.713 -0.0532 -0.0366 -0.1981
18915W        W34046   6.549  16.270  15.298  0.1458  0.3598  0.2143
18916W        W34047   1.155   3.286  11.402  0.1845 -0.0065  0.0775
18917W        W34048   9.765  16.679   3.385 -0.0255 -0.0806  0.1789
18918W        W34049  17.998   7.202  15.173 -0.5223 -0.0253 -0.0030
18919W        W34050   3.708  16.494  16.070 -0.2027  0.0001  0.3579
18920W        W34051  10.653   3.603   5.295 -0.0790  0.2177  0.2575
18921W        W34052  13.122  13.957  14.554 -0.0253 -0.2522 -0.3112
18922W        W34053  14.544   6.844   3.098  0.5860 -0.0993  0.1524
18923W        W34054  13.930  12.390  10.844  0.5344  0.1146  0.0208
18924W        W34055  11.107   0.923   0.254 -0.0298 -0.0171  0.0345
18925W        W34056  11.479   4.595   0.204 -0.2055  0.5563 -0.0673
18926W        W34057  12.481  18.295   2.169 -0.1527 -0.1929  0.2444
18927W        W34058   4.746   0.241  16.056  0.0732 -0.1845  0.1900
18928W        W34059   4.760  13.782   5.570 -0.1954 -0.3483  0.0463
18929W        W34060   6.212   9.034  15.830 -0.1059  0.0907 -0.1489
18930W        W34061  14.710  15.518   1.063  0.5773 -0.2081 -0.1666
18931W        W34062   6.167   9.935  13.891 -0.0422 -0.0271  0.0668
18932W        W34063   7.734   3.927   1.581  0.2817  0.1799 -0.3618
18933W        W34064   5.264  13.152   4.029  0.1644 -0.1079  0.3875
18934W        W34065   5.255   0.743   3.410  0.1039 -0.2238  0.0401
18935W        W34066   3.489  15.437  13.622 -0.1500  0.2799  0.2614
18936W        W34067  11.008   5.803  12.398  0.1295 -0.0266 -0.1744
18937W        W34068  15.113   6.112  13.078  0.3125 -0.0477  0.2535
18938W        W34069   8.832   2.906   3.188 -0.2575  0.0297 -0.3694
18939W        W34070   3.498  14.003  15.396 -0.1961 -0.1600  0.1737
18940W        W34071   1.505   4.203  15.944  0.3271 -0.1411 -0.1430
18941W        W34072  14.480  13.892   2.131 -0.2239 -0.1895  0.1989
18942W        W34073   8.259   2.656   4.421  0.1164  0.1914 -0.2661
18943W        W34074   1.439   9.403  11.984  0.1463  0.1794 -0.1774
18944W        W34075   4.475   6.381  10.984  0.0236  0.1131 -0.2472
18945W        W34076  15.483   2.717   1.470 -0.2210  0.1696  0.2241
18946W        W34077  17.621   3.589   3.352 -0.1299 -0.3001  0.0391
18947W        W34078  14.334   5.683  14.959  0.0263  0.1519  0.0856
18948W        W34079  12.376   9.959  10.309  0.0086 -0.3978 -0.1888
18949W        W34080   8.295  15.837   0.495 -0.0883  0.4303 -0.0298
18950W        W34081   5.390  13.032   0.454 -0.2944  0.2484 -0.0539
18951W        W34082  15.328   9.051   0.774 -0.1803 -0.0786  0.3108
18952W        W34083  17.180  10.649  14.776 -0.1610 -0.0768 -0.0734
18953W        W34084  17.372   3.865   2.759 -0.4804  0.2023 -0.1405
18954W        W34085   4.048   7.804   0.079  0.2100 -0.2132  0.0894
18955W        W34086  16.800  16.535  14.465  0.5555  0.0595  0.0710
18956W        W34087   0.103  16.084   3.614  0.1735 -0.1435  0.0792
18957W        W34088   6.575   1.699  15.140 -0.0361  0.1865  0.0295
18958W        W34089   9.811   4.842  10.841  0.1569  0.0377  0.0461
18959W        W34090  16.540   2.153   5.280 -0.1862  0.0282  0.0139
18960W        W34091  10.066   7.315   2.811  0.4545 -0.2610 -0.0217
18961W        W34092  14.188  15.318  12.888  0.2013  0.1149 -0.0442
18962W        W34093   8.420  14.563  13.337  0.2512  0.1819 -0.0983
18963W        W34094   6.390   3.560  15.863 -0.0708  0.1059 -0.3328
18964W        W34095  11.025  10.952   5.279 -0.1012 -0.1424  0.1020
18965W        W34096  11.904  17.346   4.547  0.2879 -0.0364 -0.1566
18966W        W34097   5.983   2.027  14.722  0.1073 -0.2992  0.3673
18967W        W34098  14.211   7.137   0.822 -0.0680 -0.1434 -0.0932
18968W        W34099  18.028  16.411   3.773 -0.1395  0.0076  0.1014
18969W        W34100   8.970  16.676  12.926 -0.2349  0.0805 -0.0563
18970W        W34101  17.077   0.195  13.964  0.2004  0.4034  0.1765
18971W        W34102   8.827   8.998  12.540 -0.0151  0.0747  0.1351
18972W        W34103  17.936  15.465   0.477  0.1117 -0.2862  0.0592
18973W        W34104   7.641   9.643   1.566  0.1978  0.1094  0.1327
18974W        W34105  12.906  12.671  14.738 -0.2587  0.2072  0.5442
18975W        W34106   0.587   0.812   0.921 -0.3505 -0.4123  0.0127
18976W        W34107   8.246  12.431   0.812  0.4113 -0.1008  0.0261
18977W        W34108   2.378  11.847  11.315  0.0462 -0.0281 -0.3180
18978W        W34109  16.329  15.992  11.421  0.1302  0.0253  0.3871
18979W        W34110   9.608   1.077   1.422  0.1884  0.1390 -0.0928
18980W        W34111   7.594   1.739  14.021  0.0976 -0.0154  0.2373
18981W        W34112   1.926   4.211   0.078 -0.1415 -0.2080  0.2365
18982W        W34113   1.831   4.054   2.136 -0.1466 -0.2918  0.5355
18983W        W34114  17.273  13.364  14.878 -0.0289  0.0328 -0.0526
18984W        W34115  10.530   6.542   2.520  0.1311  0.1009  0.0886
18985W        W34116  13.799   1.766  13.888  0.0768  0.0334 -0.1914
18986W        W34117   9.364  12.910  12.570 -0.1444  0.2845 -0.0675
18987W        W34118   9.124  17.816  14.020  0.2701  0.3178  0.2586
18988W        W34119   7.313  15.601   4.575  0.0548 -0.0262  0.0997
18989W        W34120  15.481   7.106  11.808  0.2256  0.2745 -0.0899
18990W        W34121   8.112  17.302   3.151  0.2243  0.2068  0.0024
18991W        W34122  13.503  15.129   4.715 -0.1130  0.2106 -0.0289
18992W        W34123   4.086  16.867  13.676  0.0659 -0.1678  0.0064
18993W        W34124  16.979  13.803  10.237 -0.1544 -0.1928  0.0014
18994W        W34125   6.381  13.460   2.498  0.2170  0.0975  0.1664
18995W        W34126  15.737   2.369   4.870  0.3233  0.2329  0.0540
18996W        W34127   1.029   6.730   1.224  0.0266 -0.2328 -0.0580
18997W        W34128  15.297   3.080   1.873 -0.0581 -0.4494 -0.0755
18998W        W34129   4.955  17.177   0.655 -0.1080 -0.2295 -0.1458
18999W        W34130   0.128   8.812   2.612 -0.1776  0.1726  0.0782
19000W        W34131  16.053   1.085  15.012  0.1397  0.0385 -0.0525
19001W        W34132   9.649  16.953  14.137  0.1423  0.0697  0.0631
19002W        W34133  14.785   8.620  14.377 -0.0071 -0.1863 -0.4100
19003W        W34134  17.508   9.818   2.719 -0.1111 -0.3961  0.0715
19004W        W34135   1.675   8.212  11.451 -0.1625 -0.0744 -0.0530
19005W        W34136   0.067  10.976  15.071 -0.2091 -0.1078  0.0450
19006W        W34137  10.037   2.775   4.395 -0.0431 -0.0535 -0.0839
19007W        W34138   9.004   4.529  11.099 -0.3477  0.2264 -0.0330
19008W        W34139  12.283  15.167   2.549  0.0283 -0.2006 -0.1985
19009W        W34140   3.335   5.473  14.127  0.1292 -0.1152 -0.1590
19010W        W34141   7.509   2.103  13.673  0.0978 -0.1484  0.0219
19011W        W34142   6.889  16.644   2.711  0.2228  0.0615  0.0003
19012W        W34143  17.223   4.983   1.478  0.0419  0.1299 -0.0537
19013W        W34144  11.684   0.234   0.710 -0.0111  0.0398  0.1548
19014W        W34145  18.100   8.066   2.166  0.2677 -0.0045  0.0324
19015W        W34146   4.356   7.412   3.128  0.0572  0.0984 -0.1567
19016W        W34147   1.486  10.026  15.523  0.0847 -0.0878  0.0554
19017W        W34148  14.201   0.790   4.960 -0.0613  0.2251  0.3234
19018W        W34149   1.744   0.526   4.383 -0.1916 -0.3262 -0.1400
19019W        W34150   4.513  14.670   5.709 -0.0575 -0.0641  0.0053
19020W        W34151   1.755  10.958  12.651 -0.0277 -0.1017 -0.3263
19021W        W34152   5.584  16.123  15.760  0.3058  0.0404 -0.1678
19022W        W34153   6.660  11.744   1.984  0.4832  0.1642 -0.2908
19023W        W34154  10.445  12.104   3.504  0.2333 -0.3374  0.5674
19024W        W34155   2.152   3.960  14.683  0.1783 -0.5486  0.2437
19025W        W34156  15.976   6.627   2.586 -0.1953  0.2461 -0.2815
19026W        W34157  10.645  13.173  11.301 -0.1275  0.4973  0.1928
19027W        W34158  13.263   9.828   2.446 -0.1725 -0.0581 -0.1409
19028W        W34159  10.784   7.942   1.029 -0.2624 -0.3496 -0.3032
19029W        W34160   5.037  15.660  13.129 -0.0629  0.1557  0.0473
19030W        W34161   1.259  16.954  13.950  0.1595  0.1549  0.0551
19031W        W34162  17.099   3.661   1.788 -0.1191  0.0682 -0.0951
19032W        W34163  17.921   1.180   2.912  0.1528 -0.0419 -0.1817
19033W        W34164   9.463   5.712   5.384  0.4387 -0.2160  0.0828
19034W        W34165   5.280  13.127  15.307 -0.1059 -0.0225 -0.0998
19035W        W34166   1.774  16.361  11.413  0.0774 -0.2326  0.0374
19036W        W34167   9.954   6.427   1.230  0.0670 -0.1812 -0.0475
19037W        W34168   3.122   2.317  14.365  0.0575  0.0596 -0.0567
19038W        W34169   2.844  15.916   1.507  0.1342  0.1392  0.2557
19039W        W34170   7.602   0.089   2.523  0.3640  0.0411 -0.0106
19040W        W34171   1.697  12.673   3.980  0.0467 -0.2618  0.3093
19041W        W34172   9.687  14.920  10.906 -0.0223 -0.0142  0.1288
19042W        W34173   7.382   5.342  14.099  0.0056 -0.0168  0.1854
19043W        W34174   1.990   8.957  10.885 -0.0993 -0.2792 -0.1472
19044W        W34175  14.014   6.101   1.473 -0.3818 -0.2873 -0.2314
19045W        W34176  10.747   4.090  14.247  0.0270  0.1184 -0.1093
19046W        W34177  15.578  15.657  10.995 -0.3725 -0.1513  0.0360
19047W        W34178  12.425  15.067   0.376 -0.0971 -0.1034  0.2402
19048W        W34179   6.307   1.058  14.927 -0.0487 -0.0591 -0.1337
19049W        W34180   0.238  12.267  15.497 -0.3926 -0.3679  0.0477
19050W        W34181   8.784   8.523   1.143 -0.0034  0.1256  0.0858
19051W        W34182   5.782  14.929   4.068  0.0181  0.1229  0.0798
19052W        W34183  10.675   5.178  13.907 -0.0744  0.1606 -0.0091
19053W        W34184   0.473  15.914   5.818  0.2648  0.2188 -0.1101
19054W        W34185  13.843  13.572   5.381 -0.0318  0.0389 -0.0174
19055W        W34186  17.588  11.760   5.383  0.1667  0.0453  0.0115
19056W        W34187   5.054   7.192  13.233 -0.3429  0.0001  0.0129
19057W        W34188   6.447  17.152  15.452 -0.0133  0.0869  0.0637
19058W        W34189   1.620   6.645  14.552 -0.0481 -0.1012  0.4206
19059W        W34190   4.679   3.563  13.587 -0.2463  0.5632 -0.0353
19060W        W34191  11.542  17.105   0.590 -0.1447 -0.0495  0.1915
19061W        W34192  17.474   4.131   0.571  0.2287  0.0272 -0.0991
19062W        W34193  16.326  11.683  13.942 -0.2972  0.0454 -0.1045
19063W        W34194   0.281   9.396   0.287 -0.0767  0.2325  0.0081
19064W        W34195  15.938  17.543   1.803 -0.1212 -0.1778 -0.1119
19065W        W34196   1.459   7.797   1.479 -0.0402 -0.1859 -0.0090
19066W        W34197   2.629   0.239  13.521 -0.0312  0.0909 -0.0986
19067W        W34198  11.787  15.493  11.217 -0.3973 -0.0551 -0.0332
19068W        W34199  10.514   8.510  10.047 -0.0280  0.2333  0.3468
19069W        W34200  16.364   1.133  14.633  0.4259 -0.0142 -0.1851
19070W        W34201  17.466   2.951   1.258 -0.1272  0.2979 -0.4029
19071W        W34202   1.594   1.263  13.603 -0.1908 -0.1770 -0.0065
19072W        W34203   6.408   7.024  12.192 -0.6457 -0.0467  0.0339
19073W        W34204  17.774   3.181  12.123  0.1116 -0.0609 -0.0986
19074W        W34205  17.139   5.061   0.983 -0.2343  0.1829 -0.3477
19075W        W34206  14.863   4.032  15.444  0.0566  0.1152 -0.3132
19076W        W34207   6.105  16.776  12.116  0.1037 -0.5599 -0.2933
19077W        W34208  11.371  10.019   1.601  0.2641  0.0130  0.3228
19078W        W34209   1.778   5.792  14.370 -0.5154  0.2233  0.1686
19079W        W34210  13.000  11.529  15.145  0.2144  0.1304  0.0797
19080W        W34211   2.030  15.055   5.014 -0.0055 -0.1190  0.0903
19081W        W34212  15.215   8.693   2.049  0.0625 -0.0142  0.1132
19082W        W34213  12.056   2.579   1.491  0.0054 -0.1797  0.1813
19083W        W34214  13.136  17.461  11.437 -0.0422  0.1602 -0.0217
19084W        W34215   4.439  13.419  13.155  0.1020 -0.0003 -0.0487
19085W        W34216   9.010  16.457  13.527 -0.3340  0.0288 -0.1933
19086W        W34217   6.359  15.592  11.618  0.2665  0.2082  0.0177
19087W        W34218   6.330   7.442   1.481  0.0103 -0.1076 -0.1014
19088W        W34219   2.017  16.151  11.916 -0.0222 -0.1917 -0.0449
19089W        W34220  10.141   8.458  14.570 -0.0932 -0.0183 -0.0734
19090W        W34221   5.412  12.339   2.472  0.2104 -0.0595 -0.0110
19091W        W34222  12.564   5.275  12.633  0.0171 -0.0509 -0.3154
19092W        W34223  14.359   5.460   1.539 -0.1877  0.0720  0.2102
19093W        W34224  17.114   2.949  11.338 -0.1301  0.1151  0.0473
19094W        W34225   4.952  12.888   4.315  0.1810  0.0859 -0.1938
19095W        W34226   1.444   0.426  15.189 -0.2406 -0.2023  0.1803
19096W        W34227   0.579   6.667   3.398  0.0046 -0.0785 -0.2355
19097W        W34228  11.544   9.011  13.477 -0.1871 -0.2654 -0.1840
19098W        W34229   0.547   6.712   2.279 -0.1399 -0.0787 -0.1521
19099W        W34230   4.147   5.030  12.133 -0.2007 -0.1154  0.4269
19100W        W34231   0.177   2.738  15.869  0.0122  0.0542 -0.0515
19101W        W34232   7.856   0.664  11.207  0.2912  0.1220  0.3647
19102W        W34233  10.751   3.869   0.429  0.3152 -0.0526 -0.1062
19103W        W34234   1.105  14.796   5.434  0.2650  0.3887 -0.2162
19104W        W34235   1.763  15.878   5.630 -0.1533  0.1212 -0.2346
19105W        W34236   1.153   4.620  14.601 -0.1352  0.3456  0.1183
19106W        W34237  16.708   4.431  16.045  0.3211 -0.1604 -0.1799
19107W        W34238  13.225  14.377  13.717 -0.3163  0.0812  0.0949
19108W        W34239  15.108   6.493   5.088 -0.0392  0.2934 -0.2205
19109W        W34240   6.391   3.796   0.513 -0.0996  0.0836  0.3300
19110W        W34241  17.718  17.164   1.216 -0.2229 -0.1474  0.2711
19111W        W34242   5.108   7.195   9.867  0.1238  0.2526  0.3161
19112W        W34243  14.356   8.442  16.096 -0.0038 -0.1640 -0.1859
19113W        W34244   8.152   9.573  13.964  0.0468 -0.0085  0.0069
19114W        W34245   9.448  10.777   2.468  0.2144  0.2495 -0.3698
19115W        W34246   7.309  11.293  10.277 -0.0448  0.1358 -0.1511
19116W        W34247   1.751   8.813  13.971 -0.1103 -0.3033 -0.3821
19117W        W34248   4.717   6.036   5.580  0.0426 -0.1297  0.0434
19118W        W34249   5.715  17.328   5.258 -0.1364  0.3809  0.3301
19119W        W34250   2.274  16.489   7.100 -0.0320 -0.0399  0.0058
19120W        W34251  17.972  11.341  11.083 -0.2132 -0.3745 -0.0399
19121W        W34252  10.841  18.286   3.575  0.1657 -0.0505 -0.0152
19122W        W34253   8.677   0.106  13.544 -0.0876 -0.3197 -0.0334
19123W        W34254  17.536   5.713   2.331 -0.1701 -0.0520  0.2001
19124W        W34255   1.017  13.284   1.833 -0.1166  0.0290 -0.2451
19125W        W34256  15.641   7.976   3.045  0.0426 -0.0613  0.2410
19126W        W34257   1.056   3.016  11.912  0.0909 -0.0342 -0.0264
19127W        W34258   0.352  15.539   1.171 -0.4234  0.0377  0.2191
19128W        W34259   0.421   2.883   5.511  0.4281 -0.0982 -0.0220
19129W        W34260   7.258   8.079  12.620 -0.0703 -0.2163  0.1608
19130W        W34261   6.862   4.486  14.544  0.1594 -0.0581  0.1487
19131W        W34262  15.662   1.565   3.989  0.1816 -0.0828 -0.2533
19132W        W34263   6.286   5.589   4.090 -0.2916  0.1492 -0.0482
19133W        W34264   0.423   6.155  14.861  0.1635 -0.0015  0.1798
19134W        W34265   0.199  17.550  13.312 -0.1935  0.0129  0.1785
19135W        W34266  12.241   9.442   4.428 -0.0505  0.2339  0.0446
19136W        W34267   4.368  17.129   4.466 -0.1201 -0.2464 -0.2355
19137W        W34268   3.154  12.189  14.762  0.0998 -0.0807  0.1343
19138W        W34269   6.778   3.457   0.067  0.2228  0.0722 -0.3301
19139W        W34270  17.912  16.429  13.668  0.1383  0.0869  0.1989
19140W        W34271   1.458   3.109  10.883 -0.2412 -0.2355  0.1874
19141W        W34272   4.186  11.093   4.868 -0.0798  0.2001  0.4149
19142W        W34273  14.240   4.041  12.917  0.0334 -0.1771 -0.2638
19143W        W34274   7.044   5.292   0.005  0.1232  0.1249 -0.3297
19144W        W34275  14.119   6.137   2.748  0.1200  0.0361  0.2685
19145W        W34276   0.640   5.724   0.942  0.0021  0.2460 -0.1264
19146W        W34277   2.644  13.166   1.512  0.1573  0.1344 -0.1906
19147W        W34278  10.683  11.797   4.781  0.0217  0.1600 -0.1011
19148W        W34279   8.908  14.103  15.769  0.2912  0.0063  0.0224
19149W        W34280  18.277  12.858   3.293  0.2207  0.1455 -0.0102
19150W        W34281  14.296  14.768  15.739  0.0977 -0.2966  0.1209
19151W        W34282  13.510   6.897  11.706 -0.1119 -0.1665 -0.2660
19152W        W34283   9.770   2.089  15.595  0.0494 -0.2842 -0.0983
19153W        W34284   1.022   7.274  10.558 -0.1578  0.0782  0.0103
19154W        W34285   8.398  13.407   0.894 -0.0480 -0.0745  0.0781
19155W        W34286   3.759   1.858   5.281  0.2338 -0.0760 -0.1219
19156W        W34287   6.320   0.752   2.806  0.1110  0.0197 -0.1256
19157W        W34288  11.940   2.034   0.463  0.1920 -0.4570 -0.2472
19158W        W34289  16.556   7.041   3.939  0.2496  0.1212 -0.1881
19159W        W34290   6.092   1.633   1.020 -0.1626 -0.1534 -0.0454
19160W        W34291   6.010  11.352  14.080  0.3377  0.2535 -0.0177
19161W        W34292   2.537  18.256   0.502 -0.0915  0.2272  0.1117
19162W        W34293  15.776  14.802   4.023  0.1041 -0.0837  0.0198
19163W        W34294  14.293   7.591   4.489 -0.2989 -0.2162 -0.3523
19164W        W34295   9.380   5.795   0.751  0.0467 -0.0227 -0.1000
19165W        W34296   4.014  17.371   5.717 -0.1821 -0.2979 -0.0425
19166W        W34297   5.277   6.759  12.965 -0.0345 -0.0439  0.1775
19167W        W34298  14.128   7.333   4.103 -0.4652  0.0005 -0.0275
19168W        W34299  11.042  12.131  14.914 -0.0324  0.0520 -0.2921
19169W        W34300  16.932  12.514  12.864 -0.0600  0.2958  0.2532
19170W        W34301   3.087   8.894   1.195  0.0753  0.1648  0.1285
19171W        W34302  11.148  13.090   1.123  0.2459  0.2034  0.1218
19172W        W34303   4.662  12.659  12.186 -0.0290 -0.0211  0.1009
19173W        W34304   5.314  10.400   5.133 -0.2800 -0.1893  0.0041
19174W        W34305  14.442  14.885   4.451 -0.1598  0.2587  0.2268
19175W        W34306  11.895  16.385   4.218  0.2220 -0.1473 -0.0366
19176W        W34307   4.470  13.762   5.138 -0.1411  0.2133  0.1908
19177W        W34308   0.254  11.753  12.148 -0.1070  0.0082  0.0720
19178W        W34309  16.437  11.075   2.603  0.0732  0.2411  0.1104
19179W        W34310   6.838   9.348   2.882 -0.2458 -0.0511 -0.0287
19180W        W34311  15.111  11.690   3.684  0.2739 -0.1972  0.2560
19181W        W34312   7.021  12.556  12.589  0.0974  0.0596  0.1431
19182W        W34313   1.535  16.158   1.621 -0.0506 -0.2911 -0.2284
19183W        W34314  18.310  13.489  12.522 -0.1785 -0.0436 -0.5979
19184W        W34315  15.639  12.193   2.579 -0.0310 -0.0886  0.1396
19185W        W34316   3.121  17.101   2.459 -0.1924 -0.2519 -0.3228
19186W        W34317   2.699   0.016  10.817  0.0358  0.1088  0.0466
19187W        W34318  15.646  15.387  11.473 -0.3098 -0.1112 -0.0647
19188W        W34319  12.677  10.052   1.228  0.0375  0.1071  0.5742
19189W        W34320   4.119  14.426  14.775 -0.1862 -0.0811 -0.5010
19190W        W34321   4.787  10.589   9.715  0.1916  0.0753  0.1118
19191W        W34322  13.288  18.081   4.406 -0.0416 -0.1244  0.0064
19192W        W34323  17.692  16.911  12.398 -0.1559 -0.0030  0.2962
19193W        W34324  15.961  12.637   2.170  0.1512  0.1170  0.2599
19194W        W34325  11.856   9.062   5.278 -0.0610 -0.1783  0.2804
19195W        W34326   5.315  13.210   3.540  0.0478 -0.1901  0.1632
19196W        W34327   7.804   7.316  13.395  0.1355 -0.1856 -0.1948
19197W        W34328   4.256   9.825  15.181 -0.0225  0.0095  0.0941
19198W        W34329   4.207   6.043   2.297 -0.2862 -0.3365  0.1078
19199W        W34330  15.257   4.314   3.888  0.4601 -0.0792 -0.3991
19200W        W34331   3.233  10.817   2.124 -0.2277  0.1682  0.0134
19201W        W34332   6.243   7.111   1.055 -0.1839  0.0233 -0.1719
19202W        W34333   0.394  10.830  12.993 -0.0581  0.1986 -0.3009
19203W        W34334  17.948  10.354  12.455 -0.1257  0.0462  0.0910
19204W        W34335  12.181   4.390   3.010 -0.1265  0.0528  0.0931
19205W        W34336   2.552  11.118  11.026  0.1791  0.1510  0.2892
19206W        W34337   5.179  13.621   0.393  0.0422  0.0054 -0.1065
19207W        W34338   3.005   2.460  11.557  0.1324 -0.0614 -0.0031
19208W        W34339   5.365  11.826  14.718 -0.0350  0.3116 -0.3471
19209W        W34340   8.676  10.819  11.972 -0.3459 -0.0774 -0.0739
19210W        W34341   7.158  15.437  15.606  0.4050 -0.1244  0.0974
19211W        W34342  12.252   4.235   1.250  0.1354  0.1002  0.0924
19212W        W34343   2.239   8.297  14.089 -0.4514 -0.2355  0.1572
19213W        W34344   3.005  13.922   1.248  0.1962 -0.0215  0.1963
19214W        W34345  14.801  13.501   3.456 -0.0623 -0.0247 -0.1538
19215W        W34346  17.428  12.398  12.092  0.2803 -0.3545 -0.3041
19216W        W34347   5.623  17.919  13.218  0.0271  0.0156 -0.4405
19217W        W34348  13.618   7.361  13.016  0.2604 -0.1620 -0.3120
19218W        W34349  12.230   6.226  10.495 -0.1565 -0.3107  0.1463
19219W        W34350   3.891   6.009  11.384  0.5089  0.1502 -0.4023
19220W        W34351   5.357  16.164   4.506  0.0560  0.0686  0.1616
19221W        W34352   0.574  16.562  13.111  0.1412 -0.2913  0.0147
19222W        W34353   3.785   7.554   1.291 -0.3016  0.1521  0.2292
19223W        W34354   1.106   6.160  12.154  0.2545  0.0099  0.0951
19224W        W34355  10.973   2.602  12.932 -0.0123 -0.4215  0.0741
19225W        W34356   5.803  16.239   1.534 -0.0226  0.0217 -0.0815
19226W        W34357   2.772  13.749   5.987 -0.0594  0.2279 -0.0704
19227W        W34358  12.414  12.203   5.646  0.3962 -0.0945  0.0089
19228W        W34359  13.205  14.887   1.514  0.0031 -0.2042  0.2479
19229W        W34360  13.662  15.990   2.174 -0.0602 -0.0403  0.1034
19230W        W34361  16.789   6.150   4.818 -0.2324  0.0123  0.0843
19231W        W34362   8.430   6.678  10.771  0.0498 -0.1894 -0.2522
19232W        W34363   9.495   7.409   3.764 -0.0694 -0.0390 -0.0237
19233W        W34364  14.962   2.850   1.585  0.1860 -0.0735 -0.1988
19234W        W34365   1.919   2.839   2.454  0.2228 -0.1492 -0.0488
19235W        W34366   5.364   2.108   4.991 -0.0399  0.0038 -0.1699
19236W        W34367   9.003   9.206   4.276  0.1273 -0.1396  0.1347
19237W        W34368   1.729   4.397  12.567  0.0531 -0.1670  0.2329
19238W        W34369   2.152  17.325  14.272 -0.0381 -0.3291  0.0648
19239W        W34370  10.331  15.938  13.505 -0.0161  0.2543 -0.2826
19240W        W34371  12.621  12.847   3.429 -0.1040  0.1131  0.2269
19241W        W34372  12.330  11.069  14.882 -0.1372  0.1765  0.1927
19242W        W34373  13.919   2.636  15.338 -0.0371 -0.0170 -0.0956
19243W        W34374   3.549  16.197   6.318  0.1109 -0.1194  0.0799
19244W        W34375   8.066  10.864  15.507 -0.1258  0.2247  0.0113
19245W        W34376   7.315  15.225   0.900 -0.1124 -0.3086  0.1621
19246W        W34377  13.160   6.916   0.238  0.1096  0.0163 -0.2651
19247W        W34378  14.285   9.538   9.415  0.0333 -0.3640 -0.2612
19248W        W34379   4.080   6.846   1.773 -0.1703  0.1561  0.2090
19249W        W34380   9.719  14.982   0.350 -0.1741  0.0336  0.0015
19250W        W34381   2.498   1.427  13.066  0.3093  0.1431 -0.0560
19251W        W34382   5.798   6.750  14.499 -0.0625  0.0294 -0.0205
19252W        W34383  16.626   1.625  14.047  0.0163 -0.1883  0.1696
19253W        W34384   2.489   6.310  11.609  0.1054 -0.0473  0.0051
19254W        W34385  17.384  15.190   5.177  0.0793 -0.1153  0.1497
19255W        W34386   8.284   2.991  15.725 -0.1262  0.0552 -0.1984
19256W        W34387  13.301  10.950   2.130  0.1923  0.0141  0.0154
19257W        W34388   4.296  14.086  11.270 -0.2692  0.1236  0.3286
19258W        W34389  14.594  11.009   3.647  0.4491  0.2871 -0.1791
19259W        W34390   6.139   2.704  11.578  0.2017  0.1673 -0.0787
19260W        W34391   0.898   5.587  11.466  0.2697 -0.0697  0.1120
19261W        W34392  12.103  14.749   2.743 -0.2952  0.0971  0.0466
19262W        W34393   0.356   0.903   3.507  0.3466  0.1975 -0.1159
19263W        W34394   0.803  12.761   3.375 -0.1697  0.0278  0.0138
19264W        W34395  18.167   9.511   2.599  0.2647  0.3426 -0.2362
19265W        W34396  12.293   8.440  13.065  0.2220 -0.0490 -0.1375
19266W        W34397  16.805  12.585  11.683 -0.1223  0.0670 -0.0295
19267W        W34398  16.819  13.248  14.372  0.2812  0.1207  0.0828
19268W        W34399  11.311  13.698  11.489  0.2162  0.0524 -0.2765
19269W        W34400  16.264   5.763  14.326 -0.4888  0.0705  0.0205
19270W        W34401   4.814  14.519  14.303 -0.0536  0.0931 -0.0379
19271W        W34402  15.804   0.568  13.580  0.0317  0.0454  0.2220
19272W        W34403   6.786   2.366  14.268  0.0535 -0.1510  0.3322
19273W        W34404  14.552  11.634   1.104 -0.0317  0.1783  0.1205
19274W        W34405  10.192  13.583  15.519 -0.1950  0.2431  0.0303
19275W        W34406   4.395   4.382   1.608 -0.0073  0.0868 -0.1574
19276W        W34407   5.349  10.689   0.910  0.0906  0.1712 -0.1250
19277W        W34408  18.317  13.290  14.991 -0.0855  0.0994  0.0976
19278W        W34409   9.780   5.017   1.292 -0.1231 -0.2060 -0.4002
19279W        W34410  13.164   3.360   3.866 -0.1522  0.0107  0.0631
19280W        W34411   5.695   8.327   0.091  0.0941 -0.1050 -0.2161
19281W        W34412   5.594  10.649   4.403  0.0584  0.2378  0.3992
19282W        W34413   5.463   7.500   0.184 -0.0547  0.1287  0.4664
19283W        W34414  16.417   9.798   3.700  0.3750  0.2536  0.3202
19284W        W34415  17.910   2.115   0.891 -0.1848 -0.1121 -0.4101
19285W        W34416  13.652   4.861  15.085 -0.1000  0.1040  0.1556
19286W        W34417  17.868   3.466   0.721 -0.0887  0.0438  0.0668
19287W        W34418   4.883  16.052  14.871 -0.1564  0.0105  0.1647
19288W        W34419   1.314   6.656  11.251  0.1980 -0.0619  0.1116
19289W        W34420   9.762   9.304  11.208  0.0013  0.1712 -0.1587
19290W        W34421  12.933   0.109   2.472  0.3374  0.0381  0.2734
19291W        W34422  11.627  15.855  12.337 -0.1418  0.0183 -0.0964
19292W        W34423  14.014  16.376   2.915 -0.0494 -0.0245 -0.0793
19293W        W34424   4.359   7.132   4.163  0.0522 -0.0368  0.2268
19294W        W34425  13.814   0.512   0.387  0.1382  0.0335 -0.1659
19295W        W34426  14.031  17.889  14.900 -0.0224 -0.0734 -0.1665
19296W        W34427  12.084   2.877   4.273  0.0201 -0.3130  0.0466
19297W        W34428  14.394   3.014   1.474  0.0704  0.0122 -0.0260
19298W        W34429   2.262   8.751   3.317  0.1560 -0.1588 -0.0608
19299W        W34430  13.732   3.973  12.920 -0.0299 -0.0107  0.1663
19300W        W34431   4.272  11.406   5.263  0.5009  0.0916  0.1313
19301W        W34432   3.968  17.885  13.042 -0.1834  0.0571  0.1042
19302W        W34433  10.618   7.193   4.858 -0.3752  0.2013  0.1719
19303W        W34434  15.022  15.088  13.384  0.0557  0.0557  0.0233
19304W        W34435   0.878  13.837   0.109  0.0974 -0.1263 -0.2618
19305W        W34436  15.076  17.742   1.405  0.1291 -0.3507 -0.1486
19306W        W34437   1.124  15.414   3.182  0.1019  0.0237  0.0158
19307W        W34438  17.505  17.507  13.986 -0.2652 -0.0238  0.3982
19308W        W34439  16.200   9.397  12.770  0.3305  0.2085  0.3164
19309W        W34440  14.146   4.759  14.947 -0.1941 -0.2053  0.0734
19310W        W34441   2.951   8.899   5.881 -0.0047  0.0300  0.0251
19311W        W34442   6.522  10.448  11.812 -0.1819 -0.1903  0.1922
19312W        W34443   7.023   1.194  11.043  0.0188  0.2503 -0.3406
19313W        W34444   8.721  17.796   3.493  0.0313 -0.1619  0.3844
19314W        W34445   9.554  12.433   0.757 -0.0635 -0.1923  0.0625
19315W        W34446   8.222  17.293  11.848  0.0102 -0.2117  0.1068
19316W        W34447  14.390  15.236  10.597 -0.1770  0.1583  0.1927
19317W        W34448  15.643   1.602  11.769 -0.0093  0.3568  0.0656
19318W        W34449  14.386  14.218  14.647  0.2588  0.2817 -0.2044
19319W        W34450  16.450  10.210   9.739  0.3281 -0.0319 -0.0541
19320W        W34451   7.477  10.155  12.578 -0.1063 -0.1532 -0.1629
19321W        W34452   5.499   0.428  13.320 -0.1229 -0.0351  0.0720
19322W        W34453   3.197   5.203  14.555 -0.3291 -0.2149 -0.4513
19323W        W34454  14.794  16.738   2.308 -0.0652  0.0473 -0.0077
19324W        W34455   3.218  16.434   0.685  0.0669  0.2422  0.1771
19325W        W34456  18.192   2.780   1.262  0.0068  0.1036 -0.0818
19326W        W34457  14.540   8.650   3.754  0.0084 -0.1459 -0.0358
19327W        W34458  16.126  12.855   5.585 -0.1747 -0.4706  0.1376
19328W        W34459  11.199   4.292   3.711 -0.0028 -0.0254 -0.1213
19329W        W34460  17.038   3.249  13.686  0.1338  0.2655  0.0995
19330W        W34461   7.466   8.210  13.068  0.2675 -0.2990 -0.0036
19331W        W34462   5.264  16.914  15.132 -0.2053  0.1325  0.2371
19332W        W34463   8.905   0.260  12.179  0.4418  0.0775 -0.0859
19333W        W34464  11.952   8.765   3.884  0.0475 -0.1769 -0.2107
19334W        W34465  10.315  15.447  12.847 -0.3269  0.0448  0.0446
19335W        W34466  10.918  13.290  15.372  0.1112 -0.1231  0.2845
19336W        W34467  14.907  16.549  15.089  0.0201 -0.0387  0.2272
19337W        W34468  15.964   6.849  12.532 -0.2137 -0.1880  0.1371
19338W        W34469  10.330  15.634  16.011  0.2448  0.3636  0.1420
19339W        W34470   2.234   1.708  12.706 -0.1087 -0.0153 -0.0239
19340W        W34471   0.313   2.575  15.357 -0.0394 -0.1084 -0.1402
19341W        W34472   9.715  16.228   1.454  0.2246  0.1930 -0.0178
19342W        W34473   9.678  12.795   0.090 -0.1026 -0.2597 -0.1460
19343W        W34474  13.676  17.127   4.868 -0.1644  0.1008  0.1648
19344W        W34475   6.598  11.602  12.231  0.0494 -0.1407 -0.2014
19345W        W34476  15.080   6.246  14.940 -0.1495 -0.0020  0.2824
19346W        W34477  11.558  10.025   5.209 -0.1075  0.1706 -0.0131
19347W        W34478  12.147  10.369  10.576 -0.1945  0.3140  0.2442
19348W        W34479   8.174   6.940  13.229 -0.0155  0.2301  0.1141
19349W        W34480   2.356  16.798   6.716 -0.1502  0.2071  0.1168
19350W        W34481  16.631   8.745   1.140  0.1101  0.0134 -0.0256
19351W        W34482  13.838   5.677   4.647  0.1691 -0.2290 -0.1368
19352W        W34483  16.540  14.591   3.492  0.0043 -0.1369 -0.0678
19353W        W34484   6.489   0.091   3.387  0.0582 -0.1046  0.0936
19354W        W34485  13.908   7.587  12.659  0.0416  0.1951 -0.0771
19355W        W34486  10.459   4.675   3.921  0.2395 -0.0762  0.0760
19356W        W34487   3.143   4.901  11.883 -0.2550  0.1432 -0.0736
19357W        W34488   7.992  11.514   4.634  0.1367  0.1849 -0.1819
19358W        W34489  14.866   5.959  14.025  0.0877 -0.0064  0.0984
19359W        W34490  10.917   3.930  11.224  0.0927 -0.2403  0.0500
19360W        W34491   8.516   3.137   0.314  0.3002 -0.1694 -0.0003
19361W        W34492  12.817   2.358   4.621  0.2913 -0.1668 -0.0046
19362W        W34493  11.443   6.693  10.159 -0.1331  0.0547 -0.0139
19363W        W34494  16.910   2.660  15.970  0.0771 -0.0990  0.2154
19364W        W34495   6.701   5.554   2.555 -0.0378 -0.0656 -0.0110
19365W        W34496  17.339  14.218   1.234 -0.2702  0.2083 -0.2611
19366W        W34497  11.334  14.654   2.794  0.1880 -0.1205 -0.0917
19367W        W34498   4.877   4.533   9.911 -0.1398  0.2494 -0.0528
19368W        W34499  11.104  17.419  13.556 -0.2404  0.2987  0.0320
19369W        W34500  11.991  17.732   2.828  0.2080 -0.1238 -0.3215
19370W        W34501  10.529   7.687   3.808  0.0754  0.2887  0.0157
19371W        W34502   2.959   4.418  14.445  0.0894 -0.1011 -0.2183
19372W        W34503   1.714   7.198  11.199  0.1526  0.0133  0.1024
19373W        W34504   2.335   0.268   5.868 -0.0445 -0.3686  0.0812
19374W        W34505   6.857  12.401   1.135 -0.0324 -0.1538  0.2274
19375W        W34506   8.343   5.361   0.421  0.0903  0.0833  0.0882
19376W        W34507  12.548   2.246   2.422  0.3678  0.0406 -0.0758
19377W        W34508   5.354  12.645   4.158 -0.0447  0.1908  0.1387
19378W        W34509   0.112   0.538  13.566  0.0249 -0.0261 -0.2372
19379W        W34510  17.504   4.824   1.829 -0.3300  0.0558  0.0552
19380W        W34511  11.686   6.485   0.092 -0.1077 -0.1465  0.1358
19381W        W34512   5.549  11.323  13.919 -0.2421  0.1036 -0.0570
19382W        W34513   0.485   6.579  10.800  0.0072  0.2435  0.3459
19383W        W34514  18.234   2.808  12.662 -0.0417 -0.0907 -0.0804
19384W        W34515   3.437   4.924   0.778 -0.2106  0.2302 -0.0419
19385W        W34516   7.812   7.167   4.252 -0.1921 -0.2764  0.1096
19386W        W34517  16.868   6.262   4.004  0.0770 -0.2019  0.1103
19387W        W34518  13.586   1.906  11.452  0.0659  0.0860 -0.0813
19388W        W34519  18.038  15.247   2.766  0.1925 -0.3075 -0.2888
19389W        W34520   2.286  11.398  11.929  0.3133 -0.0587  0.0158
19390W        W34521  10.904  12.745  12.691  0.1271 -0.3993 -0.2057
19391W        W34522  13.846  12.438  14.729 -0.0426  0.0357  0.0225
19392W        W34523   5.735   9.328   1.926 -0.1655 -0.0303  0.0422
19393W        W34524  12.862   0.594  10.741  0.4093 -0.2722  0.2244
19394W        W34525  14.281  14.311   3.529 -0.3423  0.0459 -0.2704
19395W        W34526   0.309   9.300   2.748  0.1680 -0.0040 -0.0501
19396W        W34527  10.272   8.475   0.518  0.2599 -0.0438 -0.0713
19397W        W34528   9.442   3.781   0.751  0.1408  0.2325  0.1235
19398W        W34529   6.101  13.040   3.767 -0.3535  0.2150 -0.2681
19399W        W34530   1.738   3.108  11.383 -0.2335  0.1166  0.2212
19400W        W34531  10.153   8.623   3.879 -0.0107  0.4812  0.1271
19401W        W34532  14.434   1.022   5.878  0.0894 -0.1942 -0.2450
19402W        W34533  16.183   4.112  13.378 -0.2203  0.0118 -0.1807
19403W        W34534   9.255  12.529  15.280 -0.1746 -0.1008  0.1098
19404W        W34535  16.112   4.615  13.426  0.2055 -0.0609 -0.1303
19405W        W34536  11.410   4.883  11.454 -0.2360 -0.0709  0.2890
19406W        W34537  12.858   9.399   0.325 -0.2588 -0.3619  0.3911
19407W        W34538  13.076   5.528   4.170 -0.0941 -0.2349  0.1259
19408W        W34539   9.876   5.735   1.985  0.1594 -0.2216 -0.0391
19409W        W34540  11.259   4.969  13.991 -0.2436 -0.0528 -0.1565
19410W        W34541   9.370   1.977  13.316  0.2309 -0.2888 -0.2054
19411W        W34542   2.336   3.806  13.044 -0.2336 -0.0163 -0.0616
19412W        W34543  10.689  10.868  12.870  0.0517  0.1142 -0.0742
19413W        W34544  11.496   5.468  12.366 -0.0839 -0.0238  0.1210
19414W        W34545  17.219  15.290  12.107 -0.2069 -0.1706 -0.1159
19415W        W34546   1.203  14.741  11.751  0.0414  0.0569  0.2518
19416W        W34547  11.222   4.369   5.581 -0.1156  0.1124  0.0192
19417W        W34548   4.613   0.475  14.927 -0.2257 -0.1726  0.1501
19418W        W34549  11.321   2.516   5.690  0.3094 -0.4162  0.1506
19419W        W34550  11.947   8.844   4.643  0.0869  0.2347  0.0484
19420W        W34551  14.393   8.972   6.163  0.2340  0.0083 -0.0378
19421W        W34552  10.337  11.369  12.137  0.2473  0.1129  0.0954
19422W        W34553  13.284   4.293   0.160 -0.0594  0.0072 -0.2139
19423W        W34554   2.272  13.700   0.128  0.0583  0.0144  0.0660
19424W        W34555   5.416  15.951   0.087  0.1572  0.0819  0.4864
19425W        W34556   3.960   2.602   4.776  0.2724  0.0896 -0.0761
19426W        W34557  18.211   8.423  13.431 -0.0847 -0.0533 -0.0379
19427W        W34558   3.712  13.692  13.567  0.0148 -0.1852 -0.1442
19428W        W34559   0.477  17.860  12.467  0.1389 -0.1990 -0.0551
19429W        W34560  15.211  16.262   0.449 -0.0697 -0.0785 -0.0794
19430W        W34561  17.278   3.333   2.103 -0.1318 -0.1124  0.1663
19431W        W34562  12.795   3.231   3.539 -0.2238 -0.0372 -0.0130
19432W        W34563  17.408   7.055  12.058  0.0990  0.0231 -0.0301
19433W        W34564   2.600   3.948  11.958 -0.0421 -0.0800  0.3853
19434W        W34565   8.061   5.945  11.234  0.0365  0.1060 -0.2660
19435W        W34566   6.620   6.709  14.862 -0.0268  0.1845  0.1726
19436W        W34567  15.809  10.467  15.983  0.1167 -0.1178 -0.2599
19437W        W34568  18.015   9.255  13.348 -0.1860  0.1710  0.2497
19438W        W34569   5.222  15.061   4.745 -0.0094 -0.0112 -0.1670
19439W        W34570   5.565  12.316  15.908 -0.2428 -0.3079  0.2123
19440W        W34571  12.588   0.854   0.456 -0.1572  0.2236  0.1606
19441W        W34572   4.610   0.039   2.009 -0.0355  0.3991 -0.1246
19442W        W34573   2.472   6.889  12.350 -0.0272 -0.1047  0.1935
19443W        W34574   7.201   3.196   2.108 -0.1611 -0.0992 -0.0034
19444W        W34575  17.746  10.429   0.468  0.2415  0.2888  0.1224
19445W        W34576  15.054  17.216   2.897 -0.1125 -0.1578 -0.0462
19446W        W34577   0.720   4.196  14.550  0.1050 -0.0146  0.1398
19447W        W34578   2.493   6.971  14.243  0.0372 -0.1421 -0.0108
19448W        W34579   6.246   1.225  12.085  0.1776  0.0813 -0.2685
19449W        W34580   0.723   6.218   0.829  0.2118 -0.0423 -0.0054
19450W        W34581  10.212  11.499   3.049  0.1032  0.2639  0.0954
19451W        W34582  14.281   2.241  12.788 -0.0939 -0.0139 -0.1287
19452W        W34583   6.025  12.414  12.559  0.2594 -0.1626  0.0246
19453W        W34584   1.467   5.415  14.278  0.0602 -0.0129  0.1126
19454W        W34585   1.072  16.050   4.432 -0.1200  0.1041  0.0534
19455W        W34586   3.667   3.015   4.559 -0.2729 -0.1616 -0.2297
19456W        W34587   6.708   0.404  13.803  0.0021  0.1053 -0.0896
19457W        W34588   9.157  17.190   5.139  0.1344  0.0044 -0.0770
19458W        W34589   4.635   9.688  14.076 -0.0245  0.0799 -0.1715
19459W        W34590   4.261  10.772   5.292 -0.0998 -0.0391 -0.1584
19460W        W34591  16.339   5.472   3.170  0.0456  0.5649 -0.2538
19461W        W34592   9.629  10.190   3.950 -0.0834  0.0519  0.1861
19462W        W34593  17.734  17.614   2.503  0.0127  0.2350 -0.0800
19463W        W34594   8.941  11.208  15.188 -0.0239 -0.0191 -0.0933
19464W        W34595   9.706  17.972   3.247 -0.2146  0.1815 -0.1267
19465W        W34596  17.166  14.947  14.044  0.1835 -0.2429  0.3715
19466W        W34597   0.759   5.585  12.970 -0.3003  0.1516  0.2581
19467W        W34598  13.488   6.785  13.928 -0.0126 -0.2000  0.1541
19468W        W34599   1.421  15.468   0.562 -0.0999 -0.0298 -0.1209
19469W        W34600  18.055   6.655   3.853 -0.1744  0.0006 -0.1624
19470W        W34601   2.750  16.837   5.483  0.1126  0.1965  0.1211
19471W        W34602  16.635  18.095   1.895  0.3338 -0.0922 -0.1112
19472W        W34603  10.379   6.022  11.950 -0.3246  0.1589 -0.0895
19473W        W34604  12.235   6.568   0.756  0.1724  0.2385 -0.3011
19474W        W34605  11.168   2.276  16.034  0.0161 -0.0017 -0.0258
19475W        W34606  14.251  11.664   0.317  0.3080  0.3256 -0.1312
19476W        W34607  15.672   6.239  14.341  0.2812 -0.0919  0.0026
19477W        W34608  10.759   4.704  13.745  0.3283 -0.0009  0.0732
19478W        W34609   0.796  12.407  13.510  0.1150  0.1354 -0.2881
19479W        W34610  11.202  17.837  12.077 -0.0987 -0.2573 -0.0263
19480W        W34611  15.088   9.310   2.455 -0.3428 -0.2767 -0.2896
19481W        W34612  14.783   6.799  14.289 -0.0173  0.0438  0.1129
19482W        W34613   4.063  11.444   3.795  0.0958 -0.0886 -0.2884
19483W        W34614  12.824   3.460   1.477 -0.3389 -0.3730  0.0656
19484W        W34615   7.950   8.928   2.915  0.2963  0.0047 -0.0055
19485W        W34616  17.753   0.504  11.838  0.0193 -0.1673  0.1179
19486W        W34617  12.365   9.617   2.822  0.6035 -0.0662  0.3151
19487W        W34618  10.801  10.742   0.414  0.0857  0.2412 -0.0756
19488W        W34619   4.118  12.149  15.748  0.4776  0.2569  0.0642
19489W        W34620   9.928  12.856  13.999  0.1009 -0.0752  0.2809
19490W        W34621   8.865   0.107  14.292  0.1808 -0.1325 -0.0510
19491W        W34622   9.039   5.942  15.122 -0.3002 -0.1215  0.2380
19492W        W34623  16.914  16.567  12.110  0.0715  0.0661 -0.0614
19493W        W34624   7.079   4.747   0.173  0.1540 -0.0232 -0.2352
19494W        W34625   5.487   0.816   4.850 -0.1024 -0.0719 -0.3253
19495W        W34626  17.160  10.749   1.396 -0.1464 -0.0322  0.4622
19496W        W34627   9.010   4.882  14.437 -0.0137 -0.1304  0.0095
19497W        W34628   2.504  16.846   4.460  0.0892  0.2886  0.0532
19498W        W34629   8.978   5.560   1.622 -0.2272  0.0540 -0.3164
19499W        W34630   2.488  10.115   0.288 -0.3241  0.2317 -0.0983
19500W        W34631   1.693  12.983   2.998  0.3690 -0.0947  0.1602
19501W        W34632  18.325   0.565  10.548  0.1687 -0.0869 -0.2764
19502W        W34633   1.651   5.452   3.602 -0.0492  0.0819 -0.0542
19503W        W34634   0.265   4.346   4.434 -0.1530 -0.0663 -0.0760
19504W        W34635   1.028  14.334  13.348  0.0835  0.1268  0.0472
19505W        W34636   9.427  10.248  11.114  0.3747 -0.2828 -0.2331
19506W        W34637   1.009   9.741  15.624  0.2139 -0.1311 -0.0730
19507W        W34638  14.033   9.197  10.758  0.0199  0.0640 -0.0422
19508W        W34639   8.381  15.757  13.320 -0.0675 -0.0865 -0.0683
19509W        W34640  16.031  14.222  14.493  0.0479 -0.2701 -0.1280
19510W        W34641  15.704   2.172   0.206  0.1411  0.2061 -0.2354
19511W        W34642  17.200   1.216   5.642 -0.0001  0.1953 -0.0981
19512W        W34643   8.877  13.392  13.802  0.2306  0.1171  0.0464
19513W        W34644   5.351  17.977  11.279  0.0743  0.0516 -0.0080
19514W        W34645   6.546   1.971  11.664  0.0883 -0.2069  0.0319
19515W        W34646   9.554   7.038   1.026 -0.5298 -0.1580  0.0247
19516W        W34647  17.527  12.772   6.148  0.0882 -0.0519 -0.1991
19517W        W34648  18.249   2.069  13.836 -0.0609  0.2741  0.1655
19518W        W34649  10.490  17.240   5.168 -0.1747  0.4186  0.0807
19519W        W34650   9.602  16.331   4.686  0.2133  0.4429  0.1831
19520W        W34651  13.738  15.510  11.315  0.0123  0.1731 -0.0329
19521W        W34652  17.259  13.567  13.105 -0.2876  0.2252 -0.0191
19522W        W34653   8.956   7.832  13.713  0.0673 -0.1194 -0.2893
19523W        W34654  14.318   5.286   4.063  0.3768  0.1816  0.1347
19524W        W34655   2.749   8.269   0.730 -0.1674 -0.2241  0.1636
19525W        W34656  11.152  13.016   4.123 -0.1587 -0.0261  0.0673
19526W        W34657   2.401  13.838   3.949  0.1540 -0.2290  0.0647
19527W        W34658  16.366  14.231   0.696 -0.2980 -0.1418 -0.1447
19528W        W34659  14.697  17.184   1.902  0.1108  0.0029 -0.2463
19529W        W34660  17.340  12.605   0.045  0.2483  0.4425  0.1582
19530W        W34661   2.681  16.933   2.289  0.1056 -0.1221 -0.1185
19531W        W34662   9.195   0.123   4.425 -0.0126  0.1282  0.2812
19532W        W34663  15.498   7.679   3.889 -0.0927 -0.0142  0.2684
19533W        W34664  15.578  14.762  10.968 -0.0816  0.2782  0.4592
19534W        W34665   9.763   7.040   4.042  0.3261  0.0514 -0.1783
19535W        W34666  16.486  17.923  14.665 -0.1340  0.1480  0.2139
19536W        W34667  14.133   6.869   2.085  0.3721  0.0843 -0.2483
19537W        W34668   9.071   3.341  11.669 -0.1080 -0.1300 -0.1003
19538W        W34669   6.129  18.158  15.054 -0.0761  0.2629 -0.1088
19539W        W34670   3.570  10.785   4.328 -0.2719 -0.0521 -0.0489
19540W        W34671   6.417  13.208   5.412 -0.1505 -0.1842  0.0251
19541W        W34672   6.896  12.884   5.586 -0.1132  0.1026  0.0426
19542W        W34673  11.473   4.872   5.725 -0.0617  0.0523 -0.0817
19543W        W34674   8.516  18.274  12.170 -0.0368  0.0221  0.0808
19544W        W34675  16.030   3.483   5.377  0.2855 -0.1173  0.1958
19545W        W34676   0.713  10.592   1.485 -0.0783 -0.0889 -0.0311
19546W        W34677  11.247   4.558  12.186 -0.1766  0.1462 -0.2828
19547W        W34678   5.365  10.905  13.978  0.0495  0.0249 -0.1147
19548W        W34679  12.889  14.169  11.697 -0.1752 -0.1533  0.1472
19549W        W34680   2.584  16.793  11.434 -0.0375 -0.1209  0.1961
19550W        W34681   2.127  11.239   1.538  0.2070  0.0388  0.0879
19551W        W34682  18.251  13.895  12.782 -0.0131  0.1122  0.1108
19552W        W34683  14.946   2.246  11.685  0.3238 -0.0767  0.1635
19553W        W34684  12.753   8.443  11.779 -0.0113 -0.1236  0.0260
19554W        W34685   6.116   8.815  10.443  0.4159 -0.0658 -0.1148
19555W        W34686   8.383   1.186  12.760  0.0471  0.4809 -0.1102
19556W        W34687  13.987  11.899   4.368 -0.1274 -0.0978 -0.1707
19557W        W34688   4.903   9.532  13.248  0.1490  0.0579  0.0927
19558W        W34689  12.874   6.403  13.344  0.0199  0.4197 -0.1315
19559W        W34690   8.211  18.236   6.283 -0.3743 -0.1652 -0.0184
19560W        W34691  16.937   0.511   0.002  0.1532 -0.1904  0.0701
19561W        W34692   8.905   9.899  13.378 -0.2069  0.0539 -0.1044
19562W        W34693   3.149  10.081   5.139  0.0273  0.1020 -0.1548
19563W        W34694   1.780  12.843  11.610  0.4926 -0.0906  0.1274
19564W        W34695  16.293   1.802   3.327  0.3855 -0.0585  0.0336
19565W        W34696   0.381  12.627  14.040 -0.0954 -0.0077  0.1767
19566W        W34697   9.504  13.119  14.839  0.1527  0.1375  0.1573
19567W        W34698   8.373   2.743  12.034 -0.2193 -0.1651  0.0756
19568W        W34699   4.385  12.927   5.149  0.6502 -0.0584 -0.1669
19569W        W34700   5.685   6.790  12.663  0.0822 -0.1468 -0.2359
19570W        W34701   2.797   3.947  10.057  0.0292 -0.0253  0.3893
19571W        W34702  12.278  18.091  11.395 -0.2500  0.0754 -0.3271
19572W        W34703   4.738  11.835  11.224 -0.0275 -0.3239 -0.2041
19573W        W34704   0.309  11.960   4.834 -0.0664  0.1112  0.0582
19574W        W34705  13.853  11.479   4.612  0.1654  0.2041  0.2251
19575W        W34706   5.157   7.427   5.963  0.1531  0.1411 -0.0261
19576W        W34707   2.976   5.132  15.017 -0.0028  0.1699  0.0933
19577W        W34708   6.190   9.545   4.205 -0.1684  0.1537  0.0187
19578W        W34709   3.657  11.934  13.376  0.2965 -0.0752  0.2181
19579W        W34710  14.774   0.797  10.890  0.0246  0.1690 -0.1970
19580W        W34711   9.943  12.638   2.244 -0.5215 -0.0604  0.0891
19581W        W34712   3.773  11.059   3.484 -0.2350  0.0773  0.0110
19582W        W34713   1.017   1.780  13.630  0.3638  0.0028 -0.0202
19583W        W34714   4.189  16.748  15.923 -0.1597 -0.0438  0.2176
19584W        W34715   7.921   7.459   2.092  0.1671  0.1690  0.1142
19585W        W34716  12.485   1.810   0.699 -0.2563 -0.0809  0.0239
19586W        W34717   1.872   5.313   5.745  0.2618  0.1632 -0.0018
19587W        W34718  12.006   0.682   4.194 -0.1604 -0.2448  0.0723
19588W        W34719  17.768  16.066  12.811 -0.1943 -0.0332 -0.2835
19589W        W34720  10.517  10.307  10.731 -0.0556  0.2200  0.0215
19590W        W34721  17.508  15.953  12.235  0.0411  0.2218 -0.0218
19591W        W34722  12.912   4.592  12.626 -0.3107  0.0730 -0.0563
19592W        W34723   5.792   6.423   2.267 -0.2438 -0.1367  0.1527
19593W        W34724  10.803  13.958  12.740  0.1041 -0.2001 -0.0650
19594W        W34725  13.951  10.603  12.792 -0.1090 -0.1484  0.1514
19595W        W34726  17.952   6.765  14.869 -0.2984 -0.2020 -0.1297
19596W        W34727   5.329  14.618  13.293 -0.1666 -0.0290 -0.1221
19597W        W34728  12.008  11.396  10.653  0.0744  0.0355 -0.3000
19598W        W34729  12.460  11.300  13.170  0.1060  0.0018 -0.0432
19599W        W34730   6.217  15.732   0.256  0.2527  0.1266  0.2068
19600W        W34731  10.015   0.335  12.237  0.0054 -0.0315  0.3241
19601W        W34732  17.843   4.349  15.075  0.1013 -0.1521  0.1462
19602W        W34733  12.513  10.801   1.892 -0.3526 -0.3224 -0.1388
19603W        W34734   2.561  16.646   5.930  0.0645  0.0203  0.5314
19604W        W34735   2.922  11.682   1.089  0.2327 -0.0962 -0.1840
19605W        W34736  11.476   8.148  15.273 -0.3760  0.2071 -0.1524
19606W        W34737  14.134   0.335  11.185  0.0594 -0.1735 -0.0979
19607W        W34738  17.373  15.784   2.597 -0.0936  0.0729  0.0939
19608W        W34739  10.093   6.395   5.189  0.1757 -0.1029  0.0323
19609W        W34740   2.388  15.207  13.944 -0.0657 -0.0727  0.0618
19610W        W34741   4.581   0.097  15.346  0.0447 -0.0443 -0.0766
19611W        W34742   8.703  12.603  15.975 -0.0202 -0.2288  0.2269
19612W        W34743   3.645   2.175   4.016 -0.1775 -0.2818 -0.1530
19613W        W34744  12.901  14.585  12.070 -0.2196 -0.1260 -0.0300
19614W        W34745   8.329   6.060  11.711  0.0303  0.0570  0.1610
19615W        W34746   1.753   7.673  14.429 -0.1415  0.0850  0.1688
19616W        W34747   6.775   3.877  14.895 -0.1537  0.2330 -0.1979
19617W        W34748  17.659   1.470   5.482 -0.1049 -0.2236 -0.2365
19618W        W34749  14.703   5.581  12.496  0.0593  0.0731  0.1683
19619W        W34750   3.480  15.976  13.438 -0.1198  0.0110 -0.1022
19620W        W34751  16.848   1.043   5.985 -0.2164  0.0931  0.1481
19621W        W34752  12.731   9.275  15.349  0.3019  0.0422  0.0746
19622W        W34753   8.117   0.377   4.330 -0.2490  0.0251  0.3543
19623W        W34754  14.707  17.724   6.034 -0.1666 -0.0954  0.0173
19624W        W34755  18.239  13.951  12.264  0.0851  0.1996  0.3020
19625W        W34756   6.269   7.446  14.341 -0.0593  0.1380 -0.1567
19626W        W34757   0.536   5.449  11.108  0.2928  0.0535 -0.1089
19627W        W34758  11.584   2.674   1.718 -0.0653  0.0571  0.0648
19628W        W34759  16.894  13.813  12.837  0.2634  0.1540  0.2091
19629W        W34760  11.134   7.374  14.163 -0.0726  0.1996 -0.0287
19630W        W34761  15.340  11.299   4.916 -0.2108  0.1480 -0.2502
19631W        W34762  10.331  12.338   4.978  0.1183 -0.0536 -0.3058
19632W        W34763   8.799  15.913   0.740  0.1133  0.2180 -0.0708
19633W        W34764   5.183   5.647   4.742  0.1072 -0.0052  0.1217
19634W        W34765  13.949   9.752   2.081 -0.1859  0.0770  0.3063
19635W        W34766   7.446   0.880  12.265  0.1210 -0.0164  0.0660
19636W        W34767   0.638   1.338   0.941 -0.0869 -0.0598 -0.3027
19637W        W34768   6.944  15.224  14.219 -0.2766  0.0885 -0.1118
19638W        W34769   4.176   9.567   2.459  0.0172  0.2247  0.0380
19639W        W34770   5.285   7.935   5.168 -0.2720 -0.0062  0.4175
19640W        W34771  13.811   5.222   5.244  0.1225 -0.2619  0.1205
19641W        W34772  10.237   4.671  15.537  0.1621  0.1250 -0.2069
19642W        W34773  17.564  13.321   4.464 -0.0825 -0.0157  0.1475
19643W        W34774   3.279   7.593   1.089  0.0364 -0.1732 -0.1057
19644W        W34775   3.104   9.380   4.915  0.0937 -0.2572 -0.3347
19645W        W34776   6.021  13.426  15.908 -0.0270  0.1259  0.0021
19646W        W34777   7.434  10.930  10.752 -0.0762  0.0032 -0.1116
19647W        W34778  17.545  11.397  12.908  0.0643 -0.1473 -0.0439
19648W        W34779   1.556   7.610   3.857  0.0836  0.1787  0.1156
19649W        W34780   2.948   0.690   6.361 -0.2398  0.2183  0.0150
19650W        W34781   2.580  17.606  15.780  0.2649  0.1104 -0.0682
19651W        W34782   5.744  14.572   1.601 -0.0298 -0.0290 -0.2464
19652W        W34783   8.579   0.908   2.239  0.0278  0.2209  0.0682
19653W        W34784   1.622  17.947   4.643 -0.2974  0.1903 -0.2239
19654W        W34785  16.178   2.910  12.636  0.1885  0.0503  0.0274
19655W        W34786   7.901   3.380  13.555  0.1868  0.0456 -0.2696
19656W        W34787  12.016  17.988  10.766  0.3273  0.1896  0.0363
19657W        W34788   0.404  17.512  15.862 -0.0029 -0.1997 -0.1843
19658W        W34789  13.892   1.875  15.786  0.0788 -0.0377  0.2617
19659W        W34790   3.377   6.378  13.295 -0.1535 -0.3386 -0.0423
19660W        W34791  12.131  12.571  15.089 -0.1224 -0.0728 -0.3417
19661W        W34792   6.903  11.582   1.485  0.2943  0.1939 -0.0056
19662W        W34793   9.257   4.764   1.689 -0.0957  0.1807 -0.0144
19663W        W34794  16.709  18.239   4.623 -0.1023  0.0564  0.1193
19664W        W34795  11.409  13.110   5.038 -0.2204 -0.0975 -0.2012
19665W        W34796  14.417  16.813  13.395  0.3814  0.0876 -0.0697
19666W        W34797  10.530  13.965   3.541 -0.0019 -0.1737  0.3658
19667W        W34798   5.053  17.262  11.957 -0.0726 -0.0511  0.3322
19668W        W34799  15.754   4.385   3.912  0.0328  0.0367 -0.1757
19669W        W34800  12.466  15.208  13.239  0.0066 -0.1585  0.0144
19670W        W34801  16.719   0.694  11.971  0.2310  0.1955  0.2138
19671W        W34802   0.091  15.184  11.282 -0.2896 -0.1213  0.2773
19672W        W34803   8.436  12.077  15.562  0.2474 -0.1402 -0.0752
19673W        W34804  16.619   0.761   5.624  0.0835  0.1708 -0.0614
19674W        W34805  13.557   1.699  10.839  0.0236 -0.1564 -0.2345
19675W        W34806   0.064  17.575   4.969 -0.3995  0.0743  0.2767
19676W        W34807  12.320   9.726   1.524  0.0513  0.2105 -0.2306
19677W        W34808  18.273   0.363   0.317  0.1326 -0.1972 -0.2106
19678W        W34809   4.920  17.443  11.179 -0.1745 -0.0996 -0.1909
19679W        W34810   4.928   4.095   5.302 -0.0070  0.1484  0.2881
19680W        W34811  17.239  14.113   0.383  0.2686 -0.1829 -0.0196
19681W        W34812   3.848   8.388  10.867  0.1224  0.0205 -0.1772
19682W        W34813   5.036   6.532   1.809  0.1247 -0.0715  0.1349
19683W        W34814   2.694   1.840  12.741 -0.1896  0.1530 -0.3753
19684W        W34815   0.135  16.672   5.444  0.0922 -0.2030  0.0402
19685W        W34816  17.203  16.018   2.054 -0.1857 -0.3526  0.0480
19686W        W34817   5.939   4.121  15.630 -0.1156  0.2180 -0.1746
19687W        W34818  14.242   0.703  14.881 -0.2439 -0.1000 -0.1347
19688W        W34819   3.794   8.062   5.023 -0.0847 -0.2149 -0.1602
19689W        W34820   6.304   9.302   4.824 -0.0198  0.2305 -0.0803
19690W        W34821   8.265   1.120  15.660  0.2391  0.2218 -0.0087
19691W        W34822  17.520   9.061   0.740  0.0117  0.1781  0.3349
19692W        W34823   4.717   5.746   0.157 -0.2177  0.0075 -0.1125
19693W        W34824  15.587   0.561   2.201  0.0444  0.1996  0.0420
19694W        W34825  10.617  11.491  13.147  0.3266  0.1216 -0.2664
19695W        W34826   8.678   5.097   1.599 -0.1131 -0.2995 -0.0303
19696W        W34827   3.956  10.190   0.434  0.1243 -0.0411  0.2195
19697W        W34828   0.545  13.618   3.087  0.1091 -0.3142 -0.2683
19698W        W34829   0.232   9.291   0.783  0.0708 -0.1383  0.0102
19699W        W34830  17.241   6.999   2.070  0.0889  0.1137  0.0607
19700W        W34831  13.328   7.580   4.857  0.0536 -0.0683 -0.0932
19701W        W34832  12.195  12.426   0.628  0.0921  0.0413 -0.0878
19702W        W34833   0.126  13.384   3.662 -0.1600 -0.3631  0.1808
19703W        W34834  17.682   9.548   0.952 -0.1761 -0.2971  0.1648
19704W        W34835  11.315   9.514  13.388 -0.0277 -0.0186  0.0398
19705W        W34836  11.576  15.408  15.395  0.2549 -0.3236  0.2421
19706W        W34837  12.044   9.111  13.597  0.2958 -0.1256  0.0157
19707W        W34838   1.519  14.884   6.657 -0.4106 -0.0329 -0.0314
19708W        W34839  11.329  11.015   4.362 -0.5354 -0.1515 -0.0046
19709W        W34840  17.095  12.583  13.931 -0.1376 -0.1117  0.0047
19710W        W34841   2.336  11.508  14.571 -0.3037  0.0766 -0.1191
19711W        W34842   9.480   5.290   0.880 -0.2280 -0.3196  0.0537
19712W        W34843   5.519  12.998  13.401  0.0349 -0.0906  0.0023
19713W        W34844   0.545  18.208  11.528  0.0771 -0.0997 -0.2764
19714W        W34845   2.160   3.126  12.251  0.0928  0.3090  0.1520
19715W        W34846  15.130   2.219  13.226  0.2238  0.2767 -0.2749
19716W        W34847  10.851   5.475  13.131 -0.0439  0.0225 -0.4088
19717W        W34848   6.727  12.050  12.442  0.2735  0.0941 -0.1237
19718W        W34849  12.318  14.813   2.153  0.1112  0.1937  0.2466
19719W        W34850   4.303   1.023   5.366 -0.0585 -0.1235  0.0965
19720W        W34851   7.653  12.762   0.830  0.0636  0.3785  0.3405
19721W        W34852  17.532  15.434  12.440  0.1777  0.1841  0.0458
19722W        W34853   3.257   5.404  11.609 -0.1258 -0.1068  0.0210
19723W        W34854  11.140   2.120  14.626  0.3284 -0.1326  0.1491
19724W        W34855   7.007   6.540   0.779 -0.0413  0.0721  0.1933
19725W        W34856  16.578  12.776   5.214  0.2283  0.0516 -0.2439
19726W        W34857   7.475   1.847  14.607 -0.1461  0.0899  0.0244
19727W        W34858   8.534  10.955   0.514  0.0610  0.0713 -0.1029
19728W        W34859  17.908  11.954  13.740  0.2649  0.1446  0.0733
19729W        W34860   7.713   2.513   0.152 -0.1814 -0.2582  0.4295
19730W        W34861   2.770  17.659   0.982  0.1405  0.0095  0.0765
19731W        W34862  12.895   7.885   1.736 -0.3968  0.1241 -0.2224
19732W        W34863  18.256  10.761  16.094 -0.0137 -0.0984  0.0054
19733W        W34864  13.094   6.475  13.796 -0.0195  0.0606 -0.0005
19734W        W34865   7.319   5.596  13.187 -0.1867 -0.1037 -0.1149
19735W        W34866  13.919   2.479   3.085 -0.0441 -0.1092 -0.0823
19736W        W34867  13.666  16.106   0.368 -0.1110 -0.1566 -0.1180
19737W        W34868  16.030  17.362  11.284 -0.0562 -0.3612  0.3061
19738W        W34869   0.793   5.516  13.745  0.1804 -0.1514 -0.0097
19739W        W34870   9.468  10.736  12.869  0.0696 -0.0229  0.0870
19740W        W34871  11.431  10.456  13.717 -0.0105  0.1128  0.1680
19741W        W34872   8.939  17.325   3.194  0.1681 -0.1917  0.1598
19742W        W34873   6.635   2.977  14.938  0.2842 -0.2947  0.1629
19743W        W34874  10.922   2.875   1.843  0.3411 -0.1487 -0.2406
19744W        W34875   8.053   1.957   1.458  0.4054 -0.0775  0.0624
19745W        W34876  16.899   0.938  15.228  0.1281  0.2557 -0.0178
19746W        W34877   8.353   0.164  14.076  0.1042 -0.4200 -0.0373
19747W        W34878  10.466   1.288  14.469 -0.1154 -0.0495  0.1267
19748W        W34879   1.683  18.036  12.524 -0.2209  0.1186  0.3719
19749W        W34880   8.728   5.855   3.642  0.0069  0.0342  0.1425
19750W        W34881  12.683  15.625  12.992 -0.1102  0.2192  0.2566
19751W        W34882  13.943   2.320   4.565  0.1160  0.2853  0.1057
19752W        W34883  10.393  11.921   0.180  0.2199 -0.1224  0.1709
19753W        W34884  18.084  14.383  11.999  0.1043 -0.2122 -0.0849
19754W        W34885  14.719  11.047   0.095 -0.0785 -0.1348  0.0274
19755W        W34886  14.073   9.085   3.462 -0.0453 -0.3289  0.0938
19756W        W34887  16.372   7.721   2.246 -0.0446  0.0552  0.0521
19757W        W34888  11.389   2.634  11.524  0.1044  0.0427  0.5194
19758W        W34889   0.751  10.055   5.515  0.3241 -0.2303  0.2958
19759W        W34890  17.354  10.934  13.591 -0.0223  0.1248  0.2378
19760W        W34891   7.958   7.515  16.042 -0.0883  0.2257  0.1349
19761W        W34892  13.993  14.289  12.982  0.3352 -0.2199  0.2794
19762W        W34893   4.978   5.116  11.008  0.2509  0.1032 -0.0043
19763W        W34894   5.205   3.522  13.624 -0.0771  0.0717  0.1004
19764W        W34895  17.997   8.516   1.890  0.1541 -0.1821  0.0671
19765W        W34896  11.951  14.934  15.954 -0.0031  0.0982  0.1420
19766W        W34897  17.362   6.223  12.821 -0.1058  0.4703 -0.3764
19767W        W34898  10.559   5.985  14.237  0.1567  0.0495  0.2420
19768W        W34899   3.489  16.189  14.423  0.0640 -0.2091 -0.1113
19769W        W34900   0.945  18.048   0.378 -0.0611 -0.0776 -0.3108
19770W        W34901  13.237  12.598   2.686  0.1478  0.1720  0.1156
19771W        W34902   9.751  10.617  11.175  0.2317  0.0989 -0.0743
19772W        W34903  16.609  10.510   0.014 -0.2963  0.1646  0.2379
19773W        W34904  11.266  18.273  12.352  0.1447 -0.0596 -0.4381
19774W        W34905  15.968  17.916   0.069 -0.0471 -0.0686  0.2338
19775W        W34906   3.102   2.795  12.386  0.1542  0.1404 -0.3523
19776W        W34907  12.396   2.942  15.425 -0.0731 -0.0626  0.2006
19777W        W34908   1.050   8.293  14.069 -0.2482  0.0582 -0.0407
19778W        W34909  14.593  16.388   4.166  0.1173  0.4785 -0.1013
19779W        W34910   2.986  14.394  11.414  0.2693  0.3125  0.1382
19780W        W34911  10.205  11.842  14.597  0.0929 -0.0157 -0.3408
19781W        W34912   8.101   6.942  14.298 -0.1272 -0.0807 -0.1697
19782W        W34913   8.168  16.408  10.876 -0.0977  0.1870 -0.1530
19783W        W34914   9.446   2.206   0.363  0.0988 -0.2222  0.1991
19784W        W34915  13.390  14.420  14.923 -0.5262  0.0288  0.3117
19785W        W34916   4.045  16.173  15.178  0.0313  0.1680 -0.2398
19786W        W34917   2.672  14.101   1.756 -0.0444  0.1419 -0.0776
19787W        W34918  17.282  16.573   0.108  0.2961 -0.1537  0.0071
19788W        W34919   1.522  12.358  15.358  0.0476 -0.0234 -0.0696
19789W        W34920   3.621  11.001  14.718 -0.4040  0.0024 -0.1798
19790W        W34921  13.664  15.956  11.114 -0.0552 -0.0795  0.3079
19791W        W34922   3.300  10.853  15.144  0.3336  0.0572 -0.0236
19792W        W34923  18.255  11.376   2.352 -0.0763  0.1960  0.2145
19793W        W34924   5.044   0.279   0.324 -0.2566  0.5290  0.0378
19794W        W34925   9.868   2.656  14.476 -0.0582  0.1050  0.2718
19795W        W34926   6.978   9.971   2.380  0.1350  0.1094  0.0035
19796W        W34927   3.442   5.502  13.488  0.1490  0.0842 -0.1025
19797W        W34928   0.729  14.785  11.829 -0.1787  0.2957 -0.0814
19798W        W34929   1.328   2.725   2.746  0.1415 -0.0535  0.1225
19799W        W34930  15.304   1.664   9.978  0.0445 -0.1626  0.1370
19800W        W34931   7.834   3.775  12.728  0.2188 -0.1580 -0.2534
19801W        W34932   0.825   7.327   4.514 -0.1169 -0.0460  0.0094
19802W        W34933   4.005   8.683   1.958  0.0702  0.1721  0.1019
19803W        W34934  17.870  10.009  14.469  0.3243  0.0629  0.1030
19804W        W34935   6.066  15.793   1.513  0.0575  0.1314 -0.0462
19805W        W34936  10.109   8.544   2.685 -0.2860 -0.0746 -0.0320
19806W        W34937  15.402   5.071  14.075 -0.1488 -0.1113 -0.1745
19807W        W34938  11.823   8.096  11.677 -0.2333 -0.1132 -0.0348
19808W        W34939   8.094   9.339   4.998 -0.0106 -0.1194  0.1468
19809W        W34940   2.028   3.446  11.090 -0.2081 -0.0253 -0.2359
19810W        W34941   0.921   3.381   3.385  0.1301 -0.0388  0.0803
19811W        W34942  12.864  17.198   2.989 -0.0347  0.3167  0.2299
19812W        W34943  14.778   3.095  14.960 -0.0410  0.1826 -0.0127
19813W        W34944  10.357   9.190  15.892 -0.0049  0.1356 -0.1942
19814W        W34945  17.276   1.523   0.649 -0.4505 -0.1070  0.0205
19815W        W34946   2.773   3.702   2.858  0.4110  0.2212  0.0196
19816W        W34947   7.114   6.266   0.300  0.0861  0.1668  0.1518
19817W        W34948  17.640  18.163   6.091  0.0051  0.0801 -0.1477
19818W        W34949  15.190  15.529   1.037 -0.0539 -0.0649  0.0339
19819W        W34950   6.586  12.982  14.742 -0.1215  0.1626  0.0703
19820W        W34951  17.449  17.234  13.573  0.1173  0.1781 -0.2934
19821W        W34952  17.331  15.682  12.879 -0.1306 -0.1733 -0.1647
19822W        W34953   4.378   9.027   4.390  0.3095 -0.1145  0.2109
19823W        W34954   0.510   2.468   1.873  0.0683 -0.3468  0.2072
19824W        W34955  15.136   2.283  14.548  0.1541  0.1830 -0.1807
19825W        W34956  16.727   8.034  12.729 -0.2381 -0.1101 -0.2251
19826W        W34957   7.076   5.408   5.204 -0.4177 -0.1766 -0.1375
19827W        W34958   7.327   0.841   1.352 -0.2445 -0.1771 -0.0641
19828W        W34959   4.955  10.028  13.297  0.2960  0.1518  0.1908
19829W        W34960  10.167   6.261   4.715 -0.0205 -0.1110 -0.1654
19830W        W34961  12.267  13.587   3.159  0.0439 -0.0247  0.0694
19831W        W34962  15.463   9.462   5.092 -0.1504  0.2407 -0.0780
19832W        W34963   3.506   2.514  14.808  0.0671  0.0823 -0.1607
19833W        W34964  13.975   1.820  12.905  0.2398  0.0215  0.1305
19834W        W34965  12.381  10.155   0.646 -0.0290 -0.1339 -0.2937
19835W        W34966   3.400   6.725  14.690  0.0802 -0.0918  0.3690
19836W        W34967   0.800  17.095  15.576 -0.0381  0.1944 -0.3042
19837W        W34968   6.323  11.850  14.148 -0.0196  0.1096  0.4181
19838W        W34969   3.488  11.898   3.658 -0.0247  0.4817  0.2241
19839W        W34970   8.692  14.699   0.794 -0.1551 -0.0871  0.0986
19840W        W34971   8.556   1.624  15.292  0.0244  0.0364  0.0312
19841W        W34972   6.636  16.441  10.878  0.1515  0.0447 -0.2662
19842W        W34973   3.368   5.905  14.586 -0.3139 -0.0794 -0.0958
19843W        W34974  12.914   8.898   3.882 -0.2875  0.2476  0.2564
19844W        W34975  16.344   9.823  11.845 -0.0613 -0.2470  0.0730
19845W        W34976   1.906   6.253  11.920 -0.0791 -0.3268  0.1328
19846W        W34977   9.884  16.722  15.915  0.4876  0.1782 -0.2037
19847W        W34978  13.074  11.836   2.607 -0.0227 -0.1049  0.0258
19848W        W34979  12.992   9.971   3.363  0.2577  0.0285 -0.1329
19849W        W34980   4.500   6.369   3.937 -0.3196  0.1473 -0.1770
19850W        W34981  13.909   3.133   4.141 -0.3161  0.2996 -0.2342
19851W        W34982   8.598  13.541  11.157 -0.0383  0.0948  0.0603
19852W        W34983  13.444   6.763  15.292  0.2378 -0.0722 -0.0684
19853W        W34984   7.018  15.000   1.200 -0.0527  0.1329  0.0321
19854W        W34985  12.126   4.976  12.846  0.0036  0.1225 -0.1038
19855W        W34986   2.845  12.632  13.050 -0.1249  0.0161  0.2362
19856W        W34987  12.100  12.980  11.346  0.1633  0.1008 -0.3581
19857W        W34988  10.960   5.220   2.587  0.1409 -0.0329  0.1074
19858W        W34989  11.823  16.669  14.766 -0.0884  0.2847 -0.1022
19859W        W34990  13.616   4.493   1.159 -0.0713 -0.0117  0.1080
19860W        W34991   0.749   3.852  14.172 -0.2306  0.0263  0.0228
19861W        W34992   5.120  15.077   0.671 -0.0281  0.3815  0.1262
19862W        W34993  14.046   7.604   0.101 -0.1787 -0.1204 -0.3151
19863W        W34994   5.211   6.994  15.736 -0.2676  0.1919 -0.1698
19864W        W34995  17.331  13.944  13.451  0.0774  0.1240 -0.1672
19865W        W34996  13.481   3.455   0.653 -0.0902  0.2197  0.1185
19866W        W34997   6.192  11.527  14.521 -0.2365  0.1722 -0.1281
19867W        W34998   6.090   2.521   1.161 -0.2894  0.0343 -0.0544
19868W        W34999   8.229   3.789   2.345  0.1388  0.1664  0.0122
19869W        W35000  15.206  16.694  13.349 -0.0367  0.0424 -0.2260
19870W        W35001  12.312  15.137  12.350 -0.1035  0.1925  0.2531
19871W        W35002  16.581  13.346   4.995  0.1912 -0.0955 -0.1578
19872W        W35003  12.542  12.459  13.986  0.2080 -0.1647  0.0940
19873W        W35004  13.654   3.162  13.090  0.0230 -0.0479  0.2169
19874W        W35005   2.415  14.126   1.264  0.0832 -0.1544 -0.1592
19875W        W35006  13.505   5.845  11.764  0.3162 -0.3145  0.2145
19876W        W35007   9.447  12.336   2.019 -0.0437  0.0357  0.1030
19877W        W35008   0.635   4.027   1.127 -0.3018 -0.1513  0.1270
19878W        W35009  15.040  15.322   2.814 -0.1255  0.4234  0.0428
19879W        W35010  12.664   2.738   3.460  0.2567 -0.1926 -0.1468
19880W        W35011   8.247  10.597  13.664  0.1926  0.1371  0.0801
19881W        W35012   7.881   7.333  14.603 -0.0302 -0.0583  0.1214
19882W        W35013   6.624   2.041  12.566 -0.0557 -0.0098  0.1639
19883W        W35014   0.119  13.075  10.868 -0.0420 -0.0288 -0.0791
19884W        W35015  14.517   1.554  12.105  0.1654  0.0938  0.2375
19885W        W35016  10.261  17.598   2.535 -0.3340 -0.0590 -0.2515
19886W        W35017   7.283  16.634  12.368  0.1707 -0.1357  0.0420
19887W        W35018   6.065  12.861  12.180 -0.0775  0.1487  0.1392
19888W        W35019   6.199   0.782   1.429  0.1191 -0.0344  0.0363
19889W        W35020  11.156  11.582  10.962  0.0740  0.1055 -0.3184
19890W        W35021  17.212   2.201   0.280 -0.0400 -0.1885 -0.0760
19891W        W35022   5.900  17.264   0.611 -0.1521  0.0943 -0.3385
19892W        W35023   2.432  16.870   3.708  0.1275  0.0471 -0.0213
19893W        W35024  11.842   0.211   2.501  0.1138  0.1624  0.1716
19894W        W35025  15.792  12.418   0.866 -0.1499 -0.2013  0.0451
19895W        W35026   5.450  17.221   3.455 -0.0592 -0.1316 -0.3354
19896W        W35027   8.178  10.205   2.916 -0.2583 -0.2044  0.0802
19897W        W35028  12.537   6.493   5.198 -0.1209  0.0970  0.2873
19898W        W35029  13.763  11.429   0.488 -0.1394 -0.2387 -0.4075
19899W        W35030   0.760  16.903  12.651 -0.1827  0.0922  0.2183
19900W        W35031   1.560   2.676  15.663  0.3936  0.0948  0.1830
19901W        W35032   6.825  14.822   0.341 -0.0482  0.1684 -0.0966
19902W        W35033  16.678   9.585  10.845  0.1786 -0.0606 -0.0089
19903W        W35034  10.709   2.176  13.043  0.0514  0.1126  0.0348
19904W        W35035   6.956   6.892  11.501 -0.1244 -0.1993 -0.3084
19905W        W35036  17.696   1.227   0.543  0.2432  0.0231 -0.1819
19906W        W35037   7.373   8.961   3.817 -0.0533  0.1353 -0.0405
19907W        W35038   5.519  12.132  14.354  0.0806  0.0943 -0.0880
19908W        W35039   7.120   9.919   1.914  0.2098 -0.3103  0.1736
19909W        W35040   8.488  14.062  13.640  0.1067 -0.1129 -0.0316
19910W        W35041  12.510   1.290  14.249 -0.0386 -0.0148 -0.2223
19911W        W35042   5.727  14.698  14.299 -0.0576  0.2264  0.2551
19912W        W35043   3.975   2.032   4.823 -0.2218 -0.0704 -0.0046
19913W        W35044   8.259   1.056   1.548 -0.3228 -0.0027  0.0975
19914W        W35045   6.806   7.359   5.167  0.2965 -0.1529  0.2211
19915W        W35046   5.854  12.943   0.658  0.0641 -0.3692 -0.1246
19916W        W35047   1.991  18.104  14.806  0.2772 -0.1064 -0.1234
19917W        W35048  16.163   3.066   2.960 -0.0597  0.0576 -0.1234
19918W        W35049   2.090  11.251  14.928 -0.2172  0.1556 -0.2926
19919W        W35050   9.782  15.572  11.202 -0.0287 -0.0768 -0.5324
19920W        W35051   7.067   4.074   1.200 -0.0015 -0.0327  0.0996
19921W        W35052   4.214   7.582   4.306  0.0932  0.3092 -0.2231
19922W        W35053   5.247  11.901  12.818  0.0157  0.0592  0.1207
19923W        W35054   8.389   9.936  13.433  0.1562  0.1631  0.3196
19924W        W35055  17.682   4.821  11.576  0.0670 -0.2579  0.0624
19925W        W35056  11.359  18.326  11.839  0.0862 -0.0853 -0.1638
19926W        W35057   5.266   9.268  14.797 -0.2525 -0.2183  0.0084
19927W        W35058   2.622   6.034   9.435 -0.1069  0.0487 -0.0295
19928W        W35059  16.903   3.300   5.983  0.3024  0.0210  0.4128
19929W        W35060   4.183   6.514   2.790  0.3549  0.0384  0.0756
19930W        W35061   2.887   8.986   2.299 -0.0336  0.3486 -0.0049
19931W        W35062  14.870  12.938   4.046 -0.4002  0.0421  0.1447
19932W        W35063   7.626   4.379   3.814 -0.0857  0.1304  0.1588
19933W        W35064   5.440   1.791   4.015 -0.0813 -0.2729 -0.1178
19934W        W35065   0.702  16.200   4.716  0.1229  0.1302  0.1146
19935W        W35066   9.652  15.345   2.407  0.3797  0.0054 -0.1416
19936W        W35067  14.642   2.449   0.328  0.0131  0.0970  0.0454
19937W        W35068  16.014   8.482   0.242  0.1181 -0.2635 -0.0344
19938W        W35069   7.036   8.010  11.490  0.2206  0.1144  0.2050
19939W        W35070  14.777  15.740   2.955 -0.1541 -0.1244  0.0545
19940W        W35071   4.958   5.781  14.900 -0.1214  0.3999  0.0478
19941W        W35072  15.229  16.165   2.862  0.1494 -0.0734 -0.1172
19942W        W35073   4.791   5.234  13.410  0.5043  0.1644  0.2768
19943W        W35074   8.571  16.477   5.446 -0.0861 -0.2665  0.1191
19944W        W35075  13.907   5.692   4.167 -0.1084  0.2809  0.1733
19945W        W35076  16.449  10.126  14.354 -0.0297  0.2817 -0.1793
19946W        W35077   7.024  12.085  10.383 -0.2089 -0.0980  0.3139
19947W        W35078   8.551   2.272  13.590  0.3605  0.0005 -0.1158
19948W        W35079   5.695   1.317  13.233  0.1134 -0.4836 -0.0294
19949W        W35080   0.080  11.268   4.264  0.0086  0.3069  0.2338
19950W        W35081  13.391   4.017   0.607 -0.1712  0.0586  0.0373
19951W        W35082  11.936   4.889   0.253  0.0403 -0.0424  0.0350
19952W        W35083   1.524   6.501  15.565 -0.1237 -0.1970 -0.0899
19953W        W35084   3.652   4.283   5.678  0.2443 -0.0637  0.1714
19954W        W35085   3.201  12.267   5.548  0.1034 -0.1532  0.1677
19955W        W35086   3.729   0.590   2.195 -0.2527 -0.3648  0.3369
19956W        W35087   8.895  14.587   3.557 -0.0459 -0.0454 -0.4220
19957W        W35088   0.279   2.119   2.244 -0.0951  0.0736 -0.2620
19958W        W35089  10.637  10.914  11.495 -0.0341  0.0075  0.1198
19959W        W35090   0.308  14.594   3.131  0.2356 -0.2544  0.0441
19960W        W35091   0.685  15.583  13.914  0.0380 -0.0412 -0.1609
19961W        W35092  17.039  14.928  11.473 -0.0661 -0.0016  0.0162
19962W        W35093  12.372  13.476  11.924  0.0861 -0.2069  0.0465
19963W        W35094  14.744   9.978   2.007 -0.1888  0.0332 -0.1839
19964W        W35095   5.570  11.203  12.194  0.1897  0.0146  0.1718
19965W        W35096  11.934   3.682   4.666  0.3204  0.1929  0.2426
19966W        W35097   2.835   8.279  11.628 -0.0605 -0.2157  0.2611
19967W        W35098   5.238   3.221   1.018 -0.3424 -0.3799  0.3365
19968W        W35099  18.087   3.546   2.157  0.0007  0.1035 -0.2302
19969W        W35100  15.935   3.935   0.857 -0.1900 -0.1513  0.0520
19970W        W35101  12.093   6.332   1.522  0.0410  0.1197  0.0460
19971W        W35102   9.426   7.695   2.072  0.0374 -0.2244 -0.0628
19972W        W35103  12.030  13.734  10.796 -0.1019  0.0386 -0.1024
19973W        W35104   5.817   9.173   4.445  0.3823 -0.1185  0.0207
19974W        W35105   6.529  13.684   0.685 -0.0119 -0.0989 -0.1609
19975W        W35106  13.254  11.512   4.025  0.2056  0.4361  0.0076
19976W        W35107   9.598  12.754  11.089 -0.0196 -0.1901 -0.3426
19977W        W35108  13.571  10.703  12.033 -0.4145  0.0458 -0.2794
19978W        W35109  15.618   4.573   0.934 -0.3151 -0.0967 -0.3932
19979W        W35110  15.137  12.955  15.887  0.1225  0.1724 -0.2930
19980W        W35111  11.845  14.528  12.582  0.0133 -0.0776 -0.1963
19981W        W35112   1.821   4.116  13.488 -0.1855 -0.4061  0.1137
19982W        W35113   7.357  15.103   3.090 -0.0581  0.1445 -0.0677
19983W        W35114  13.451  13.987  12.405 -0.0840  0.0028  0.2786
19984W        W35115  10.809  18.278  15.143  0.1882 -0.0424  0.1232
19985W        W35116   1.657  15.379   0.986 -0.1356 -0.0238 -0.1716
19986W        W35117   2.587   4.524   2.430  0.0722  0.2083 -0.0615
19987W        W35118  17.970  10.610  13.852  0.1914 -0.0580  0.1041
19988W        W35119   6.108   9.946  10.479  0.3350 -0.0861 -0.2487
19989W        W35120   7.125  14.062  16.061  0.0517  0.2857 -0.5783
19990W        W35121   5.309   3.297  11.372  0.0155 -0.0480  0.2943
19991W        W35122   6.225   7.914  11.482  0.4897  0.0065  0.1516
19992W        W35123   4.476   3.848  10.839  0.0837  0.0088 -0.1605
19993W        W35124   1.028   1.264  12.245 -0.2693 -0.4099  0.0735
19994W        W35125   2.681  13.516  11.822  0.1455  0.0937  0.3919
19995W        W35126  15.232   7.539   4.362 -0.2333  0.2199  0.0064
19996W        W35127   7.916   0.201  15.785  0.0304 -0.1129 -0.0162
19997W        W35128  13.776  16.640  12.178  0.0324  0.0034 -0.0689
19998W        W35129  16.535   5.826   0.793  0.0872  0.1286  0.2193
19999W        W35130  18.134  14.865   5.783 -0.1171 -0.0006 -0.1028
20000W        W35131  14.820  11.082  11.939  0.1471  0.1031 -0.2755
20001W        W35132  16.971   9.145  14.274  0.0569 -0.0984 -0.2477
20002W        W35133  16.481  13.985   6.098 -0.3064  0.0982  0.0254
20003W        W35134  13.361  15.813   2.914 -0.2113 -0.0227 -0.1375
20004W        W35135   7.827  17.364  13.139  0.1101  0.2828  0.0344
20005W        W35136  14.687   6.835  12.535  0.1913 -0.3639  0.1711
20006W        W35137   4.858   9.028  13.160  0.0752 -0.0051 -0.1002
20007W        W35138  14.206   9.718   2.535 -0.0463 -0.1285 -0.4537
20008W        W35139   4.218   8.090   1.081  0.0728  0.0301 -0.1224
20009W        W35140  14.575   8.565   0.416  0.0242 -0.0328  0.0950
20010W        W35141   1.466   2.909  15.129  0.0842 -0.4840 -0.0111
20011W        W35142   2.750   2.599  13.943  0.0168 -0.1679 -0.2879
20012W        W35143  13.397  11.430  12.729 -0.1221  0.0429 -0.1911
20013W        W35144  13.075  13.333  13.884 -0.1009  0.4871 -0.2792
20014W        W35145   6.730  12.805   0.187 -0.1629 -0.1227  0.2918
20015W        W35146  17.455   0.337   0.233 -0.0410  0.0223  0.2363
20016W        W35147   9.003  17.624  11.220  0.1344  0.2771  0.1808
20017W        W35148  11.786  14.050  14.618  0.0462  0.0215  0.2573
20018W        W35149   8.944   1.458   4.841 -0.3258  0.0575  0.5147
20019W        W35150   7.628  17.520   0.546  0.2237  0.1597  0.1145
20020W        W35151  13.676  13.923  14.685  0.1846  0.1510 -0.1943
20021W        W35152   3.951   5.526  15.069 -0.1711  0.1435  0.0309
20022W        W35153  10.358   9.599   3.988  0.0746  0.2489 -0.3478
20023W        W35154  12.976   6.522   0.584 -0.2035 -0.0895  0.3847
20024W        W35155  10.211  18.256  13.107 -0.0354  0.1129  0.1356
20025W        W35156   7.548   4.645  12.820 -0.0002  0.0829  0.2838
20026W        W35157   2.610  10.783   4.634 -0.0898  0.1406 -0.3534
20027W        W35158  16.932   6.679   0.922 -0.0106  0.0501 -0.2373
20028W        W35159  13.636   7.082  14.829 -0.2683  0.2055  0.1694
20029W        W35160   7.820   0.557   3.016 -0.0383  0.0009  0.3343
20030W        W35161   8.114  14.910  12.129  0.0826  0.1740 -0.1643
20031W        W35162   7.357  11.721   1.617  0.0957  0.0768 -0.0439
20032W        W35163   9.264   4.638   4.495 -0.0216 -0.2273 -0.1702
20033W        W35164  10.044   7.435   1.852 -0.1396  0.0501 -0.0497
20034W        W35165  17.764  12.433   4.544  0.1039  0.2175  0.1648
20035W        W35166   9.305  16.385   3.142 -0.0330  0.0727  0.2076
20036W        W35167  15.284  10.246   4.702 -0.3326  0.1075 -0.1850
20037W        W35168  12.307   7.908   2.788 -0.0314 -0.1861  0.0790
20038W        W35169   5.714   9.910  16.025 -0.2633  0.0167 -0.0380
20039W        W35170  13.464   5.438  15.259  0.2793 -0.0098 -0.2506
20040W        W35171   9.174  15.392   3.169  0.1888 -0.0153 -0.0557
20041W        W35172   7.538   3.742  14.913 -0.0266  0.1439 -0.2097
20042W        W35173  14.045   8.728   3.852  0.1165 -0.0040  0.1081
20043W        W35174   0.053   1.327  12.369  0.0044 -0.0830  0.3975
20044W        W35175  17.411   8.263   4.028 -0.0761  0.1001  0.3768
20045W        W35176   5.020   3.250   2.194  0.0534  0.0704  0.2066
20046W        W35177  15.949   2.220  14.441 -0.1413  0.1956 -0.0672
20047W        W35178  10.227  14.053  14.778 -0.1713 -0.0722  0.2915
20048W        W35179   3.835   2.134  14.967 -0.0316  0.0439  0.0224
20049W        W35180  17.863   6.680   1.303 -0.2170 -0.0383  0.0879
20050W        W35181   9.513  16.607   2.081 -0.1529  0.3988 -0.0116
20051W        W35182   9.984  11.126  16.027 -0.0687  0.1357  0.1656
20052W        W35183  10.814  11.200   2.128  0.0259 -0.1492 -0.0751
20053W        W35184  16.923  10.261   4.930 -0.0770  0.1157 -0.0330
20054W        W35185  13.570   8.417  13.962  0.0301 -0.0569 -0.3570
20055W        W35186   6.644   9.220  13.600  0.2038 -0.0467  0.1934
20056W        W35187   8.231  18.048   1.812 -0.2248  0.3105 -0.1504
20057W        W35188  14.590   5.337   0.016  0.1463 -0.1062 -0.2124
20058W        W35189   1.454   7.887   2.142 -0.1088  0.1728 -0.1836
20059W        W35190   4.736   4.935   1.221  0.0647 -0.0282  0.1068
20060W        W35191   2.758   2.394  12.592 -0.1971  0.0672 -0.0159
20061W        W35192   6.721   0.971   0.546 -0.1330 -0.2298  0.2919
20062W        W35193  15.994  18.010   1.906 -0.3059  0.1258 -0.3383
20063W        W35194  10.026  14.690   3.499  0.0815  0.1611  0.0947
20064W        W35195   4.319  11.159   5.695  0.0607  0.2294  0.0124
20065W        W35196   3.331  18.232   6.048  0.2861  0.2199 -0.0315
20066W        W35197   4.004   6.377   0.538  0.2765 -0.0344  0.0171
20067W        W35198   5.811   8.790   2.056  0.0221 -0.0581 -0.0356
20068W        W35199  12.607   7.288  10.340 -0.0128 -0.1902  0.2686
20069W        W35200   6.842  11.434   4.768  0.2368 -0.1966 -0.0739
20070W        W35201  15.966  18.000  15.656 -0.1011 -0.0668  0.1810
20071W        W35202   0.558   0.353  13.355 -0.2041  0.0623  0.0676
20072W        W35203  15.610   3.217   0.572  0.1602 -0.4480 -0.2370
20073W        W35204   9.516   6.660   3.599  0.2918  0.0931 -0.0283
20074W        W35205   3.520   2.180  11.282  0.2193 -0.1419 -0.4109
20075W        W35206   5.153   0.638   1.709 -0.0888  0.2507 -0.0912
20076W        W35207   2.159  12.578   3.626 -0.1857 -0.1617 -0.3109
20077W        W35208  13.080   3.000   0.808 -0.1349 -0.0462  0.0656
20078W        W35209   8.818  10.223   2.035 -0.0004 -0.1226  0.0888
20079W        W35210   1.877   0.591   2.730 -0.3744  0.1505 -0.1497
20080W        W35211   3.926   0.493  14.500 -0.1284 -0.1592 -0.2190
20081W        W35212   7.983   2.426  14.924 -0.1801  0.2428  0.0020
20082W        W35213   9.564  15.165   3.639 -0.4828 -0.2310 -0.3423
20083W        W35214  14.385  10.385   1.764 -0.0360 -0.2471 -0.2802
20084W        W35215  12.934  14.649   2.306  0.2131 -0.1993 -0.0719
20085W        W35216  16.270  18.217   3.702  0.0018 -0.0180 -0.1675
20086W        W35217  12.708   4.437   2.869 -0.6698  0.0182 -0.3234
20087W        W35218  14.672   9.068  13.460 -0.1720 -0.2892  0.1852
20088W        W35219   5.711   8.921  13.425 -0.1787  0.2478  0.1317
20089W        W35220   6.226   1.910   4.174 -0.0928  0.0400 -0.2574
20090W        W35221  10.411   5.466  13.618  0.1244  0.0918 -0.1791
20091W        W35222  16.058   2.277   4.520  0.2663 -0.1053  0.0338
20092W        W35223   6.031  17.674   5.053  0.2700 -0.3166 -0.2147
20093W        W35224  10.970   4.940  11.741  0.4118  0.2087  0.1005
20094W        W35225   3.652   1.387   4.416  0.0327  0.2575 -0.3393
20095W        W35226   2.144   0.159   3.379  0.0066  0.1209 -0.3260
20096W        W35227  15.109  13.622  12.823 -0.0160 -0.1308 -0.0778
20097W        W35228   3.363   7.603  11.575  0.0715  0.1637  0.0913
20098W        W35229   9.857   3.341   2.480 -0.2008  0.2658  0.0672
20099W        W35230  15.426   6.199   4.096  0.0568  0.1035  0.2188
20100W        W35231  16.542   3.499   0.272 -0.1494  0.0724 -0.0036
20101W        W35232  12.061  17.009  13.778 -0.1032  0.0047  0.0110
20102W        W35233  15.879  14.879  15.732 -0.0949  0.1330 -0.0980
20103W        W35234  13.941  11.515  11.639  0.2099  0.1220  0.0066
20104W        W35235  14.111  12.239  14.373  0.0402  0.3122  0.4174
20105W        W35236   0.315  17.694  12.012 -0.0541 -0.1789  0.4286
20106W        W35237   3.099  15.045   5.792 -0.0020 -0.1463  0.2004
20107W        W35238  17.606   1.526   4.104 -0.0075  0.3630  0.1126
20108W        W35239   9.830  14.454  14.718 -0.2651 -0.0088 -0.0435
20109W        W35240  18.124   1.246   5.115  0.0684  0.0291  0.0082
20110W        W35241  15.089   8.263   2.658 -0.1011 -0.2353  0.4354
20111W        W35242   0.405   6.199  13.042 -0.0175  0.1567 -0.0534
20112W        W35243   3.186  14.768  14.444 -0.0615  0.2435 -0.1544
20113W        W35244  17.877   0.865   1.908  0.2071 -0.1167  0.2324
20114W        W35245   1.810  12.048   2.779  0.1110  0.0836 -0.1848
20115W        W35246   2.643   6.262   3.631 -0.0135 -0.0841 -0.0864
20116W        W35247  13.914  11.737   2.193 -0.0169 -0.0522 -0.1528
20117W        W35248  10.042   3.909  15.430  0.1686  0.2786 -0.0483
20118W        W35249  12.463   8.312  10.777 -0.1244 -0.1936  0.3630
20119W        W35250  12.314  17.503   3.708 -0.1584  0.0471  0.0240
20120W        W35251  14.261   2.718  12.351  0.0680  0.2427 -0.1979
20121W        W35252  14.742   6.255   2.434 -0.0416 -0.0490 -0.0435
20122W        W35253  10.806  10.156  14.237  0.2376  0.1295  0.2268
20123W        W35254  14.770  11.148   4.981  0.1701  0.0783  0.2156
20124W        W35255  16.142  15.787   0.518 -0.3810  0.2669 -0.0945
20125W        W35256   9.872   1.053  11.741  0.0827 -0.2303  0.0521
20126W        W35257   8.435   9.358  11.160  0.1219  0.0233  0.0958
20127W        W35258  11.394   1.843  11.128  0.2558 -0.0086  0.1030
20128W        W35259  17.570  16.761  15.232  0.0524  0.0325 -0.0933
20129W        W35260  17.933  11.424   4.136 -0.1269  0.2034 -0.1191
20130W        W35261   6.172  10.028   0.748 -0.2148 -0.3066  0.1237
20131W        W35262  10.409   2.821   1.900  0.0771  0.1613  0.0421
20132W        W35263   8.036   5.924   2.265  0.1504 -0.0632  0.0709
20133W        W35264  18.084  10.461   5.591  0.2182 -0.0004 -0.0985
20134W        W35265   8.879   0.171   2.239  0.1434  0.0515  0.2998
20135W        W35266   6.124   0.342   3.552  0.3024  0.0829 -0.2834
20136W        W35267   9.197   4.906   0.056 -0.4228  0.0460  0.2918
20137W        W35268  12.766   7.573   9.969  0.1185 -0.0658  0.1782
20138W        W35269   9.576   5.283  14.704 -0.0641  0.4158 -0.0303
20139W        W35270  10.680   4.171  14.734 -0.0228 -0.0828  0.0422
20140W        W35271   4.632   2.650  11.151  0.2030  0.1059  0.1286
20141W        W35272   0.523   7.183   3.119  0.2682 -0.2978  0.1227
20142W        W35273  15.629   8.100  11.514  0.1559 -0.0218  0.1139
20143W        W35274  11.671   2.207  11.915  0.0386  0.1757 -0.1787
20144W        W35275   5.658   7.110   1.286 -0.0309  0.1281 -0.2761
20145W        W35276  13.949  14.262   0.547 -0.0932 -0.0644  0.0299
20146W        W35277  12.591  18.129  15.137 -0.0904  0.0683  0.0412
20147W        W35278   0.980  12.531  16.101  0.0040  0.2901  0.2150
20148W        W35279  12.083   4.239   3.965  0.0706  0.0336  0.2592
20149W        W35280   4.151  12.852  12.301  0.0343  0.0128  0.1761
20150W        W35281   9.082  17.076  16.082  0.1236 -0.0827  0.1473
20151W        W35282   4.360  14.765   2.269  0.0642 -0.3171 -0.2628
20152W        W35283   0.303   7.250   5.640  0.1409  0.2458  0.0662
20153W        W35284  18.119  11.779   2.619  0.3206 -0.2400  0.0344
20154W        W35285   5.191  14.517  12.800 -0.0150 -0.2237 -0.2491
20155W        W35286  13.530  15.749  12.615 -0.0535 -0.5005 -0.2125
20156W        W35287  16.455   7.870  14.288  0.1790  0.1303  0.0277
20157W        W35288  16.859  12.208  11.237 -0.3007  0.1876  0.2199
20158W        W35289   3.545  13.456  11.821  0.2031  0.2053  0.4386
20159W        W35290  14.351  10.273  13.079 -0.1152  0.0410  0.0585
20160W        W35291  17.207   6.016   5.773 -0.0911  0.0726 -0.4727
20161W        W35292  15.252   4.071   0.194 -0.3744  0.2426  0.1925
20162W        W35293   1.104  16.095  11.352  0.4259 -0.0058  0.0902
20163W        W35294   3.514   7.287   4.758  0.0087 -0.0803 -0.0697
20164W        W35295   8.662  10.698   2.180  0.1129 -0.1722 -0.1313
20165W        W35296  12.230  14.491  15.903  0.1001  0.1580 -0.2648
20166W        W35297   1.961   6.606   5.187  0.0903  0.0451  0.1030
20167W        W35298  15.348   9.551   0.804  0.0147 -0.3120 -0.3323
20168W        W35299   3.278   1.902   2.247 -0.0917 -0.2786 -0.1604
20169W        W35300   5.846  10.847  12.567  0.0117  0.0938  0.0759
20170W        W35301  11.220  13.391  11.104 -0.0416 -0.1906 -0.2218
20171W        W35302  16.635   7.009  12.738  0.0091  0.4044 -0.0108
20172W        W35303  12.762   7.432  11.362 -0.0900  0.3418  0.2001
20173W        W35304  11.552  16.377  12.484  0.0452  0.0050  0.0834
20174W        W35305   3.245   1.745   4.166 -0.1089 -0.0296 -0.2399
20175W        W35306  11.649   2.302  10.829  0.1911 -0.0366 -0.0290
20176W        W35307   1.347   4.385  13.345 -0.4383 -0.0333  0.2630
20177W        W35308   1.822   7.979  14.054  0.0872  0.0623 -0.1282
20178W        W35309  16.005   6.224  13.533 -0.2052  0.0608  0.0337
20179W        W35310  12.904  14.675   5.505 -0.0267 -0.0724  0.0619
20180W        W35311   2.211  10.051   4.979 -0.1770  0.1094  0.0509
20181W        W35312  17.966  18.034   2.744 -0.2555  0.1644 -0.0888
20182W        W35313  12.918   2.009  14.493  0.1698 -0.1523  0.4326
20183W        W35314   5.730   2.745   5.634 -0.2521  0.0242 -0.0654
20184W        W35315   4.104   9.214   1.104 -0.0147  0.0681  0.2335
20185W        W35316   3.899  15.413   5.197 -0.1161 -0.0765 -0.1386
20186W        W35317   7.217   0.238   5.895 -0.0632  0.3782  0.1968
20187W        W35318   6.864   0.509   3.047 -0.2835 -0.0158  0.0502
20188W        W35319   4.781  18.233   4.636 -0.2939  0.2530 -0.0685
20189W        W35320  12.451  14.694   6.031 -0.1758 -0.0214 -0.2104
20190W        W35321   2.421  14.181   4.879 -0.0045 -0.1351 -0.0537
20191W        W35322   6.122  14.542   3.391 -0.3445  0.1229  0.0840
20192W        W35323   7.494  17.325   0.079 -0.5248 -0.0871 -0.0488
20193W        W35324   7.285   3.983  13.958 -0.2097  0.0231  0.1232
20194W        W35325  11.452  15.326  10.765  0.1655 -0.0986 -0.1403
20195W        W35326   8.058  13.992  14.352 -0.4243 -0.2544 -0.0486
20196W        W35327   9.720   2.446   3.670  0.0987  0.0747 -0.3639
20197W        W35328  11.224   2.530   2.060 -0.2631 -0.2967  0.1134
20198W        W35329  11.849   4.676  12.008  0.2623  0.2287 -0.0213
20199W        W35330   7.111   0.380  12.362 -0.2163  0.0885  0.1501
20200W        W35331  12.577  11.779   1.729  0.0162  0.0848 -0.0359
20201W        W35332   8.630  12.872  13.552 -0.0854  0.2408  0.0621
20202W        W35333  16.263   6.216   4.676 -0.0967  0.0370 -0.0813
20203W        W35334   8.157   8.686   3.328 -0.0339 -0.0357 -0.1274
20204W        W35335   8.238  15.109   5.840  0.1725 -0.0710 -0.1552
20205W        W35336  11.456   6.996   0.238  0.2111  0.2689 -0.3615
20206W        W35337   2.470   6.122  14.776 -0.1609 -0.2217 -0.0427
20207W        W35338   1.158   0.079   3.688 -0.2401 -0.0038 -0.1662
20208W        W35339   8.004   7.004  11.928  0.0480  0.0962 -0.0605
20209W        W35340   3.686   1.070   0.332 -0.0034 -0.1125 -0.0119
20210W        W35341  13.413   9.103  11.532  0.2346 -0.1317 -0.1071
20211W        W35342  15.016   0.311   5.326 -0.1209  0.2240 -0.0170
20212W        W35343   7.900   6.284  12.674 -0.4615  0.1808 -0.2248
20213W        W35344  10.755   8.897  11.410  0.3030  0.0327 -0.3452
20214W        W35345  17.707  12.461   9.523  0.2092 -0.3312  0.0193
20215W        W35346  14.520  11.545  10.193  0.0082 -0.3015 -0.0428
20216W        W35347   8.361   3.962  13.587  0.1006 -0.0569  0.1857
20217W        W35348   9.950  10.398  15.569  0.1183 -0.1599  0.1031
20218W        W35349   7.168  13.253   1.441 -0.1907  0.0771 -0.4221
20219W        W35350  10.311   0.865   4.763 -0.1632  0.1379  0.0580
20220W        W35351  11.687  11.486   1.089  0.4424  0.0829 -0.2157
20221W        W35352   7.904  14.232   3.477  0.0416 -0.1219  0.2364
20222W        W35353   8.289  11.878   2.585  0.2578  0.1283  0.2844
20223W        W35354   6.745   7.480  12.185 -0.2800 -0.4182 -0.2675
20224W        W35355   9.175  16.715  14.184 -0.4904  0.1104 -0.1194
20225W        W35356  10.797  11.607  12.273  0.2408 -0.0929  0.3374
20226W        W35357  16.385  15.226   4.896  0.3233  0.3030  0.3351
20227W        W35358   8.537  14.673  15.085 -0.3096  0.1896  0.0335
20228W        W35359   1.073   9.250   5.221 -0.1321 -0.1697 -0.1435
20229W        W35360  10.942  12.820  13.646  0.3315 -0.2610 -0.0181
20230W        W35361   4.639  10.978  12.324 -0.2950  0.1879 -0.0597
20231W        W35362   3.871   4.182  15.257  0.0037  0.0179  0.2218
20232W        W35363   5.821   7.949   5.012 -0.1001  0.3838 -0.0067
20233W        W35364   2.943   8.072   1.172  0.2075 -0.1828 -0.2866
20234W        W35365   7.309   8.910  12.624 -0.1846  0.1017  0.0325
20235W        W35366  11.107   2.998   4.425 -0.0492 -0.2888  0.0011
20236W        W35367   4.164  15.975   1.006 -0.4565  0.0123  0.3677
20237W        W35368  17.186  10.052   0.228 -0.0075 -0.2853  0.0404
20238W        W35369   9.234   2.108   3.827 -0.1020  0.0560 -0.2185
20239W        W35370   2.193   0.992   3.601  0.2617  0.0038  0.1175
20240W        W35371  16.164   9.430   0.870  0.2124  0.1231 -0.3786
20241W        W35372  14.983   8.575   3.503  0.1497  0.2077  0.1335
20242W        W35373  15.552  10.324  13.627  0.1026 -0.0138 -0.2181
20243W        W35374   6.347   0.107  10.454 -0.3070 -0.0572 -0.0437
20244W        W35375   6.283  15.105  14.958 -0.1174 -0.0805 -0.1723
20245W        W35376   9.539  13.026   2.258 -0.3143  0.1423 -0.2473
20246W        W35377   4.261   5.097   1.002  0.2043 -0.2104  0.3679
20247W        W35378   0.912   6.909  10.983  0.0133  0.0508  0.1769
20248W        W35379  13.438   3.082   3.524 -0.1235  0.3495 -0.3168
20249W        W35380  11.581   4.044   0.079  0.3429 -0.3071  0.3228
20250W        W35381   8.937  16.382  10.946  0.0168 -0.0474  0.0197
20251W        W35382  12.247   3.984   3.519 -0.0727 -0.2877  0.2282
20252W        W35383   4.510   5.189  10.852  0.0971  0.2650 -0.3179
20253W        W35384   4.175   3.035   4.703  0.1324 -0.0163  0.1268
20254W        W35385   4.268  14.799   4.052  0.1692  0.4412 -0.0355
20255W        W35386   1.942  15.708   0.432 -0.0001 -0.0090  0.0220
20256W        W35387  18.155   4.696  13.970  0.0437  0.1826  0.2360
20257W        W35388   3.741   9.596  14.462  0.2700 -0.1079 -0.3216
20258W        W35389   3.332  10.352   4.132  0.0476  0.1168 -0.0260
20259W        W35390  12.464  13.317  14.469  0.1546  0.0985 -0.2016
20260W        W35391   4.166   9.204   3.857  0.0234 -0.0347  0.0603
20261W        W35392   6.730   3.058  12.687 -0.1364 -0.0988 -0.1017
20262W        W35393  16.981   0.474  10.716  0.0888  0.2230 -0.1192
20263W        W35394   4.411   2.149  11.721  0.1874 -0.2578  0.2417
20264W        W35395   2.046   7.529   1.011  0.1845 -0.1370 -0.0876
20265W        W35396   5.777  12.640  15.262 -0.3162 -0.1122 -0.1076
20266W        W35397  12.302   4.957   5.066 -0.1490 -0.0128 -0.2429
20267W        W35398   2.668   7.970  11.266 -0.0126  0.1388  0.2033
20268W        W35399   5.819   3.996  13.950 -0.1693 -0.1853 -0.2743
20269W        W35400  11.917  11.329  15.952 -0.1019 -0.1798 -0.2198
20270W        W35401  16.203   7.327  12.625  0.0737  0.0371 -0.1000
20271W        W35402  10.501   9.222   2.639  0.1402 -0.1827  0.0727
20272W        W35403  14.192  17.802   5.224  0.1907 -0.4485 -0.1594
20273W        W35404   4.622   8.355   1.013 -0.0191 -0.1371 -0.3307
20274W        W35405  16.172   8.700  14.175 -0.0185  0.0239  0.3167
20275W        W35406   3.613   8.420  11.284  0.0976  0.0947 -0.2170
20276W        W35407  17.538  13.221  12.117  0.1103  0.1445  0.1121
20277W        W35408   6.754   6.483  14.416 -0.1385  0.1718  0.1693
20278W        W35409   6.489  13.602  11.986 -0.0481  0.1033  0.1382
20279W        W35410   8.217   6.740  15.560  0.0249  0.1000 -0.0284
20280W        W35411   3.056   7.810   3.901 -0.0230 -0.2780 -0.1912
20281W        W35412  14.188  12.926  15.005  0.0267 -0.1540 -0.0705
20282W        W35413  14.048  13.208   4.673  0.2617 -0.2549 -0.1782
20283W        W35414   2.942  16.094   2.709  0.0433  0.2353 -0.1130
20284W        W35415   7.187  18.033  13.943  0.0669  0.3497 -0.3529
20285W        W35416  14.436   1.848  12.499  0.3102 -0.0507 -0.1130
20286W        W35417  14.437  13.023  15.877 -0.0859  0.1824 -0.1176
20287W        W35418   2.000   2.692   4.459 -0.1028 -0.0245 -0.1749
20288W        W35419   8.955   3.995  15.188 -0.0763  0.0934  0.2665
20289W        W35420   1.248   4.162  12.437  0.2186  0.2368  0.2361
20290W        W35421   4.338  15.519   5.106  0.2060  0.1163 -0.0490
20291W        W35422  14.325   8.929  11.038  0.1692  0.0461  0.2016
20292W        W35423   2.474   9.309  14.062 -0.4134  0.1222  0.0896
20293W        W35424   4.992   5.346  12.505 -0.1204  0.0389  0.0744
20294W        W35425   2.396  18.209   6.211 -0.0411  0.2977  0.0394
20295W        W35426   6.217   0.207   1.510 -0.4110 -0.2566 -0.1246
20296W        W35427   3.811   9.492  13.451  0.1418  0.3657 -0.1861
20297W        W35428  16.984   5.426   3.371  0.1264 -0.0413  0.0965
20298W        W35429   0.146   4.420   2.293 -0.0209 -0.0427 -0.0913
20299W        W35430   0.732   4.411   2.955 -0.2430 -0.0385  0.1577
20300W        W35431  15.617  13.281  16.064 -0.0221  0.0544  0.2208
20301W        W35432   2.355   3.234   3.837  0.1407  0.3449  0.2055
20302W        W35433   8.150   9.054  13.846  0.0548 -0.2774 -0.2054
20303W        W35434   9.410   5.090   3.687 -0.1995 -0.1180 -0.0844
20304W        W35435   1.484   0.793   0.664  0.0984  0.1847  0.1795
20305W        W35436   7.752   8.077  11.556  0.4554  0.3511  0.1070
20306W        W35437   6.258  18.030   4.303 -0.1750 -0.0014  0.0870
20307W        W35438  17.015   6.038   2.153  0.2874 -0.1296 -0.0531
20308W        W35439   0.260  12.273  11.341  0.3143  0.0362 -0.0095
20309W        W35440  15.392  18.123   5.572  0.1886  0.0419  0.1484
20310W        W35441   7.129   7.292   4.729  0.0727  0.0170 -0.0429
20311W        W35442   6.407  12.739  15.506 -0.0272  0.0799 -0.3750
20312W        W35443  16.023   4.437  11.682  0.0493 -0.0701 -0.0480
20313W        W35444   1.532   0.793   5.791  0.0107  0.3946 -0.0573
20314W        W35445   6.685   0.970   4.226  0.3506 -0.2435  0.1597
20315W        W35446   2.234   3.633  12.021  0.4004  0.0240 -0.4296
20316W        W35447  11.378  14.778   0.372 -0.4350 -0.1182 -0.0695
20317W        W35448  12.887  13.547   1.280 -0.0607  0.0724  0.1652
20318W        W35449   3.617   4.230  11.584 -0.0841  0.0345  0.1712
20319W        W35450  10.211   1.436   0.627 -0.1351 -0.0667  0.0852
20320W        W35451   6.199  10.439   0.429  0.1437  0.0564 -0.0635
20321W        W35452   8.850   7.783  11.224  0.1064 -0.4211  0.0247
20322W        W35453  11.473  11.656  13.666  0.3580  0.0237  0.0785
20323W        W35454   5.272   1.088   1.385  0.1514 -0.0835  0.1215
20324W        W35455   3.446  10.919  14.130  0.0453  0.0155  0.0516
20325W        W35456   6.567  11.508   0.067 -0.0803  0.2210  0.1273
20326W        W35457   9.453  17.530  15.334 -0.1134 -0.3574  0.1759
20327W        W35458   7.754   4.518   4.269 -0.0778  0.3615 -0.3764
20328W        W35459  13.539   5.359   4.251 -0.0402 -0.0846 -0.1315
20329W        W35460   4.224   5.036   1.950  0.1041  0.1353 -0.0379
20330W        W35461  15.580   3.336   1.545  0.3154  0.0486  0.0957
20331W        W35462   3.574   8.632  13.834 -0.1105 -0.3300 -0.2243
20332W        W35463  14.439   8.694  15.016 -0.1593  0.0586 -0.0583
20333W        W35464   2.213   2.787  11.433 -0.0210  0.0435  0.1518
20334W        W35465  15.548  14.238  12.328  0.1081 -0.1279  0.1299
20335W        W35466  17.247  11.268   5.286 -0.0439  0.0967  0.2761
20336W        W35467  15.200  14.353  15.430 -0.2945  0.4504  0.0270
20337W        W35468  17.894  11.804   3.872 -0.0657 -0.1740 -0.2084
20338W        W35469   7.209   8.821  15.692  0.1595  0.0175 -0.0906
20339W        W35470   2.485  11.696   4.635 -0.0963  0.0070 -0.0990
20340W        W35471  12.570   4.255  15.880  0.3058 -0.0709 -0.0189
20341W        W35472  14.906  17.958  10.701  0.1476  0.2435 -0.1526
20342W        W35473   0.969   4.240   3.427 -0.2298 -0.0779  0.4029
20343W        W35474  13.398   7.492   3.728  0.2134 -0.1954 -0.1805
20344W        W35475  16.300  16.148   4.158 -0.2189  0.0043 -0.1933
20345W        W35476   3.228  15.803   2.441 -0.0246 -0.2632  0.0110
20346W        W35477   0.226   6.963   0.011 -0.0260  0.0388  0.0310
20347W        W35478   0.311   2.430   3.320  0.0932  0.0209 -0.0437
20348W        W35479  10.820  14.708  14.428 -0.0549  0.0081 -0.1497
20349W        W35480   8.301   6.299  14.975 -0.0561 -0.0159 -0.1768
20350W        W35481  16.896  14.877   2.674 -0.0590 -0.1825 -0.1239
20351W        W35482   8.200   8.410   1.024 -0.0935  0.0802  0.1745
20352W        W35483   7.076   8.622  13.009 -0.0477 -0.1763  0.1070
20353W        W35484   7.286  16.031  14.314 -0.0268  0.0756  0.0316
20354W        W35485   8.876   4.245   3.243 -0.3184 -0.1899 -0.1781
20355W        W35486  12.922  11.307   0.869 -0.2170 -0.2251  0.0965
20356W        W35487  15.240  14.067   3.293  0.0178 -0.0578 -0.1710
20357W        W35488   3.019  14.317  14.623  0.3652 -0.0443  0.0836
20358W        W35489  14.377  14.359  13.867 -0.2758 -0.0793 -0.1499
20359W        W35490   0.967  16.145   0.913 -0.1361 -0.1689  0.0278
20360W        W35491   5.016  13.370   2.386 -0.1364  0.1028  0.2048
20361W        W35492  13.329   9.464  12.710 -0.2609  0.1564  0.0249
20362W        W35493   3.182  11.696  14.904  0.1662 -0.1569  0.1981
20363W        W35494   6.217   0.956  15.726  0.0928 -0.1327 -0.1765
20364W        W35495  10.843  17.668  13.148  0.0420  0.0332 -0.0808
20365W        W35496  12.047   7.146  15.248  0.2266 -0.0689 -0.1209
20366W        W35497  14.006  13.471   0.936  0.2264  0.1180 -0.1272
20367W        W35498  14.730  14.679   1.686 -0.0261  0.0508 -0.1404
20368W        W35499   5.530  11.000   3.650  0.2312  0.0196 -0.1435
20369W        W35500   6.368  17.993  15.737 -0.3294  0.0137 -0.0603
20370W        W35501  11.326   9.113  11.575 -0.0329  0.2515  0.0704
20371W        W35502   1.526   3.946   4.489  0.1596 -0.0316  0.1910
20372W        W35503  14.586  17.292  11.274 -0.1856  0.0468 -0.2640
20373W        W35504  15.091  18.043   5.037  0.1206  0.1310  0.0789
20374W        W35505  17.936   1.641   3.025  0.0483  0.2173  0.0009
20375W        W35506   9.705  13.168  13.442  0.1582  0.1291 -0.3147
20376W        W35507   1.991  17.715   2.166 -0.3148 -0.3026 -0.0923
20377W        W35508  12.227   0.061  10.967  0.0737 -0.3895  0.2710
20378W        W35509   3.879  11.649   1.128 -0.1285 -0.0951  0.0637
20379W        W35510   9.289   0.582  15.878  0.0517 -0.1506 -0.0128
20380W        W35511   8.701  17.205   1.793  0.0863  0.0072  0.0778
20381W        W35512  15.258   8.508   5.520  0.0719 -0.2387  0.1154
20382W        W35513   1.602  18.103  15.888  0.0739 -0.1837 -0.1094
20383W        W35514   9.345   1.691   5.140  0.1474  0.1814 -0.1527
20384W        W35515  15.388  13.548  14.781 -0.0829 -0.2258  0.2895
20385W        W35516   2.033  14.246  10.765 -0.2312 -0.2307  0.1124
20386W        W35517  16.873   1.043   1.852 -0.0757 -0.1530  0.2761
20387W        W35518   0.459   5.407   4.478  0.0491  0.2167  0.1363
20388W        W35519   7.425  17.144  14.961  0.0103 -0.2848  0.2357
20389W        W35520   3.609  12.341  12.917  0.0700  0.1784 -0.0493
20390W        W35521   7.033   4.868   5.158 -0.1434 -0.0918 -0.1125
20391W        W35522  16.725  10.349   2.724  0.0946  0.1366  0.3098
20392W        W35523  13.108   2.702   3.617 -0.0270  0.2902 -0.1279
20393W        W35524   6.429   9.498   1.476  0.2559  0.1237 -0.0927
20394W        W35525  11.716   0.279  15.081 -0.0714  0.2338 -0.1401
20395W        W35526   8.380  17.621  14.469 -0.1309 -0.0558  0.2042
20396W        W35527  11.029   3.523   4.522  0.0708  0.0804  0.1390
20397W        W35528  14.023   1.030   5.606  0.0816 -0.3842  0.0608
20398W        W35529  11.996  15.781   3.003 -0.2514 -0.1344 -0.2664
20399W        W35530   8.972  10.550   2.577  0.2339  0.0760 -0.2931
20400W        W35531   4.492  11.496   2.097  0.0631  0.2117  0.0421
20401W        W35532  12.186   1.313   4.068  0.0643 -0.0696 -0.2237
20402W        W35533   4.749   2.947  14.915 -0.0633 -0.0417  0.2700
20403W        W35534   9.732   3.182   3.310 -0.1713 -0.0111 -0.0360
20404W        W35535   6.141   5.104  11.250  0.0529  0.0270  0.4226
20405W        W35536   6.626  13.864   2.144 -0.1668 -0.0950 -0.0539
20406W        W35537  13.103   3.587   1.009 -0.2910  0.2305 -0.0150
20407W        W35538   6.172   3.760   1.962  0.3358  0.0601  0.2137
20408W        W35539  16.990   5.596  13.140 -0.0530  0.1261 -0.0461
20409W        W35540  17.867  15.881   2.475  0.3219 -0.2008  0.1267
20410W        W35541   7.744   8.996   4.785  0.3072  0.0767  0.1302
20411W        W35542   5.245  16.600   0.943  0.4777 -0.2055  0.0062
20412W        W35543   9.935  14.681   5.003  0.2338 -0.1519 -0.2719
20413W        W35544   6.141   7.604  11.919 -0.1882 -0.0645  0.3069
20414W        W35545   4.425   0.661   1.129  0.1245 -0.1881 -0.2618
20415W        W35546  10.508   3.415  12.113  0.2681  0.0055  0.0571
20416W        W35547   4.074   7.304   4.698 -0.1099 -0.0448 -0.1332
20417W        W35548   8.047   3.090  11.662  0.0269  0.1619 -0.0017
20418W        W35549   8.379  11.254  16.080 -0.1047  0.0891  0.0367
20419W        W35550   1.024   2.793   0.308 -0.2673 -0.0133 -0.0025
20420W        W35551   1.067  17.990  15.931  0.0909 -0.1069  0.3375
20421W        W35552   9.444   2.189  13.760 -0.2005 -0.0467  0.2846
20422W        W35553   0.094  14.826  12.704  0.0085  0.1272 -0.0416
20423W        W35554   5.692   8.586  12.727  0.0767 -0.0335  0.0437
20424W        W35555   5.801   7.293  11.270 -0.2800  0.2150  0.2048
20425W        W35556  18.251  12.347   3.146 -0.1289 -0.1992  0.0603
20426W        W35557   1.753  14.818  15.184 -0.4442 -0.1592 -0.1376
20427W        W35558  14.919   7.223  10.840  0.1527 -0.2020 -0.0296
20428W        W35559   6.927   2.109   2.408  0.1353  0.3610  0.1533
20429W        W35560   1.397  10.611  15.805 -0.1659  0.0134  0.1315
20430W        W35561   3.451  14.161   1.288  0.2050 -0.2960 -0.1796
20431W        W35562   6.400   9.700  15.434 -0.1936 -0.4203  0.0196
20432W        W35563  14.713  11.799  10.589  0.1644  0.0561  0.0402
20433W        W35564   2.709   6.944   4.244 -0.1975 -0.3441 -0.1323
20434W        W35565   5.876  10.874   4.024 -0.3300  0.0443  0.1296
20435W        W35566   4.022  17.554   1.544  0.2523 -0.0519 -0.0128
20436W        W35567   7.322  14.110  11.629  0.0605  0.1495  0.0705
20437W        W35568  11.115   9.791  10.109 -0.0101  0.1746  0.0330
20438W        W35569  16.117   1.410  10.564 -0.0251 -0.0021 -0.0492
20439W        W35570   6.573   5.901   1.366  0.1645 -0.2200 -0.1442
20440W        W35571   5.457   8.455  14.650 -0.0617 -0.3116 -0.1704
20441W        W35572  17.525  14.928  12.550  0.2624 -0.0841  0.0824
20442W        W35573  11.514   5.925  12.517 -0.1463 -0.3971  0.1971
20443W        W35574  15.144  12.724   4.462 -0.2338  0.1299 -0.0806
20444W        W35575   9.196  16.842  10.937  0.0363  0.1697 -0.0161
20445W        W35576   6.918   1.189   5.051  0.1024  0.0451  0.0156
20446W        W35577  11.678   5.921  11.313 -0.3012 -0.3148  0.3316
20447W        W35578  11.166  13.710  10.763  0.0692 -0.0815 -0.0716
20448W        W35579  11.317  10.481  11.307 -0.2159  0.1651  0.2009
20449W        W35580   8.201  12.071  12.129 -0.0606  0.1421  0.1269
20450W        W35581  10.005   7.909   2.637  0.2482  0.0706 -0.2158
20451W        W35582  17.068   7.373   5.068 -0.3538 -0.0783 -0.0025
20452W        W35583   0.068  11.354  14.086  0.1137 -0.0875 -0.5480
20453W        W35584   4.879   1.665  12.287  0.2617  0.0062 -0.1050
20454W        W35585  17.516  18.193   0.367 -0.2168 -0.2798  0.0658
20455W        W35586   9.857  16.189  13.394  0.1067  0.1941  0.1407
20456W        W35587  12.817  16.410   1.720  0.2178  0.0162  0.1165
20457W        W35588  16.034  17.281  13.528 -0.0793  0.1258 -0.4507
20458W        W35589  17.027   3.727   6.253  0.1065 -0.1364 -0.3037
20459W        W35590  16.498   3.766  14.385 -0.0081  0.0534  0.1896
20460W        W35591   0.181   2.678  13.090 -0.1980 -0.0685 -0.1343
20461W        W35592   5.662   0.767  12.710  0.2133 -0.2931 -0.1323
20462W        W35593   7.764  10.713  14.612  0.0395 -0.0845 -0.1080
20463W        W35594  16.130   5.008   3.347 -0.2948 -0.1286  0.2090
20464W        W35595  11.001  12.102   2.943  0.2828  0.1948  0.0513
20465W        W35596  10.470  10.639   2.935  0.1216  0.1336 -0.0397
20466W        W35597   1.508   0.859  13.017 -0.1496  0.2718 -0.0622
20467W        W35598   5.017   3.129   4.206  0.2023  0.3548  0.2405
20468W        W35599   4.936  12.283  12.613  0.2491 -0.3162  0.2313
20469W        W35600  10.292  13.043   4.476 -0.1937 -0.0191  0.1721
20470W        W35601   1.945   2.457  16.005  0.2682 -0.2383 -0.1291
20471W        W35602   5.091   3.856  14.719  0.1161 -0.0935 -0.2199
20472W        W35603   5.108  14.264   4.753  0.2277  0.0897 -0.1188
20473W        W35604  12.174  12.036   1.904  0.0844 -0.0088 -0.1037
20474W        W35605   2.581   6.924   2.397 -0.1942 -0.0478  0.1302
20475W        W35606  11.654  14.729  11.689  0.4058 -0.1889  0.0629
20476W        W35607  18.047   2.461  11.325  0.1541 -0.1581 -0.2704
20477W        W35608   3.367  18.126   2.186  0.2023  0.2794 -0.1954
20478W        W35609  12.512  16.163   1.426 -0.1722 -0.0158  0.1162
20479W        W35610  14.831   9.665  12.003  0.2047 -0.1761  0.0624
20480W        W35611  15.728  16.987  16.056 -0.1423 -0.0155  0.0781
20481W        W35612   4.695  13.927   2.890 -0.1044 -0.0303 -0.0067
20482W        W35613   8.052  10.233   3.610 -0.0138  0.2789 -0.0758
20483W        W35614   0.804  17.010  15.067  0.1533  0.2160  0.1344
20484W        W35615  16.548   6.472   1.241 -0.0083  0.0514 -0.2206
20485W        W35616   1.219   1.581   2.090 -0.2478 -0.0412  0.1255
20486W        W35617   0.493   1.381  13.584  0.2036 -0.1185 -0.0617
20487W        W35618  17.325   9.918   1.599 -0.0330 -0.0772 -0.0649
20488W        W35619   7.679   1.938   4.174  0.0446 -0.0330 -0.3331
20489W        W35620   5.821  14.989   1.950  0.0329  0.0479 -0.0540
20490W        W35621  12.588  17.851   4.013  0.0922 -0.1523 -0.3506
20491W        W35622   7.889   4.867  13.459  0.2004  0.1157  0.1846
20492W        W35623  12.461   3.597  14.451  0.1478 -0.0943 -0.0204
20493W        W35624  16.798   3.801   1.096 -0.0984  0.1683  0.1861
20494W        W35625   0.907   4.085  11.705 -0.0336  0.1099  0.2581
20495W        W35626  10.729   3.710  13.912 -0.0000  0.1152 -0.1241
20496W        W35627   6.101   8.609  12.061 -0.1962  0.0330 -0.2723
20497W        W35628   8.563  17.990   2.633  0.0211 -0.0593 -0.1911
20498W        W35629   6.996  17.338  12.370 -0.0266 -0.2240 -0.0755
20499W        W35630   7.723   1.227   0.609 -0.2189  0.2077 -0.0960
20500W        W35631   5.032   5.432   4.290 -0.1265 -0.3198  0.0403
20501W        W35632  17.008   5.363  11.944 -0.2807  0.1029  0.2064
20502W        W35633   6.712  11.336   2.856 -0.0405 -0.1362 -0.1229
20503W        W35634   6.696  15.412  12.517  0.0593  0.0500  0.3447
20504W        W35635   6.475  16.940  15.906  0.0019 -0.0529 -0.1719
20505W        W35636  13.249   5.227  16.048  0.0309 -0.0545  0.0371
20506W        W35637   3.798   1.153  13.483  0.0110 -0.1690  0.1484
20507W        W35638  14.196   1.320  13.135  0.2157  0.0471 -0.0948
20508W        W35639   8.109   7.060   4.716 -0.2558 -0.1076  0.2722
20509W        W35640  14.030   2.774  12.855 -0.0438 -0.0344 -0.0601
20510W        W35641   6.524   0.855   2.031 -0.0028  0.2971  0.0807
20511W        W35642   3.762  14.021   5.771  0.3931 -0.0544 -0.0249
20512W        W35643  13.804   9.292   0.745 -0.1535  0.1011 -0.0222
20513W        W35644   5.306   9.501  13.706  0.2410  0.0375 -0.0346
20514W        W35645  11.850   1.109  11.315  0.1691  0.0454 -0.0701
20515W        W35646   0.739   7.621  14.804  0.0179  0.0514 -0.1545
20516W        W35647  12.395   6.776   3.895  0.1068  0.1015  0.0148
20517W        W35648  11.486   5.976   4.737 -0.0606  0.0376 -0.0959
20518W        W35649  12.429   2.642   4.500 -0.4494  0.5262  0.1072
20519W        W35650   5.415  14.144  15.183 -0.0424 -0.0824 -0.3136
20520W        W35651   8.758   1.017  13.856 -0.1261 -0.0586 -0.0272
20521W        W35652  12.428  11.168   2.851 -0.0367  0.1329  0.3132
20522W        W35653   5.768  15.357   5.502  0.0238  0.0626  0.0202
20523W        W35654  17.586  11.370   4.504 -0.2540  0.4530  0.1054
20524W        W35655  16.037  15.272   3.355 -0.4302 -0.1286  0.3500
20525W        W35656   8.198  11.562  15.604 -0.1889  0.2765 -0.1421
20526W        W35657   3.750  15.403  15.028  0.0124  0.2711 -0.1810
20527W        W35658   0.020   3.222   0.822 -0.2393 -0.1500 -0.0448
20528W        W35659   9.446  18.052  13.681 -0.0230 -0.3422  0.4323
20529W        W35660  13.080   7.134  14.593  0.2311 -0.1029 -0.2032
20530W        W35661   0.149   9.071   3.173 -0.0013  0.3284  0.2101
20531W        W35662  10.171   3.938  11.456 -0.3819 -0.3737 -0.0425
20532W        W35663   1.816  12.797   5.266  0.3655  0.3484 -0.2221
20533W        W35664  12.645   9.661  14.823 -0.1005 -0.1428 -0.2316
20534W        W35665   8.493  12.244   4.750  0.1858 -0.0806 -0.1697
20535W        W35666  17.852   5.233  11.340  0.2193 -0.0529  0.2628
20536W        W35667   9.341  11.511   1.706 -0.1853  0.2301  0.2381
20537W        W35668   0.710  11.479  15.669  0.1709  0.3148 -0.3342
20538W        W35669   7.231   2.129   0.655 -0.0211  0.1085 -0.1391
20539W        W35670   9.163  13.799   2.783 -0.0932  0.2507 -0.2749
20540W        W35671  16.113  15.082  13.748  0.1833  0.0754 -0.2396
20541W        W35672  18.022   6.577  11.156  0.0491  0.0504  0.0493
20542W        W35673   6.521  10.888  12.010  0.0210 -0.0366  0.2360
20543W        W35674   7.578  11.703   0.254  0.2187  0.1817 -0.1351
20544W        W35675  13.736   5.347  12.290  0.0201 -0.0902 -0.1523
20545W        W35676   5.476   1.026  15.815  0.1229  0.2876 -0.0482
20546W        W35677   7.255   3.254   0.096  0.1179 -0.0922 -0.0165
20547W        W35678   2.021   9.682   3.231  0.1120 -0.1831 -0.0264
20548W        W35679   4.300   9.496  14.426  0.0643 -0.1702  0.1213
20549W        W35680   5.965  16.178  13.690 -0.0569  0.1300  0.2636
20550W        W35681   6.389   3.002  12.278  0.1895  0.2823  0.0273
20551W        W35682  18.153   2.665   0.253  0.0133 -0.2188 -0.3134
20552W        W35683   5.802   4.832   0.161  0.3171 -0.0915 -0.1866
20553W        W35684  13.122  14.723  10.400  0.3482 -0.3651  0.1704
20554W        W35685   7.578   8.115  14.488  0.0183 -0.1276  0.1623
20555W        W35686   8.237  14.484  15.883 -0.1062 -0.1503 -0.2156
20556W        W35687  17.755   2.692   1.561  0.1528 -0.0900 -0.2760
20557W        W35688   7.103   8.171   4.888 -0.2050  0.0035  0.0717
20558W        W35689   5.850   4.430   5.705 -0.2177 -0.4775  0.3995
20559W        W35690  14.194  13.398   4.262 -0.3290 -0.2820 -0.2153
20560W        W35691  13.970   9.301   1.848  0.1625 -0.1257 -0.2057
20561W        W35692   3.901   5.881  14.667 -0.1226  0.1564 -0.1483
20562W        W35693   0.758   8.473   1.005  0.2061 -0.1015 -0.0226
20563W        W35694  15.936  14.501   1.038 -0.0103 -0.0782  0.3911
20564W        W35695   8.553   6.066  12.368 -0.2258  0.0372  0.1677
20565W        W35696  17.045  14.449   2.500 -0.1181 -0.1608  0.1792
20566W        W35697  15.080  10.814   0.371 -0.0808  0.1848 -0.1532
20567W        W35698   9.079  14.171  12.141 -0.1426 -0.0257 -0.0189
20568W        W35699  11.751  16.844  15.849  0.1939 -0.0841 -0.2723
20569W        W35700   2.941  10.073   0.476  0.0179  0.1191  0.1755
20570W        W35701  10.274  12.135  11.538 -0.0653  0.0031 -0.0852
20571W        W35702   4.567   6.630  15.849 -0.1293  0.1103  0.0363
20572W        W35703  18.044  15.253   1.338 -0.0435  0.5339  0.1211
20573W        W35704  15.255   5.253  15.298 -0.0436  0.2300  0.0370
20574W        W35705   2.621  14.541  12.449  0.0117 -0.3474 -0.2159
20575W        W35706   7.927   2.841   0.580  0.0551 -0.0638  0.1193
20576W        W35707   5.863   4.135   1.930 -0.3834  0.1813  0.3436
20577W        W35708  18.235   8.546   3.552 -0.2318 -0.3463 -0.2486
20578W        W35709   9.581  12.459  11.830  0.1241 -0.0313  0.1240
20579W        W35710  12.279  14.104  13.908  0.0675  0.1320  0.2419
20580W        W35711   0.615   5.699   3.538 -0.0540 -0.3173  0.1366
20581W        W35712   1.090  16.101   2.409  0.3695  0.3465  0.2834
20582W        W35713  12.682  12.492  10.840 -0.1282  0.0071 -0.1169
20583W        W35714  14.948   1.463  14.258  0.0620  0.0565  0.2768
20584W        W35715   4.505   2.559   2.419 -0.1327  0.4000  0.0047
20585W        W35716  12.911  18.311   4.013 -0.0225  0.0436 -0.2057
20586W        W35717   2.019   8.719  11.745 -0.1934  0.0510  0.2711
20587W        W35718   1.645   2.514  13.500 -0.0216 -0.0615  0.0387
20588W        W35719  11.959   4.887  13.778 -0.5054  0.0175 -0.2344
20589W        W35720  16.557  16.267   1.337 -0.0478 -0.0925  0.1012
20590W        W35721   1.959  11.439  13.565 -0.1929  0.1382  0.4328
20591W        W35722  12.476   7.542  14.516 -0.1888  0.3205 -0.2518
20592W        W35723  12.991   3.155   4.929  0.4393 -0.1114 -0.0622
20593W        W35724  12.349   5.488   1.350  0.0864 -0.2142  0.1026
20594W        W35725  11.397  17.071  11.670  0.1952 -0.0408  0.0804
20595W        W35726  13.381  17.574   0.463 -0.2474  0.1921  0.0362
20596W        W35727  17.378   2.686   3.435  0.0143 -0.1180  0.0019
20597W        W35728   5.688   4.864   4.273  0.2341  0.1267 -0.1596
20598W        W35729   9.367   9.907  12.276  0.3028  0.0016 -0.0202
20599W        W35730   1.161   4.594  13.747 -0.0327  0.4214 -0.1341
20600W        W35731   5.587  15.760   2.279  0.0426  0.1997 -0.0748
20601W        W35732  17.303   6.947   2.779 -0.0501  0.1093 -0.1892
20602W        W35733  14.788  10.373  15.660 -0.0843  0.2893 -0.1404
20603W        W35734   1.488   3.570   0.932 -0.1017  0.1761  0.1324
20604W        W35735   3.630   4.891  12.168 -0.2255  0.1151  0.4549
20605W        W35736  11.088  11.333   3.089  0.0724  0.2038 -0.1182
20606W        W35737   1.118  10.399   4.087  0.4069  0.0105  0.0386
20607W        W35738  14.269   4.308   4.956  0.3212  0.1709  0.1781
20608W        W35739   4.793  16.965   4.314 -0.1213  0.1929  0.3709
20609W        W35740  13.479  11.501  15.172 -0.3075  0.0621  0.0986
20610W        W35741  17.527   5.010  12.076  0.2237 -0.0708  0.1568
20611W        W35742   8.396  15.094   0.925 -0.0208 -0.1071  0.2688
20612W        W35743  10.720  17.202   2.767 -0.0282  0.0065  0.0880
20613W        W35744   9.015   7.801  15.118  0.3238  0.3600  0.1240
20614W        W35745   4.797   9.997   2.541 -0.0251  0.0123  0.0546
20615W        W35746   8.805   4.973  15.356  0.1357 -0.0187 -0.2430
20616W        W35747  10.818   9.987   1.530 -0.0515 -0.0379  0.0908
20617W        W35748  16.879  11.197   2.406  0.2458  0.0663 -0.0543
20618W        W35749  14.304  10.251   0.482 -0.2706 -0.4786  0.0542
20619W        W35750   3.551  10.020  15.619 -0.2344 -0.0778 -0.0548
20620W        W35751   7.182  14.675  14.950 -0.1543  0.2043 -0.1481
20621W        W35752   7.704   4.425  13.199 -0.1586  0.0112 -0.2190
20622W        W35753  15.918   8.903   4.043  0.1207  0.1146 -0.1284
20623W        W35754   1.196  13.358  15.470 -0.4002  0.1417 -0.1446
20624W        W35755   6.401  13.282   4.765  0.3459 -0.3134 -0.0765
20625W        W35756   4.482   8.656   2.172  0.0124  0.1898 -0.0652
20626W        W35757  10.110   6.683  12.748  0.0468 -0.0656 -0.0324
20627W        W35758   8.554   8.973   2.543  0.1070 -0.4116 -0.1637
20628W        W35759   2.510   3.161  11.302  0.0439  0.1164 -0.0714
20629W        W35760   2.725   9.059   4.956  0.2307 -0.1182 -0.0271
20630W        W35761  10.277  16.155  11.008 -0.0865  0.1406 -0.0245
20631W        W35762   9.880  15.568  12.059  0.1314 -0.4028  0.0878
20632W        W35763   3.269   6.750  10.924  0.2014 -0.0364  0.2277
20633W        W35764   2.784   2.032   4.024  0.1213  0.1517 -0.1705
20634W        W35765   3.712   0.994  15.933  0.1024  0.4637 -0.0481
20635W        W35766  13.786   9.752  12.630 -0.0896 -0.1518 -0.1061
20636W        W35767  15.094  12.183  15.653 -0.0440  0.1506  0.2394
20637W        W35768   0.969   5.339  14.243 -0.4098  0.0630 -0.1160
20638W        W35769  14.406   3.318  15.914 -0.2733  0.1461 -0.0758
20639W        W35770   8.515   9.046  15.266 -0.2051  0.3562  0.0081
20640W        W35771   8.205  11.374   9.892  0.3487  0.1783  0.1343
20641W        W35772   3.492  14.407  11.431  0.0031  0.2266 -0.1825
20642W        W35773  10.864   9.130   0.624  0.0247 -0.0453 -0.1688
20643W        W35774   1.359  13.981   3.886 -0.1239 -0.0943  0.0927
20644W        W35775   3.901  12.123   4.921 -0.4392  0.0758 -0.1208
20645W        W35776   3.489  15.027  12.675 -0.1565 -0.0911 -0.0823
20646W        W35777  15.558   0.282  13.945  0.4354  0.2433  0.0051
20647W        W35778   6.727  14.853   2.493  0.0726 -0.2111 -0.0093
20648W        W35779   3.560   4.698   2.612 -0.2814  0.1158 -0.0680
20649W        W35780   1.862   1.839  10.673  0.0868  0.0492  0.1221
20650W        W35781   3.822  17.146   3.205  0.1815  0.1616  0.0676
20651W        W35782   0.152  14.352   3.575 -0.2211 -0.2456 -0.0191
20652W        W35783  16.307   9.257   1.927  0.3952  0.0279  0.3553
20653W        W35784   0.977  15.939  10.239 -0.3666 -0.0471 -0.0013
20654W        W35785   4.509   6.562   0.560  0.1484  0.0680  0.2137
20655W        W35786  14.864  16.341   3.627  0.0589  0.1351  0.1975
20656W        W35787   7.842  12.033   2.525  0.0222 -0.3843 -0.0611
20657W        W35788  17.828  10.347   4.510 -0.1305 -0.0221 -0.2422
20658W        W35789  15.116   9.364  12.517  0.0983  0.5289 -0.0732
20659W        W35790   4.585  16.890   0.216 -0.2200 -0.0255  0.1618
20660W        W35791   0.588   7.984   0.914  0.0156 -0.0278 -0.3080
20661W        W35792   6.822  14.508   5.985  0.0427 -0.3082 -0.0097
20662W        W35793  16.617  12.868  15.786  0.0023  0.3008 -0.1898
20663W        W35794   7.512   4.127   6.066  0.2075  0.0327  0.2666
20664W        W35795   0.314   7.711   3.060  0.1227  0.0171  0.2075
20665W        W35796  13.556  12.042   4.222  0.0031  0.0096  0.1973
20666W        W35797   7.768  13.192  11.658  0.2034 -0.1063 -0.2057
20667W        W35798  15.605   0.591  14.375 -0.1860 -0.0278 -0.0061
20668W        W35799  15.242   3.338   4.819 -0.0564 -0.1502  0.0494
20669W        W35800  13.201  14.408   1.847 -0.2047  0.0959  0.2629
20670W        W35801  14.645   6.162  13.468  0.2013 -0.2174  0.1424
20671W        W35802   0.639   6.726  16.006 -0.1830  0.0013  0.1103
20672W        W35803   5.386  14.962  15.440 -0.2119  0.0491  0.1382
20673W        W35804  10.603   1.681   4.345 -0.0028  0.1453  0.0894
20674W        W35805   8.649   0.459  14.591  0.1508 -0.0424  0.0777
20675W        W35806   2.419   2.659  12.858 -0.0671  0.1267  0.3771
20676W        W35807  14.373  14.448   5.481  0.0540 -0.1019 -0.1951
20677W        W35808   9.136  16.795  10.179 -0.0231 -0.2447  0.0843
20678W        W35809   2.513   3.611   0.624  0.1066 -0.0945  0.1402
20679W        W35810   8.875   1.380   4.213 -0.0591  0.2000 -0.0132
20680W        W35811  10.762  16.848  14.448 -0.0055 -0.0479  0.0653
20681W        W35812  15.719   2.063  11.716  0.2783 -0.3162 -0.1558
20682W        W35813   4.388  11.268  13.713  0.1393  0.2421 -0.0829
20683W        W35814  10.547   6.560  15.126 -0.0500 -0.3090 -0.1299
20684W        W35815   9.015  13.271   2.048 -0.1281  0.0292 -0.0767
20685W        W35816  11.190   5.938   3.572  0.0077  0.0965  0.0973
20686W        W35817  10.526  11.252   4.004 -0.3008  0.2596  0.0356
20687W        W35818   2.971   1.412  15.834  0.0995 -0.1279  0.2889
20688W        W35819  14.828  14.007  14.700 -0.2221 -0.2268  0.4122
20689W        W35820   4.205  10.291  15.470  0.2542  0.2105  0.0928
20690W        W35821  15.179   6.371  14.101  0.0197  0.2674 -0.0142
20691W        W35822  17.592   3.886  13.252 -0.1956 -0.0495 -0.0407
20692W        W35823  16.524  16.680  15.851  0.2091 -0.2100 -0.2187
20693W        W35824   9.375   9.374   0.606  0.1905 -0.2160 -0.0541
20694W        W35825  16.647  13.664   3.708 -0.2340 -0.2511 -0.3280
20695W        W35826  11.634   8.330  12.928 -0.1253  0.0075 -0.0803
20696W        W35827  14.791   3.188   6.045 -0.0492 -0.1634 -0.1211
20697W        W35828   4.456   3.327  11.201  0.1398  0.1358 -0.0246
20698W        W35829   4.468  17.256   1.330  0.0236  0.0500  0.2473
20699W        W35830  13.593   5.167   4.751  0.1442  0.0471 -0.1183
20700W        W35831   2.681  17.030  14.344  0.0509 -0.0748  0.0788
20701W        W35832   7.621   3.529   0.233  0.3536 -0.1353  0.1757
20702W        W35833  11.669   4.075  12.846  0.2415 -0.2008  0.2792
20703W        W35834   3.049   1.782   0.917 -0.1421  0.1193 -0.1110
20704W        W35835   7.951   4.587   2.362 -0.1065  0.1783 -0.0340
20705W        W35836  10.154   0.779  15.723  0.1649 -0.1420 -0.0687
20706W        W35837  17.006  12.390   4.816  0.0059  0.3787  0.1807
20707W        W35838   7.115  13.482  15.413 -0.0130  0.0355  0.3364
20708W        W35839  18.271  12.533  12.664  0.2065  0.2538 -0.1069
20709W        W35840  11.981   7.660   4.854 -0.0302  0.1527 -0.1814
20710W        W35841  13.822  12.275   1.248  0.1434  0.3572  0.0422
20711W        W35842   2.756   1.638   4.311 -0.2785  0.3024  0.1838
20712W        W35843  15.550  10.511  14.690 -0.1474 -0.2908  0.1980
20713W        W35844  10.485  12.591  13.674 -0.0211  0.0367  0.4486
20714W        W35845  16.791   5.457   0.631 -0.4856 -0.0444 -0.0342
20715W        W35846   9.231  14.784  11.722  0.4297  0.0926  0.2159
20716W        W35847   2.599  13.900   5.309  0.2806 -0.2632  0.0221
20717W        W35848   3.672  14.934   3.175 -0.1362 -0.4434  0.1366
20718W        W35849  12.250  11.153   0.203 -0.0299  0.2830 -0.1077
20719W        W35850   7.371  11.208  11.187  0.2084  0.0710  0.1719
20720W        W35851   7.695  15.480   1.102 -0.1111  0.0670  0.0492
20721W        W35852  11.100   0.189   1.840 -0.0911 -0.1308  0.1214
20722W        W35853  14.277  15.688   4.567 -0.0369 -0.0527  0.1104
20723W        W35854   7.656  16.808  15.289  0.0236 -0.4077 -0.2579
20724W        W35855   5.120   0.785   0.507  0.3712  0.0268 -0.0789
20725W        W35856  13.251  10.947  13.172  0.0749  0.3106 -0.0345
20726W        W35857   6.820  11.307  11.257 -0.0213 -0.0114  0.3409
20727W        W35858   1.986  12.916   2.032 -0.0454 -0.1538  0.1884
20728W        W35859   2.693  15.102  12.493 -0.2511 -0.1487 -0.3294
20729W        W35860  15.585   6.974  15.389 -0.0641  0.3089  0.0136
20730W        W35861  18.321   2.225   3.634 -0.1368 -0.1571 -0.2828
20731W        W35862   1.652  14.804  11.518 -0.0556  0.1093  0.0458
20732W        W35863  17.728  16.877  13.320  0.1608  0.1221  0.1743
20733W        W35864  13.164   5.063  14.491 -0.2552 -0.3308  0.2685
20734W        W35865   9.911  11.895   5.205 -0.0653  0.0015 -0.0178
20735W        W35866  12.090  15.744   5.311 -0.1117  0.0333 -0.0358
20736W        W35867   7.869  17.943   3.675 -0.2619  0.0137  0.0386
20737W        W35868   8.108   6.411  13.121  0.2106  0.3201 -0.0986
20738W        W35869  15.368   1.383  15.517 -0.0246 -0.1263 -0.1025
20739W        W35870   0.298   6.855  15.633  0.2459  0.1473  0.0315
20740W        W35871  13.260  16.594  12.071 -0.1466  0.2382 -0.0919
20741W        W35872   9.762  13.626   1.836 -0.3087 -0.1480  0.1507
20742W        W35873   8.003   6.516  14.025  0.3488  0.1836  0.0252
20743W        W35874  12.839  18.028  11.537 -0.1434  0.3845  0.1073
20744W        W35875  16.757   8.359   2.497 -0.1619 -0.1533 -0.3461
20745W        W35876  14.445  13.137   5.943 -0.0851  0.1141 -0.0572
20746W        W35877   0.423  15.486  13.154 -0.1807  0.0424  0.1387
20747W        W35878   9.469   4.188   2.550  0.1819 -0.1589  0.2180
20748W        W35879  11.016   8.646   3.884  0.1163 -0.0153 -0.0239
20749W        W35880   1.264   5.001  12.027  0.1850  0.2741 -0.4157
20750W        W35881  13.639  11.633   2.543  0.1901  0.2813  0.1394
20751W        W35882   1.078   1.620   3.286  0.1057 -0.0847 -0.1046
20752W        W35883  11.858   3.666   3.301  0.1554 -0.2909  0.0891
20753W        W35884   1.711  14.883   4.028  0.3468  0.1766 -0.1327
20754W        W35885   4.307  15.735  15.338 -0.0808  0.0499 -0.0029
20755W        W35886   1.410  16.856   3.515 -0.2056  0.1282  0.1804
20756W        W35887   8.038   7.632  11.532 -0.1896 -0.1295  0.1025
20757W        W35888   7.649   2.847   1.364  0.2031 -0.1333 -0.0866
20758W        W35889  14.090  13.121  13.201  0.1209  0.4727  0.0540
20759W        W35890  17.976   5.058   0.012 -0.0662 -0.3978 -0.0492
20760W        W35891   6.387  12.939  10.428 -0.3094 -0.1960 -0.0719
20761W        W35892   2.722  15.864   2.348  0.1326  0.4031 -0.2072
20762W        W35893   9.474  10.241  12.630  0.0650  0.2677 -0.1669
20763W        W35894   4.242   6.017   3.573  0.2002  0.0047  0.0905
20764W        W35895  11.110  11.615   1.965 -0.0859 -0.3541  0.2759
20765W        W35896   1.648   6.384  14.075  0.1985  0.3306 -0.3249
20766W        W35897  13.985  17.394  12.408  0.0074 -0.0454  0.0879
20767W        W35898   2.785  13.182   3.521 -0.2382 -0.1332  0.0318
20768W        W35899   7.995   7.011  15.934 -0.1742  0.1799 -0.0547
20769W        W35900  14.708  13.318   1.035 -0.2216  0.0316 -0.0960
20770W        W35901  12.951   2.956  15.967 -0.1190  0.1245  0.1456
20771W        W35902   4.845  14.968  12.702  0.0921  0.1650  0.3695
20772W        W35903  16.856  10.763   1.859 -0.1491  0.0092  0.1578
20773W        W35904   8.458   5.402  13.934 -0.0410  0.1051 -0.1193
20774W        W35905   0.532  16.306   1.177  0.2579 -0.1186 -0.1468
20775W        W35906   7.918  13.253   3.072 -0.0452  0.1908 -0.1128
20776W        W35907  17.195   4.400   4.387 -0.0047 -0.0487  0.2070
20777W        W35908   1.471   1.516  16.020  0.1485  0.0528 -0.5182
20778W        W35909  16.264   7.213   4.488  0.1120 -0.1179  0.1326
20779W        W35910  17.422  12.774   4.759 -0.1922 -0.3647 -0.2557
20780W        W35911  10.794  14.996   4.724 -0.1357  0.0236 -0.1624
20781W        W35912   4.334   1.162   0.978  0.0673  0.1447 -0.0046
20782W        W35913   6.629  14.997  11.643 -0.1812 -0.0123  0.1862
20783W        W35914  12.139   1.720   1.725  0.2883 -0.0969  0.1244
20784W        W35915   6.366  10.273  11.405 -0.2356  0.0180 -0.1701
20785W        W35916  18.124   1.610  11.406 -0.0641 -0.0673 -0.2844
20786W        W35917  14.884   3.131  15.877  0.2170  0.1587  0.1456
20787W        W35918  12.062  15.605   0.820  0.2392  0.0149  0.1015
20788W        W35919   1.283  13.063   4.489  0.1526 -0.5231  0.1157
20789W        W35920  13.715   5.703   1.877  0.3394 -0.1054  0.0113
20790W        W35921  14.653   0.322   5.766 -0.2438  0.2290 -0.1225
20791W        W35922   9.905  15.844   4.137  0.2647  0.2630  0.1928
20792W        W35923  11.134   5.823  10.057 -0.1033  0.2219 -0.1189
20793W        W35924  12.246   6.016  13.601 -0.0802  0.3845 -0.1812
20794W        W35925  18.255   2.307  16.076  0.1334  0.4055  0.3917
20795W        W35926  11.050   4.139  15.105  0.0465 -0.2968  0.0326
20796W        W35927   8.542  17.632  12.793 -0.1503 -0.1768  0.2228
20797W        W35928  17.306   0.863   6.156 -0.2402 -0.1100 -0.1100
20798W        W35929  10.071   0.150  11.432 -0.0740 -0.1815  0.1853
20799W        W35930   9.703  12.582   2.984 -0.1409  0.0152  0.0982
20800W        W35931   0.993   6.408   5.038 -0.1417  0.1708  0.1543
20801W        W35932   3.014   9.328  13.427  0.2007  0.1380 -0.0478
20802W        W35933   7.973   8.252  10.076 -0.0073  0.0132  0.1073
20803W        W35934   1.227   1.728   4.015  0.2873  0.1766 -0.0918
20804W        W35935  11.668   1.600   3.439 -0.0541 -0.3385  0.0394
20805W        W35936  15.888   4.790   3.666 -0.0927  0.1433 -0.3642
20806W        W35937   1.665  17.180   3.809 -0.1853 -0.0903  0.1110
20807W        W35938   3.050   1.744   2.691 -0.1485 -0.3487 -0.0249
20808W        W35939  10.603   7.079   5.450 -0.0659  0.1174  0.3077
20809W        W35940   5.590  17.568   0.917  0.2016  0.1331 -0.3340
20810W        W35941   3.566  17.944   4.308 -0.0305  0.3316  0.1277
20811W        W35942   7.066   9.457   2.247 -0.3341  0.2656  0.1779
20812W        W35943  14.026   7.064   4.529 -0.0231  0.1655  0.2529
20813W        W35944  13.998  18.244  12.849 -0.1986  0.0189  0.1489
20814W        W35945   8.054  17.356   1.369  0.2447 -0.2430 -0.3305
20815W        W35946   3.322   1.596   5.263 -0.1219 -0.1941 -0.1147
20816W        W35947   7.063   4.263   3.811 -0.1652  0.0938  0.4087
20817W        W35948  17.611   6.434   2.902  0.0932  0.2173  0.0005
20818W        W35949   7.393   0.646  13.279  0.2482 -0.3437 -0.2747
20819W        W35950  13.954  17.029  13.363  0.1034  0.0724 -0.0376
20820W        W35951  15.299  13.956  14.512  0.1495 -0.0005 -0.0187
20821W        W35952   3.996   2.574   0.544 -0.1696 -0.5665  0.1761
20822W        W35953   3.753  10.456  15.502  0.1122 -0.2418 -0.0814
20823W        W35954   9.887   6.215  11.541  0.0469  0.0021 -0.0620
20824W        W35955   6.535   0.173   4.260 -0.0775 -0.1042 -0.3335
20825W        W35956  10.422   4.601   4.984 -0.0492 -0.0355  0.0408
20826W        W35957  10.357  10.123  12.023  0.0338 -0.1227  0.2028
20827W        W35958  15.368  10.609  13.268  0.0733 -0.1229  0.1608
20828W        W35959   2.562   1.868   5.528  0.1790 -0.0605  0.0359
20829W        W35960   7.559   2.966  12.884 -0.0126 -0.1924 -0.1492
20830W        W35961  13.773   5.648   1.295  0.1351 -0.0144 -0.0583
20831W        W35962  14.919   8.344  10.508 -0.1052  0.0861  0.1048
20832W        W35963   3.960  18.314  15.696  0.1220 -0.0181  0.1117
20833W        W35964   2.733   0.687  12.677 -0.0475 -0.0504  0.0100
20834W        W35965  13.665  14.778   1.395  0.2321 -0.3892  0.2011
20835W        W35966   4.844   2.370   1.064  0.0078 -0.1383 -0.3682
20836W        W35967   0.740  14.718   2.916 -0.0801  0.3872 -0.0182
20837W        W35968   8.472  10.109   3.288 -0.1028 -0.0123  0.2103
20838W        W35969  12.330   3.396   4.901 -0.0815  0.1039  0.0042
20839W        W35970  11.725  13.967   4.842 -0.0541  0.2075 -0.2313
20840W        W35971  17.635   4.245   2.535  0.2927  0.3569  0.0244
20841W        W35972   4.988  11.138  15.672  0.2204 -0.2643 -0.1434
20842W        W35973   3.883  13.731   2.430 -0.0880 -0.0266  0.4540
20843W        W35974  17.440   4.801  11.147 -0.2112  0.1453  0.1591
20844W        W35975   5.520   6.330   0.689 -0.1404  0.1608 -0.0031
20845W        W35976   3.438  13.576   1.209 -0.1752  0.2189 -0.0171
20846W        W35977   7.160   3.644  15.269  0.1022  0.1431  0.1467
20847W        W35978   1.927   6.310   4.679  0.1163 -0.2326  0.0849
20848W        W35979   9.452   3.194  12.177 -0.1117 -0.1216  0.5406
20849W        W35980   5.632   5.746   5.048  0.2755 -0.1727  0.0544
20850W        W35981  15.561  10.505  12.752  0.0813 -0.2537  0.1569
20851W        W35982  11.043   6.358   1.843  0.0972 -0.0573  0.1112
20852W        W35983  17.467  14.551  13.868 -0.0819 -0.1377 -0.2985
20853W        W35984   1.506   9.161   2.621 -0.2491 -0.1695  0.0249
20854W        W35985   0.074   8.722  11.734  0.1567  0.3500 -0.3580
20855W        W35986  18.225  15.835   5.560 -0.0956  0.1197 -0.0528
20856W        W35987   4.469  14.838  13.497 -0.1525 -0.0127 -0.0395
20857W        W35988   2.960  13.957  14.098  0.2472  0.1610  0.2402
20858W        W35989   9.392   1.348   3.225  0.3300  0.1790 -0.4332
20859W        W35990  10.375   6.811  12.296  0.2150 -0.3276  0.0261
20860W        W35991   8.137   2.996  12.448  0.0535 -0.0548  0.0135
20861W        W35992  15.964   9.767  12.530  0.2679  0.2933  0.4271
20862W        W35993   1.259  18.206   3.197 -0.1790  0.0949 -0.1746
20863W        W35994  14.440   6.404   3.986 -0.0846 -0.1604  0.1190
20864W        W35995   8.447   8.411   4.307  0.0885 -0.1405  0.0344
20865W        W35996  17.426   3.636  15.964 -0.2225 -0.1338  0.0027
20866W        W35997   5.303   4.574   2.306 -0.0126  0.0095  0.4814
20867W        W35998  12.732   3.804  13.330 -0.1395  0.0469  0.0046
20868W        W35999   8.766   6.658   0.673  0.1358  0.0603 -0.0313
20869W        W36000  16.181   9.502   0.348  0.0745  0.2604 -0.0177
20870W        W36001   6.558   8.826   0.844  0.0206 -0.1240  0.0967
20871W        W36002   3.880  17.118   4.158 -0.0960  0.0926  0.2671
20872W        W36003   4.035   7.980   2.538  0.0204 -0.3081 -0.1487
20873W        W36004   5.135   8.624   4.002 -0.0175  0.0459  0.0658
20874W        W36005   7.221   6.860  15.243 -0.0697 -0.2977  0.0615
20875W        W36006   5.661  16.773  11.409  0.5152 -0.0963 -0.3790
20876W        W36007   5.846   7.816  14.140  0.0143 -0.0813 -0.1551
20877W        W36008   7.960  10.115   0.930 -0.2484  0.0293  0.0264
20878W        W36009  10.039  14.558  16.004  0.1648  0.3760  0.2863
20879W        W36010   1.231   1.134  11.364 -0.3774 -0.2438 -0.0425
20880W        W36011   6.745   0.676   5.141  0.1665 -0.3042  0.1201
20881W        W36012  16.622   1.046   0.881 -0.0316 -0.1090 -0.1674
20882W        W36013  14.042   8.521  15.281 -0.1343 -0.4012 -0.4043
20883W        W36014  17.836   1.523   6.691  0.1329 -0.0352 -0.1339
20884W        W36015  10.906   6.333   0.602 -0.0000 -0.2928 -0.1953
20885W        W36016   7.315  15.075   3.610 -0.2243 -0.0246 -0.1032
20886W        W36017  13.821  16.516   4.737 -0.2422 -0.1535 -0.4649
20887W        W36018  17.673   4.096  13.757  0.1767  0.4383  0.0159
20888W        W36019   4.995  18.153  15.928  0.0478  0.2165  0.2539
20889W        W36020   3.527  11.592  12.158  0.1336 -0.1550 -0.0755
20890W        W36021   1.824   2.886  12.628  0.0846  0.3404  0.1305
20891W        W36022   0.559   6.470   1.333 -0.1948 -0.2124  0.2577
20892W        W36023  13.987   0.542  13.569  0.4274  0.2336  0.1919
20893W        W36024  12.232   3.099  14.726 -0.0017 -0.0987  0.1921
20894W        W36025  18.135  11.534  14.524  0.0328 -0.2278 -0.0665
20895W        W36026  15.301   0.323   2.799  0.0345  0.1067  0.0902
20896W        W36027  16.963   4.238   0.824  0.1304  0.3646  0.1794
20897W        W36028  17.556   9.913  14.050  0.0502 -0.1425 -0.1622
20898W        W36029   6.072   1.299   1.415  0.2680  0.2198  0.2022
20899W        W36030   5.123   1.993  15.042  0.2164  0.0961  0.0282
20900W        W36031   6.775   6.610   1.933  0.0173 -0.1407  0.2673
20901W        W36032   3.939   4.366   3.340 -0.1008 -0.1702 -0.0012
20902W        W36033   7.061   8.319  10.501  0.1842  0.2659 -0.1215
20903W        W36034  15.571   2.552  14.479  0.2015 -0.2507 -0.1943
20904W        W36035  17.646  13.199  13.080  0.1426  0.2678 -0.1621
20905W        W36036   0.232   3.599  12.145 -0.0256  0.1066  0.2273
20906W        W36037   0.466  17.413  15.366 -0.1121  0.1737  0.1424
20907W        W36038  15.941   5.229  15.264  0.0898  0.0569  0.1409
20908W        W36039   4.207   5.617   0.990 -0.2132  0.0380  0.2281
20909W        W36040  13.055   2.076   2.479  0.0106  0.0638 -0.1050
20910W        W36041   3.848   2.743  13.413  0.1770  0.1258 -0.0879
20911W        W36042  10.312  16.881   2.852  0.3082 -0.1994  0.0633
20912W        W36043   4.425  10.214   1.834  0.2571 -0.0046 -0.0637
20913W        W36044   8.742   2.471  12.999  0.0405  0.0997  0.3167
20914W        W36045  13.676   4.722   3.100  0.0215 -0.0256  0.3265
20915W        W36046   3.986   6.610  12.077  0.2208 -0.0190  0.2666
20916W        W36047   4.365   0.858  15.272 -0.1288  0.0453 -0.1832
20917W        W36048  11.772   9.438  15.663  0.1015  0.2495  0.0723
20918W        W36049  13.076   6.926   5.587  0.0924  0.0084  0.3334
20919W        W36050   3.752  14.901   3.786  0.1819 -0.5227 -0.3065
20920W        W36051   4.433  17.189   5.515  0.1499 -0.3210 -0.2673
20921W        W36052  12.640  13.442   4.963  0.0839 -0.0693 -0.2474
20922W        W36053  18.225  15.822   5.047 -0.3789 -0.1377  0.3545
20923W        W36054  13.266   8.916   3.443  0.1731  0.5833  0.0254
20924W        W36055  15.604  16.991  14.951 -0.3383  0.2454  0.3438
20925W        W36056  10.067   9.580  15.686  0.2242  0.1759  0.0505
20926W        W36057   7.922  17.693   0.949  0.0835  0.1421 -0.2899
20927W        W36058   0.814  15.716   1.172 -0.0290  0.4153  0.2368
20928W        W36059   6.684   4.751  11.763  0.1761 -0.3235 -0.0680
20929W        W36060  13.153  17.485  13.108 -0.3136  0.2312  0.0053
20930W        W36061   2.104   1.563   3.706 -0.1125 -0.0997  0.1644
20931W        W36062   5.967   1.188   4.682  0.2017 -0.3313  0.0621
20932W        W36063   3.624  12.518   4.941 -0.1695  0.0111  0.3134
20933W        W36064  12.730  11.278  10.509  0.2753  0.1006  0.0532
20934W        W36065   6.120   1.467  16.023 -0.3456 -0.0028  0.1839
20935W        W36066   8.289  18.233  11.660  0.1307  0.0060  0.1340
20936W        W36067  12.238   3.450   4.295 -0.0086  0.0084 -0.1513
20937W        W36068  18.256   6.847   5.651 -0.0228 -0.1092 -0.5995
20938W        W36069  18.224  14.497   2.228  0.1300 -0.1969 -0.0997
20939W        W36070  12.801   7.278   3.319 -0.2331  0.2208  0.4307
20940W        W36071  10.024   0.308  10.009  0.0826 -0.0244 -0.0649
20941W        W36072  10.341   3.602   0.307 -0.0327 -0.1390 -0.0617
20942W        W36073  14.420  16.668   9.950  0.1987  0.3169 -0.0798
20943W        W36074  14.914   2.783  14.351 -0.4556  0.2213  0.0552
20944W        W36075  14.872   1.903   5.340 -0.1973 -0.0731  0.0455
20945W        W36076   1.718   5.840  10.028 -0.0700  0.1919  0.1192
20946W        W36077  17.188   8.693   3.848  0.2418 -0.0447  0.0513
20947W        W36078   4.774   7.555  13.101 -0.2234 -0.0523  0.0862
20948W        W36079   3.772  15.310  11.825  0.1145  0.2851 -0.0153
20949W        W36080   5.309   7.577  12.399 -0.2171  0.0555  0.2996
20950W        W36081  16.410  15.802  13.852 -0.1649  0.0645 -0.1132
20951W        W36082  12.947  11.942   2.096  0.2870  0.0510 -0.1887
20952W        W36083   0.665  16.529  14.997 -0.0650 -0.0136  0.0341
20953W        W36084  12.262  12.211   3.659  0.2192 -0.2472  0.0732
20954W        W36085   0.891   7.529  10.999 -0.1837 -0.3429 -0.0808
20955W        W36086  10.696  15.501   1.621 -0.0081 -0.3250 -0.3540
20956W        W36087   3.403   6.777   4.962  0.2925 -0.3026 -0.0031
20957W        W36088  15.449  14.634   3.429 -0.0142 -0.1401  0.0178
20958W        W36089  16.602   9.978   3.187 -0.0400 -0.1709  0.0581
20959W        W36090   3.607  10.083   0.043 -0.3023 -0.1226  0.0553
20960W        W36091  15.109   8.830  12.955  0.0764 -0.0341  0.1248
20961W        W36092  12.779   6.061  13.712 -0.0904 -0.1361 -0.1452
20962W        W36093   6.723  10.429  13.055  0.1057 -0.1108 -0.0318
20963W        W36094   3.103   6.709  13.638  0.0878  0.1862  0.2459
20964W        W36095   0.092  10.563   1.760 -0.1755 -0.1218  0.1043
20965W        W36096  15.098   9.336   0.351  0.4169 -0.0390 -0.3035
20966W        W36097  16.718   7.394  11.534 -0.0946  0.2575 -0.1833
20967W        W36098  13.031   7.096   2.734 -0.0281 -0.0928 -0.2746
20968W        W36099   1.169  11.070  13.884  0.1375 -0.0113  0.0870
20969W        W36100   0.365  17.894   0.333 -0.5790 -0.3319 -0.1974
20970W        W36101  17.997  13.734   5.145  0.1950  0.1220 -0.0366
20971W        W36102   4.951   7.516   2.855  0.0583  0.3698  0.2731
20972W        W36103   5.875   3.335   4.159 -0.2767  0.2517  0.0158
20973W        W36104  15.731  18.069   0.968 -0.0307 -0.1122  0.1869
20974W        W36105  13.126   0.910  10.988  0.0656  0.0556 -0.3600
20975W        W36106   8.881   6.397  12.712  0.0026  0.2574 -0.1275
20976W        W36107  13.233  13.043  10.674 -0.1664 -0.0819  0.2049
20977W        W36108   5.096  15.585  11.196  0.5478 -0.0853 -0.0471
20978W        W36109  17.540  14.860  15.938  0.1553  0.0398  0.0760
20979W        W36110  17.527  15.358   1.139  0.2506  0.0200  0.0956
20980W        W36111   7.754  16.871   4.767 -0.0086  0.0637  0.2703
20981W        W36112   5.981   9.399  15.545  0.1283 -0.0866  0.1452
20982W        W36113   9.728   7.027   0.494 -0.3420  0.1628  0.1073
20983W        W36114   1.158  10.816   5.456  0.2300 -0.1207 -0.0412
20984W        W36115  10.887   8.060   4.789 -0.1112 -0.3282  0.4671
20985W        W36116  17.630   9.403   1.504  0.0437 -0.2918  0.2120
20986W        W36117  16.057  17.724   3.703 -0.1074 -0.0941 -0.3257
20987W        W36118  16.573  17.818  12.253  0.1843  0.2365  0.0543
20988W        W36119  14.255  11.827  12.020 -0.0035  0.2199  0.2346
20989W        W36120   1.127   3.916   0.874  0.0767  0.2541  0.0392
20990W        W36121  12.606   4.871  15.930  0.0167 -0.0677 -0.1408
20991W        W36122   5.432  14.672  11.367 -0.0610 -0.1538 -0.1388
20992W        W36123   8.857  12.108  11.204 -0.0279 -0.0897  0.1530
20993W        W36124   6.139  17.595   0.918  0.0350 -0.0387 -0.0484
20994W        W36125   0.375  18.322  13.729  0.0808  0.0686 -0.0254
20995W        W36126   2.697  11.347   2.796  0.0213  0.0606 -0.0155
20996W        W36127  15.212  14.403   2.376 -0.0903 -0.2669  0.1382
20997W        W36128   3.821   9.617  11.542 -0.0312  0.1932  0.0891
20998W        W36129   4.170   4.043  13.194 -0.0616  0.0197 -0.3863
20999W        W36130   0.444  10.107   1.481  0.2086 -0.1408 -0.1461
21000W        W36131  10.661  17.162   1.071  0.1016  0.0523 -0.1154
21001W        W36132  18.258   0.324   4.907 -0.2552  0.0956 -0.0245
21002W        W36133  11.433   4.908  15.104  0.0384  0.2436 -0.1481
21003W        W36134  16.851   4.993   1.794 -0.0650 -0.0173  0.0836
21004W        W36135   2.306  12.007  14.763 -0.0257 -0.0127  0.1897
21005W        W36136  10.943  17.609   1.894  0.0002 -0.1119 -0.1366
21006W        W36137   9.008   6.746  11.724  0.2354  0.0565 -0.1285
21007W        W36138  12.810  14.408   5.891 -0.1773  0.1015  0.0973
21008W        W36139   3.313   4.240  15.999  0.0505 -0.1939  0.0242
21009W        W36140  10.721  15.880   0.397 -0.0970  0.0603  0.0985
21010W        W36141   5.905   0.708   4.631  0.0418  0.1290  0.0853
21011W        W36142  18.082  11.011   3.838  0.2205 -0.0930  0.0438
21012W        W36143  15.849   2.982  15.774 -0.1201  0.1903  0.2491
21013W        W36144  16.575  10.675  12.133  0.1438 -0.1461  0.1542
21014W        W36145   6.747   0.045  12.473 -0.3425 -0.0448  0.0130
21015W        W36146  16.133  17.252  15.117 -0.1441 -0.0555  0.1995
21016W        W36147  18.293  10.102   3.319  0.0810 -0.0516 -0.1222
21017W        W36148  13.843   0.099   0.076 -0.0146  0.0980 -0.0903
21018W        W36149   7.743  18.046  11.629  0.1711  0.0960  0.0818
21019W        W36150  11.835  12.502  13.948  0.1308  0.1788  0.1596
21020W        W36151   3.139   3.014   5.861  0.0658 -0.0888 -0.3463
21021W        W36152  11.294   1.392   1.971 -0.0894  0.1183 -0.0426
21022W        W36153   8.457   0.853  14.343  0.1442  0.1583  0.0266
21023W        W36154   0.825  11.272  14.838  0.0088  0.3611  0.1630
21024W        W36155  16.350  14.035   5.607 -0.2246 -0.2759 -0.2879
21025W        W36156   5.856   1.802  12.448  0.0934  0.3234  0.2851
21026W        W36157   9.877   2.535  11.451 -0.1410  0.0845  0.1495
21027W        W36158  11.614   7.074  14.442  0.0831 -0.2955 -0.2337
21028W        W36159  16.151   0.154   0.445  0.1667  0.0733 -0.2118
21029W        W36160  12.764   5.889   4.366  0.0031  0.1895 -0.1764
21030W        W36161   4.295   0.051   4.449  0.4833 -0.2932  0.3024
21031W        W36162   6.100   1.513   5.052  0.2647  0.0676 -0.0869
21032W        W36163  13.131  16.584  12.613 -0.0387  0.2857 -0.1968
21033W        W36164   1.579   6.267  11.298 -0.2312 -0.0889  0.3323
21034W        W36165  16.791  13.960   0.352  0.0322 -0.1723  0.1599
21035W        W36166   9.461  17.789  12.571 -0.1564 -0.0866 -0.0593
21036W        W36167   6.004   2.843   0.198 -0.1417  0.0809 -0.1247
21037W        W36168   5.409   9.378   1.490 -0.2063  0.1465 -0.1655
21038W        W36169  18.116  15.900   4.522 -0.0836 -0.1316 -0.0014
21039W        W36170  18.036   4.561  14.467  0.2788  0.2943 -0.0226
21040W        W36171  16.784   4.774  12.815 -0.0031  0.1248  0.1948
21041W        W36172  11.405  14.561  13.263 -0.0797  0.2748 -0.2081
21042W        W36173  17.003   2.589   3.118 -0.2979  0.1095 -0.2657
21043W        W36174  17.548   6.185  15.008  0.3353 -0.0385 -0.0994
21044W        W36175  15.306  11.532  12.205  0.0741  0.0292  0.0365
21045W        W36176   8.847  10.553  15.877 -0.0013  0.2664 -0.0682
21046W        W36177   9.571  12.984   3.355  0.0406  0.0533  0.0307
21047W        W36178   0.938  16.418   6.330 -0.1437 -0.0206  0.3354
21048W        W36179  10.315   0.660  15.271 -0.0878 -0.2465  0.1171
21049W        W36180   4.777   7.854  13.907  0.0550  0.0574 -0.5120
21050W        W36181   4.144   1.702  15.166  0.2263 -0.2131  0.1015
21051W        W36182   0.271   7.482   3.954  0.0833  0.2300 -0.0927
21052W        W36183   3.260   2.482  13.935  0.0566  0.0441  0.0964
21053W        W36184   2.665  11.635   4.125 -0.0116 -0.4074  0.0938
21054W        W36185  12.048   7.643  15.914  0.0261  0.2522  0.0345
21055W        W36186  17.089   9.753   1.165  0.3548 -0.1810 -0.1271
21056W        W36187  17.604   3.971  14.912 -0.0542  0.0463 -0.0920
21057W        W36188  14.431  17.691  10.874 -0.0760 -0.1674  0.1392
21058W        W36189   4.841   4.064  15.684 -0.0399 -0.0360  0.0965
21059W        W36190   9.748   5.012   1.870  0.4344  0.0728 -0.1437
21060W        W36191   6.883  10.406  11.387 -0.1124 -0.0578 -0.2350
21061W        W36192  13.273   2.777   3.123 -0.1610 -0.0788  0.2002
21062W        W36193   3.218  11.983  11.689 -0.1801  0.1766  0.3792
21063W        W36194   4.674  16.980  12.886  0.3019  0.2750 -0.2139
21064W        W36195   5.330   6.601   5.441  0.3039  0.2748  0.2036
21065W        W36196  12.169   4.142  12.821  0.0641  0.1398  0.0263
21066W        W36197   0.941   7.040   4.096  0.1091  0.2214 -0.1231
21067W        W36198  15.173   1.582   4.865  0.0638  0.1911 -0.3269
21068W        W36199  15.663   3.316  15.357 -0.1889  0.2353 -0.0784
21069W        W36200  17.013  15.668   6.202 -0.1041  0.0758 -0.3085
21070W        W36201  16.398   0.235  13.233 -0.1534 -0.1263 -0.0299
21071W        W36202  15.404  12.747   9.663  0.0141  0.0087 -0.1543
21072W        W36203   5.437  14.499   3.972  0.1223  0.0791  0.0316
21073W        W36204   6.604  11.973   1.371  0.3049 -0.2365 -0.1214
21074W        W36205   1.410   2.893   1.175  0.3701  0.2242  0.0489
21075W        W36206  12.020  15.619  15.473  0.1452 -0.1521 -0.2206
21076W        W36207  17.104  14.568   3.785 -0.2712 -0.1191  0.0900
21077W        W36208  14.855  17.396  12.728 -0.1349  0.0426  0.1227
21078W        W36209  10.095   4.300   1.512  0.1839  0.3324  0.0717
21079W        W36210   4.426   7.331   3.632 -0.1749  0.2815 -0.2968
21080W        W36211  15.844   3.929   5.525  0.1668 -0.1163  0.0103
21081W        W36212   5.183  14.297  11.124 -0.0596 -0.0960 -0.1742
21082W        W36213   6.425  17.470  10.427  0.0140  0.2584  0.3149
21083W        W36214   9.744   1.807  14.016  0.2825  0.0155  0.1500
21084W        W36215  15.829  11.073  12.650 -0.0615  0.0261 -0.0154
21085W        W36216  12.576  11.034   4.217  0.1526  0.0530 -0.0487
21086W        W36217   1.881   7.454   4.809 -0.3502 -0.2590  0.0293
21087W        W36218   7.426  14.139   1.764  0.0730 -0.0696 -0.0016
21088W        W36219  10.253   2.226  14.741 -0.1432  0.1764  0.1223
21089W        W36220   0.534  17.216  13.513 -0.1262  0.1736  0.0067
21090W        W36221  17.185   0.722  14.034  0.2628 -0.2559 -0.0328
21091W        W36222  16.137  11.255   0.504  0.0206  0.0092 -0.0180
21092W        W36223   7.801   3.387   0.693  0.0325 -0.0302 -0.1205
21093W        W36224   5.328   2.458   1.862 -0.0264  0.0969 -0.0097
21094W        W36225  12.813   9.811  11.061 -0.3788 -0.1776 -0.2807
21095W        W36226  12.440  10.026  10.869 -0.1042  0.4023 -0.0026
21096W        W36227   8.857   1.918  13.314 -0.2357  0.3550  0.2337
21097W        W36228   5.443   7.117  11.631 -0.0779 -0.0941 -0.1191
21098W        W36229  15.691  10.713  12.283  0.4481 -0.1122  0.1867
21099W        W36230  15.843   4.122   4.805 -0.1417 -0.1964  0.2680
21100W        W36231  11.629  12.994  12.346  0.0082 -0.1337 -0.0596
21101W        W36232   4.944  14.709   1.073 -0.0959 -0.0583 -0.3305
21102W        W36233   5.486   8.969   0.787  0.1027  0.0480 -0.1128
21103W        W36234  12.488  10.416   4.590 -0.2350 -0.0341  0.0601
21104W        W36235  17.767   5.297  15.212  0.0967 -0.0757  0.0285
21105W        W36236   8.105   1.019   3.042 -0.0146  0.0268  0.0631
21106W        W36237  15.406  12.777   3.304  0.0093  0.3237 -0.0125
21107W        W36238  17.943  10.968   0.486  0.1373 -0.0467  0.3230
21108W        W36239   4.893  11.297  11.023  0.0546  0.4912 -0.2637
21109W        W36240  15.171  15.363  15.553 -0.2873 -0.3679 -0.1228
21110W        W36241   1.558  12.379   0.226  0.0521  0.3078 -0.3159
21111W        W36242  17.524  13.327  14.323 -0.2504 -0.0249 -0.0133
21112W        W36243   4.695   0.886   0.742 -0.0786 -0.2644 -0.0077
21113W        W36244   7.774  17.845   4.720  0.1264 -0.0617  0.1086
21114W        W36245  12.516  11.345  12.438  0.0018  0.2733 -0.2339
21115W        W36246  15.067  13.262   4.399 -0.0497  0.2162  0.2787
21116W        W36247   4.055   8.654  12.882  0.2377 -0.1932  0.0601
21117W        W36248   8.186  11.423  10.598 -0.0463 -0.1517 -0.0328
21118W        W36249   5.218  11.686   4.107 -0.0770 -0.2959  0.0679
21119W        W36250  11.367  10.466   3.521 -0.1874 -0.0479  0.1428
21120W        W36251  16.812   7.426  13.722 -0.1703  0.0840 -0.0904
21121W        W36252  10.739   2.372  12.069 -0.0007 -0.0165 -0.0305
21122W        W36253   0.961  14.550  12.858  0.1111 -0.3721  0.1622
21123W        W36254  15.437   7.857  13.122 -0.0702  0.0426 -0.1150
21124W        W36255  15.382   7.579  11.611 -0.1043  0.2567 -0.3331
21125W        W36256  17.509  10.485   1.060  0.3366  0.2129 -0.2917
21126W        W36257  15.665  10.103   1.444 -0.0474 -0.1466  0.0125
21127W        W36258   7.918   2.045   0.018 -0.1515 -0.3150  0.0169
21128W        W36259   6.220  10.427  10.374  0.1673 -0.1752  0.0683
21129W        W36260  13.561  14.279   2.680 -0.0028 -0.2347  0.1600
21130W        W36261  13.196   7.077   5.029  0.1060  0.2738  0.0330
21131W        W36262   7.923   0.738   3.467 -0.2100  0.0139 -0.2195
21132W        W36263   3.880   9.342  10.658 -0.1338  0.0622 -0.2099
21133W        W36264   3.497  14.522  12.654 -0.3158  0.0938  0.2168
21134W        W36265   4.512   1.665   2.096 -0.0414  0.1221  0.1633
21135W        W36266  17.366   8.879  11.775  0.1351  0.0937  0.2287
21136W        W36267   0.933  15.346  14.987 -0.0005  0.0617 -0.3920
21137W        W36268   5.903   0.946  13.983 -0.0308 -0.3254  0.1910
21138W        W36269  13.837   2.237  13.160  0.0275 -0.1114 -0.1364
21139W        W36270  17.978   8.035  12.435 -0.1813 -0.3542  0.0496
21140W        W36271   1.613   0.565   1.834  0.0748  0.0855 -0.0009
21141W        W36272  15.872   8.470  11.187  0.0206  0.3006  0.0787
21142W        W36273   9.581   9.416   0.121  0.1125 -0.1458  0.1612
21143W        W36274   7.188   7.629  12.010  0.0711  0.0005 -0.1376
21144W        W36275   4.709   7.086   3.027  0.0457  0.1706 -0.0665
21145W        W36276  12.764  10.934  11.558 -0.1207  0.0205 -0.1711
21146W        W36277  14.564  12.290  10.702 -0.0219  0.0287 -0.0256
21147W        W36278   7.073  16.893   1.698  0.0435  0.0665  0.1131
21148W        W36279   8.603  16.823   0.077 -0.1171  0.1499 -0.0991
21149W        W36280   1.909   3.898   4.202  0.0193 -0.0886  0.1966
21150W        W36281   8.827  11.224  13.290 -0.1832  0.3286  0.2144
21151W        W36282   5.131   7.744  10.697  0.2480 -0.0573 -0.0199
21152W        W36283  15.373  12.617  11.141 -0.0418  0.0673 -0.0140
21153W        W36284  16.122   8.665   1.513 -0.1340 -0.0609 -0.0654
21154W        W36285   2.220  13.361   1.926 -0.2283  0.0001  0.0683
21155W        W36286  17.082   9.405  14.645 -0.0304  0.1441 -0.0693
21156W        W36287  13.504   2.113  13.574 -0.1377  0.0650  0.3071
21157W        W36288  16.693   3.394   4.600  0.1030 -0.2849 -0.0577
21158W        W36289  10.338  11.675  11.239  0.3146 -0.2261 -0.1527
21159W        W36290   6.976  12.587  12.122 -0.0101 -0.0785  0.1713
21160W        W36291  15.724   4.239  16.094  0.0374  0.0153  0.1943
21161W        W36292   9.341  14.171   3.123  0.0544  0.2667 -0.0256
21162W        W36293   7.260  14.178   2.749 -0.3774 -0.0329 -0.1750
21163W        W36294  10.085  15.797  13.964  0.0840  0.0655 -0.1907
21164W        W36295  13.660   6.216   4.575  0.1670  0.2058  0.0082
21165W        W36296   4.436  14.312   3.967 -0.2990  0.1195 -0.0537
21166W        W36297  12.587   0.010  13.382 -0.4263  0.2751 -0.0350
21167W        W36298  11.085   7.978  11.782  0.4095  0.1517 -0.1444
21168W        W36299   5.335  17.770  12.838  0.0791 -0.2113 -0.2191
21169W        W36300   1.452  14.595  13.551 -0.0282 -0.2376  0.0490
21170W        W36301  14.263   4.837   2.967 -0.2398  0.0388 -0.2180
21171W        W36302  17.851   2.146  12.349  0.0239  0.1967 -0.0739
21172W        W36303   2.193  13.351   1.290 -0.0942 -0.1662 -0.0199
21173W        W36304   7.654   6.665  13.043 -0.0248 -0.0013  0.0334
21174W        W36305  17.637  12.668  15.102  0.0565 -0.3187 -0.1312
21175W        W36306  14.657  14.234   5.088  0.0723  0.0407 -0.2885
21176W        W36307   7.318  13.475  12.653 -0.0971  0.0854  0.3154
21177W        W36308   6.568   5.345   4.489  0.0520  0.2523 -0.0802
21178W        W36309   4.769  17.797   0.599  0.0784 -0.1905  0.2968
21179W        W36310   5.976  15.078  13.773 -0.1498 -0.1072 -0.0738
21180W        W36311  15.416   5.034  13.517 -0.4082 -0.1837 -0.1680
21181W        W36312  11.351   6.474   4.738 -0.0085  0.2526 -0.0451
21182W        W36313  12.932  11.091   2.707  0.0315 -0.0449 -0.2803
21183W        W36314   1.424   9.904  14.074  0.0134 -0.0303 -0.2629
21184W        W36315   9.552  15.760   3.198 -0.0308  0.0348  0.3566
21185W        W36316   2.546   2.688   5.264 -0.0900  0.0879  0.4466
21186W        W36317  12.858  10.194   2.522 -0.3503  0.0045 -0.1596
21187W        W36318   5.733   2.189  12.053  0.0546 -0.2918  0.3385
21188W        W36319  15.889  13.385  13.963  0.2435  0.1541 -0.1353
21189W        W36320  16.541  14.123  10.385  0.3800 -0.3016  0.1220
21190W        W36321  12.465  15.605   3.215  0.1643 -0.1619  0.0226
21191W        W36322   4.440   2.065   0.874 -0.2291  0.3046  0.2824
21192W        W36323  14.723   0.759  15.223 -0.0607  0.1598 -0.1187
21193W        W36324   7.900   0.034  14.335  0.1641 -0.3445  0.1499
21194W        W36325  18.314   2.053   1.758 -0.1255  0.0721 -0.2288
21195W        W36326  10.156   1.485   2.827  0.2261 -0.0266  0.1587
21196W        W36327   9.637   6.739  12.849  0.0756 -0.1375 -0.1625
21197W        W36328  12.557  17.913  16.048 -0.1221  0.0343  0.0540
21198W        W36329   5.218   4.271   1.060 -0.0616  0.3338  0.1001
21199W        W36330  10.244   6.640  11.509  0.0648 -0.1717  0.2851
21200W        W36331  16.588   5.074   0.257 -0.0017 -0.0705 -0.1992
21201W        W36332  17.548  14.847   3.769  0.0962 -0.0930 -0.1133
21202W        W36333   9.654   9.522   5.106  0.1237  0.1546 -0.0798
21203W        W36334  15.710  11.529   2.113 -0.1274  0.0013  0.1973
21204W        W36335  15.756   4.264   2.392 -0.1000  0.0797 -0.0347
21205W        W36336   5.650  11.168   5.720 -0.2635 -0.2882 -0.1174
21206W        W36337   9.346   8.103  14.393 -0.0025 -0.1611  0.0979
21207W        W36338  17.411  12.534   2.303 -0.1104  0.0913 -0.1543
21208W        W36339   7.167   9.884  15.029  0.0183  0.1772 -0.1094
21209W        W36340   6.490   6.521  12.128  0.2417  0.0769 -0.2745
21210W        W36341   5.389   1.591  14.226  0.1486  0.0390  0.0440
21211W        W36342   0.425   3.228   3.569 -0.6065 -0.1545  0.0833
21212W        W36343   9.055   2.223   0.664  0.2519  0.3481  0.2712
21213W        W36344   2.014   9.588   2.393 -0.2893  0.1185  0.0945
21214W        W36345   4.426  16.466  10.040 -0.0652  0.1576  0.0356
21215W        W36346  16.686   3.738   2.187  0.1775  0.1625  0.2442
21216W        W36347   8.734   7.014   3.386  0.2142  0.2122  0.0436
21217W        W36348   0.882   3.339   3.897  0.0763 -0.1047 -0.2436
21218W        W36349  17.643  15.500   2.890 -0.0426 -0.1496 -0.0457
21219W        W36350   7.126  17.807   3.212 -0.0263 -0.1142  0.2002
21220W        W36351  18.299   3.173  13.212  0.1586 -0.2771  0.1061
21221W        W36352   3.760   1.602   4.853 -0.0079 -0.0054  0.0533
21222W        W36353   6.995  16.119  11.011  0.0984  0.1690 -0.3425
21223W        W36354   9.322   0.699   2.988 -0.0934  0.0784  0.0215
21224W        W36355  10.400   9.444  10.648  0.3098 -0.0569  0.2705
21225W        W36356   0.693  11.689  12.850  0.0828 -0.1951  0.0183
21226W        W36357  15.333  17.087   1.217 -0.1851 -0.0195  0.0411
21227W        W36358   1.322  18.241  13.562  0.0314  0.2689  0.2865
21228W        W36359  11.952   8.565   5.675  0.2285 -0.1537 -0.1338
21229W        W36360   9.837  12.104   0.270  0.3075 -0.0611  0.1815
21230W        W36361  13.526  17.705   3.592 -0.0365  0.1609  0.0429
21231W        W36362  17.201   0.163   4.103 -0.1603 -0.1366  0.0933
21232W        W36363  15.356  15.219   0.329 -0.0412 -0.3000 -0.1472
21233W        W36364  12.742   2.720   2.928  0.2297 -0.0112  0.1644
21234W        W36365   3.943   4.559   1.932 -0.0884  0.0763 -0.0184
21235W        W36366   9.863  10.427  12.920 -0.0480  0.2231 -0.2588
21236W        W36367  10.745   6.473  10.450  0.1339 -0.1179 -0.0412
21237W        W36368  11.486  14.538   3.588  0.4714 -0.0233 -0.2998
21238W        W36369   9.885   9.098  15.057 -0.1613  0.0113  0.0740
21239W        W36370   4.013  14.782   1.638 -0.1893  0.0339  0.0013
21240W        W36371  12.579   7.073   1.447  0.0964 -0.1315  0.2542
21241W        W36372   0.940  16.465  12.791 -0.0954 -0.1578 -0.0114
21242W        W36373  12.532   2.624   1.326  0.4576  0.1722  0.3104
21243W        W36374  12.940   9.365   1.675 -0.0613 -0.0155  0.1047
21244W        W36375   8.301  13.172   0.397 -0.3202 -0.2090  0.0793
21245W        W36376   1.722   8.905  15.686 -0.0200  0.1911  0.1581
21246W        W36377  11.730   6.768   4.748 -0.1576  0.0989  0.1054
21247W        W36378  18.228  17.389   1.727  0.1110  0.0868  0.0173
21248W        W36379  12.732   0.880  15.973 -0.2863  0.0531  0.0043
21249W        W36380  14.763  16.904   1.197 -0.0488 -0.3257 -0.0797
21250W        W36381  18.172   9.290  15.601 -0.0696  0.0248  0.1561
21251W        W36382  15.217   0.429  11.658  0.3240  0.0053 -0.2685
21252W        W36383  12.530  14.372  11.332 -0.0151  0.3669  0.2089
21253W        W36384  16.325   9.801   5.587  0.3662  0.1074  0.1826
21254W        W36385   7.367   8.508   0.821  0.0804 -0.3188  0.2825
21255W        W36386  10.125  12.918  11.308 -0.4533  0.1528 -0.0601
21256W        W36387   8.069   1.857   6.508 -0.1057  0.1278  0.1137
21257W        W36388   7.800   4.214  14.153  0.1854 -0.0498 -0.2809
21258W        W36389  17.652   2.526   3.000 -0.0192 -0.2299  0.0551
21259W        W36390  11.257   6.260  12.183  0.0754  0.2527  0.0621
21260W        W36391  14.577  12.887   2.054 -0.2166 -0.0274 -0.1289
21261W        W36392   2.161  12.519  13.703  0.2686  0.0532 -0.1332
21262W        W36393   7.961  12.386   5.360  0.3296  0.1008  0.2369
21263W        W36394  13.719  15.959  15.786 -0.1339 -0.0180 -0.2376
21264W        W36395   2.079  14.404  14.260 -0.0999 -0.0478 -0.2413
21265W        W36396   3.622   4.175  13.232 -0.0408 -0.0717 -0.0610
21266W        W36397   5.224  13.895   1.942 -0.1775  0.0481 -0.4153
21267W        W36398  15.572   5.188  12.248 -0.0135 -0.2294 -0.1605
21268W        W36399   0.974   5.565   6.000  0.3945  0.1907  0.0370
21269W        W36400  14.495  16.282  14.393 -0.1381 -0.1246  0.0203
21270W        W36401   9.013  15.260  14.193  0.0196 -0.2518 -0.0406
21271W        W36402   1.313  14.145  14.710 -0.0749  0.2307  0.2821
21272W        W36403  15.789   5.485  11.900  0.2894  0.0673  0.3262
21273W        W36404   2.339  12.525  13.233 -0.2318 -0.2061  0.0393
21274W        W36405   7.984   5.360   4.002  0.4793 -0.0834 -0.3360
21275W        W36406  17.752   3.929   0.960  0.0972 -0.1078  0.0656
21276W        W36407   5.332   8.322   3.039  0.0250  0.1247  0.1410
21277W        W36408  13.342  17.299   5.246  0.4340  0.0532  0.1467
21278W        W36409  17.154   6.487   4.365  0.1590  0.1667 -0.1151
21279W        W36410  12.047   8.474   4.287  0.0436  0.1624 -0.0583
21280W        W36411   2.498   4.347  12.429 -0.0995 -0.2739  0.0643
21281W        W36412   3.029   5.545   1.541  0.1014 -0.0080  0.1322
21282W        W36413  17.260   1.158  11.519 -0.2807  0.1364  0.0110
21283W        W36414  17.292   7.421  13.853 -0.0707  0.1541 -0.6088
21284W        W36415   3.830  10.183  14.495  0.2275  0.1268  0.1499
21285W        W36416  15.118   7.012  12.300  0.1511 -0.4059  0.0312
21286W        W36417  17.001  16.854   5.411 -0.0962 -0.1637  0.0133
21287W        W36418  13.874   4.938   1.097  0.2211 -0.1490  0.0209
21288W        W36419   3.646  13.574   0.558  0.2670 -0.0282  0.0991
21289W        W36420   8.020  14.823   1.190 -0.0696 -0.1692 -0.0801
21290W        W36421  10.323   1.157  11.941 -0.2147  0.1043  0.0205
21291W        W36422   7.780   2.313  15.358  0.0607  0.2188 -0.0192
21292W        W36423   1.362  11.174  14.698 -0.2206  0.0641  0.3191
21293W        W36424   4.821  11.288  14.615  0.1149 -0.1761  0.3724
21294W        W36425   6.408   6.929   5.233 -0.0781  0.1001 -0.1990
21295W        W36426   4.932  11.495  13.812 -0.0254 -0.0462 -0.0442
21296W        W36427  15.345   9.450   3.659  0.0053  0.0635  0.2859
21297W        W36428  17.793   2.188   1.769  0.4132 -0.2283  0.1454
21298W        W36429   7.162   7.736  11.117  0.1668  0.3203 -0.0625
21299W        W36430  15.843   3.444  14.001  0.3911 -0.5202 -0.0037
21300W        W36431   0.023  18.031   1.048 -0.0819  0.2900  0.1478
21301W        W36432  13.381  14.617  11.447 -0.1493 -0.1242 -0.0716
21302W        W36433   5.434  11.106  12.633  0.1993  0.0294  0.0086
21303W        W36434   2.677   7.455   2.975 -0.2272  0.0132 -0.0999
21304W        W36435  15.179  14.748  13.022 -0.1111  0.2056  0.1928
21305W        W36436  12.107  13.915   2.532 -0.1603 -0.0079 -0.1563
21306W        W36437   6.273   4.176  11.512  0.0829  0.2265 -0.2339
21307W        W36438   7.686   7.984  15.772  0.1342  0.1468  0.0242
21308W        W36439   6.907  15.680  14.450  0.2454  0.0629  0.1433
21309W        W36440  10.111   4.794   4.570  0.1617 -0.2332 -0.1029
21310W        W36441  12.057   6.991   3.602 -0.0483  0.2132 -0.1358
21311W        W36442   8.943   4.875   5.343  0.0789 -0.1247  0.3110
21312W        W36443   3.761   2.613  13.857  0.0004  0.0160  0.0502
21313W        W36444  15.789   1.041   2.113 -0.1496  0.3645 -0.0461
21314W        W36445  14.749   7.679   1.243 -0.2720 -0.2185 -0.1276
21315W        W36446   4.378   2.414   5.776  0.1473 -0.1356  0.0213
21316W        W36447  13.260   0.649  14.459 -0.0529  0.0402 -0.0422
21317W        W36448   3.228   1.660  12.734  0.0351 -0.0664 -0.2104
21318W        W36449  11.385  13.014  15.335 -0.2626  0.0771 -0.1877
21319W        W36450  17.586   3.165   1.719  0.0576  0.0775  0.0262
21320W        W36451   0.781  13.997  15.755  0.0746  0.1474  0.2951
21321W        W36452  16.679   3.248   2.425 -0.3603  0.1655 -0.0905
21322W        W36453  13.578   1.299  13.753  0.0008 -0.3374  0.1561
21323W        W36454   2.846  10.096  13.005  0.1086 -0.0371  0.0938
21324W        W36455   6.107   2.443  12.565 -0.1010  0.1413  0.0076
21325W        W36456   5.926   4.445  15.989 -0.2581 -0.0018  0.3707
21326W        W36457   3.113  10.387   5.600  0.2937  0.1662  0.1188
21327W        W36458  10.044   4.328  15.218  0.3199 -0.0558  0.1595
21328W        W36459   5.217  12.682  13.352  0.0406 -0.0189  0.1005
21329W        W36460  14.589   9.191  10.667 -0.1972 -0.2536 -0.0072
21330W        W36461   4.223   2.813  12.196  0.1152  0.1531 -0.4991
21331W        W36462   7.399   6.812   0.689 -0.0575 -0.2297  0.1805
21332W        W36463  13.567  11.367   3.150 -0.1169 -0.2707 -0.1469
21333W        W36464   8.096  15.318   1.336  0.0390  0.3411 -0.1010
21334W        W36465   4.794  14.744  13.125  0.1662  0.0735 -0.1598
21335W        W36466  14.186  10.716  14.763 -0.1863  0.0911  0.1324
21336W        W36467  15.662  10.726  10.865 -0.2441  0.1930  0.0072
21337W        W36468  13.120  15.876   1.930 -0.2722 -0.2654 -0.0560
21338W        W36469   1.785   1.371   0.746  0.0512  0.0635  0.0847
21339W        W36470  17.502   4.785   2.362 -0.0312  0.1493  0.0049
21340W        W36471  12.291  16.267   2.918  0.2046 -0.2315  0.0377
21341W        W36472   9.337  13.869  13.829 -0.0261  0.0162 -0.0111
21342W        W36473   3.829  11.884   2.859 -0.1553  0.2007  0.0533
21343W        W36474   2.548  15.402   3.609  0.2580 -0.1803 -0.2167
21344W        W36475  17.357   2.091  12.069 -0.0966 -0.0511  0.0203
21345W        W36476  10.591   6.978   2.179  0.1366 -0.0039 -0.1565
21346W        W36477   9.253   5.089  15.655  0.1036  0.2707 -0.3470
21347W        W36478   6.388   0.346  10.939  0.0132 -0.1137  0.2623
21348W        W36479  13.254   1.364   5.432  0.1415  0.1067  0.2301
21349W        W36480  10.743   1.390   0.836  0.4084  0.0981  0.0738
21350W        W36481   9.366   4.982  12.994  0.2812  0.2747 -0.2181
21351W        W36482  11.410   8.921   4.784 -0.0357 -0.1795 -0.1611
21352W        W36483   1.914   4.501   2.252 -0.1476  0.0762 -0.0697
21353W        W36484  14.492   4.252  10.584  0.0874 -0.0455 -0.0114
21354W        W36485   8.925   1.912  10.137  0.2477 -0.2751 -0.1932
21355W        W36486   6.629  16.258   5.557  0.2641 -0.1106  0.3628
21356W        W36487   4.975   8.715   9.984 -0.1098 -0.2121  0.2175
21357W        W36488  16.635  10.784  11.402 -0.0072  0.1496 -0.2885
21358W        W36489   3.020  11.988  11.136  0.1827  0.0460  0.1063
21359W        W36490   9.920   9.341  12.173  0.1346 -0.0104  0.0210
21360W        W36491  15.599  12.678  16.044  0.0301 -0.1256  0.1304
21361W        W36492   6.973  11.870   2.655  0.3907  0.2102  0.3982
21362W        W36493   7.563  17.545   1.379  0.0818 -0.0333 -0.0062
21363W        W36494   1.717  13.575  13.226 -0.0152  0.2682  0.0608
21364W        W36495  12.513  13.903  12.774 -0.0107  0.2207  0.3036
21365W        W36496  12.262   1.765   4.398 -0.1246  0.1828 -0.0904
21366W        W36497   6.770  15.874   4.684 -0.0593 -0.2117  0.2962
21367W        W36498  14.414  14.635   4.900 -0.0358  0.0715  0.0473
21368W        W36499  13.117  12.991   4.252  0.1585  0.1189  0.0547
21369W        W36500  15.655  12.132   0.451  0.0701 -0.4593 -0.0497
21370W        W36501   7.160  10.412   2.143  0.3164  0.1773 -0.3328
21371W        W36502  13.374   7.523  14.882 -0.2033 -0.1247 -0.0666
21372W        W36503   6.717  17.728  10.966 -0.4080 -0.1837 -0.2416
21373W        W36504   5.317  14.624   2.947  0.0759 -0.0131  0.1017
21374W        W36505  16.757   6.351  13.633  0.1519  0.0526 -0.0348
21375W        W36506   0.127   1.864  12.517 -0.0905  0.1734  0.1504
21376W        W36507   8.482  10.385  12.679 -0.1684 -0.0805 -0.0686
21377W        W36508  15.366  16.631  15.192 -0.0085 -0.2419 -0.2247
21378W        W36509  10.136  17.242  15.862  0.3442  0.0926  0.0628
21379W        W36510   2.242   7.973  13.166  0.1658  0.1213  0.2738
21380W        W36511   7.052   0.503   2.073  0.2951  0.1905  0.0429
21381W        W36512  17.880  13.857  10.944  0.0150  0.0547 -0.2430
21382W        W36513  11.159   5.995   1.431  0.0033  0.0268 -0.0364
21383W        W36514  17.848  15.576   4.813  0.2867  0.1771 -0.0957
21384W        W36515   0.082   5.865  13.455  0.0130 -0.0452  0.0411
21385W        W36516  13.776  13.714   5.903  0.1777  0.1087  0.0758
21386W        W36517   6.995   4.892  12.151  0.1616  0.2825  0.0909
21387W        W36518   1.969   2.777  15.064  0.0332 -0.2136  0.0368
21388W        W36519  17.852   1.432   6.059  0.2279  0.1825 -0.1149
21389W        W36520  13.509  18.223   3.626 -0.1366  0.0946  0.0456
21390W        W36521   3.915  12.462   1.797 -0.0083  0.0418  0.0068
21391W        W36522   8.220   3.842  14.191 -0.1133 -0.0917  0.0937
21392W        W36523  13.205   3.164   1.286 -0.1640 -0.0674 -0.4108
21393W        W36524   7.379   4.726  13.396  0.4720  0.0685 -0.0498
21394W        W36525   4.255  14.995  11.675 -0.0500  0.2733 -0.0242
21395W        W36526  16.174  13.709   3.351  0.0357  0.2023  0.0378
21396W        W36527   8.076   1.604   2.331  0.0446 -0.1602 -0.0360
21397W        W36528   2.019  10.397  11.913 -0.1922  0.1098  0.0072
21398W        W36529   1.230   1.784  13.160  0.0090 -0.0450 -0.1091
21399W        W36530   1.721   6.790  12.025 -0.1598 -0.1062 -0.0269
21400W        W36531   5.522   2.503  14.358 -0.4255 -0.0739 -0.0617
21401W        W36532   6.618   3.136   1.471  0.0465  0.4564  0.1272
21402W        W36533   4.906   8.921   2.437 -0.2031 -0.0684 -0.0687
21403W        W36534   8.216  12.720  11.251  0.1676 -0.0673  0.1157
21404W        W36535  15.378   7.779   3.421 -0.0023 -0.0568  0.0084
21405W        W36536   9.160   0.635  15.300 -0.1781 -0.1370 -0.1037
21406W        W36537   5.393  15.830  14.881  0.2417 -0.0490 -0.1030
21407W        W36538   4.684   3.571   6.686 -0.0769 -0.1549  0.2595
21408W        W36539  11.040   5.535   1.556  0.2631  0.1578 -0.2214
21409W        W36540  13.700  13.071  11.523  0.0241 -0.0533  0.0637
21410W        W36541   1.312   7.875  14.068  0.1671  0.0317  0.2981
21411W        W36542   9.193  14.606   1.439 -0.2191  0.1340  0.0472
21412W        W36543   8.801   4.717   4.310  0.1534  0.0666 -0.1162
21413W        W36544   1.788  17.543   4.113 -0.0239 -0.0335  0.3650
21414W        W36545  12.966  14.582  15.118  0.2949 -0.1725 -0.2221
21415W        W36546  10.347   7.169   1.326  0.0864  0.0187 -0.0193
21416W        W36547   7.497   8.556  13.531 -0.1799 -0.0598 -0.2153
21417W        W36548   4.416   4.674  14.044 -0.0040 -0.0292  0.1195
21418W        W36549   1.890  14.413  15.906  0.4966 -0.0423  0.1105
21419W        W36550  10.710   2.033  14.993 -0.2971  0.0598 -0.0487
21420W        W36551  12.197  15.032  14.577  0.3299 -0.1857  0.0436
21421W        W36552  16.372   7.908   3.542 -0.0837 -0.2059  0.0936
21422W        W36553   5.842   2.209   4.921  0.2822 -0.1871  0.1326
21423W        W36554   3.605   7.547  14.186 -0.1008  0.1377 -0.1493
21424W        W36555   2.836   9.198  11.483 -0.1273 -0.1955  0.1945
21425W        W36556  15.236   7.204   2.521  0.1344 -0.1178  0.1398
21426W        W36557   5.877  15.588  14.957 -0.0980  0.3749  0.4621
21427W        W36558   7.295  17.198   2.399 -0.0118 -0.1072  0.1871
21428W        W36559   8.633   0.182   4.575  0.1714 -0.1074  0.0131
21429W        W36560  14.318  15.998  10.530  0.2352 -0.1145 -0.0026
21430W        W36561  17.225  17.756   2.429 -0.0304  0.0140 -0.0269
21431W        W36562   7.922  16.594   4.232  0.0903 -0.3083  0.1258
21432W        W36563   5.008   3.807   3.931  0.1553  0.4157 -0.0667
21433W        W36564   0.279   4.658  14.105 -0.0792 -0.2418 -0.1862
21434W        W36565  12.047   1.642  13.102 -0.1598  0.0432 -0.1230
21435W        W36566   0.565   3.965   2.923 -0.2406  0.1285  0.5300
21436W        W36567  13.014   4.781   3.823  0.1643 -0.1582  0.2420
21437W        W36568  17.855  15.493   3.769  0.0258  0.2301 -0.2536
21438W        W36569   7.090  12.642   0.751 -0.1987 -0.0099 -0.1435
21439W        W36570   1.717  13.638   4.658  0.4704  0.0650  0.1023
21440W        W36571   1.223   2.229  15.687  0.2207  0.3310  0.4347
21441W        W36572   6.126  15.470   1.106  0.1634  0.1827  0.0868
21442W        W36573  13.092  14.747   4.753 -0.1110 -0.2603 -0.0033
21443W        W36574   7.593   7.066   4.685 -0.0613 -0.0400 -0.4488
21444W        W36575   8.464   1.987  12.901 -0.4438  0.3076 -0.1848
21445W        W36576   5.910   2.850  11.157 -0.1788  0.0591 -0.0035
21446W        W36577  14.290   0.221  11.714  0.1029 -0.0546 -0.1834
21447W        W36578  15.269  13.604   3.066 -0.3599  0.0295 -0.0030
21448W        W36579  16.555   1.415   3.353 -0.0338 -0.3085 -0.1149
21449W        W36580   4.475  13.055   2.947  0.1238  0.4860  0.0398
21450W        W36581  16.698  14.585  13.157  0.0489 -0.2758 -0.3257
21451W        W36582  12.485   5.600  13.778 -0.0197  0.3374 -0.1865
21452W        W36583  17.030  15.205  12.635  0.1435  0.3300  0.2163
21453W        W36584  10.727   9.017   3.591 -0.0147 -0.0993 -0.2370
21454W        W36585   6.403  16.225   0.136  0.3475 -0.0406 -0.1633
21455W        W36586  13.300  14.746  14.552 -0.0055  0.1058 -0.0743
21456W        W36587  17.942   3.188  11.306 -0.0154  0.0298  0.1623
21457W        W36588  17.935  10.565   3.957  0.0084  0.2392  0.1122
21458W        W36589  12.930  13.912  15.877  0.1170 -0.1024  0.3539
21459W        W36590   4.560   7.923   0.789 -0.1050  0.1714 -0.2200
21460W        W36591  15.752   3.870  14.744  0.0459 -0.0524 -0.2892
21461W        W36592   5.456  17.250  13.699  0.0297 -0.0157 -0.0719
21462W        W36593   9.707  18.213  15.811  0.2538 -0.2188  0.0072
21463W        W36594  17.531  12.325  11.199  0.0692 -0.1342 -0.3018
21464W        W36595   8.838   9.865   2.433  0.1736 -0.4000 -0.1921
21465W        W36596  13.518   0.765  13.694  0.0464 -0.1613 -0.1173
21466W        W36597   0.783  10.824   2.548  0.2093  0.0040  0.0756
21467W        W36598  10.803  13.974   0.932  0.0778 -0.0670  0.1262
21468W        W36599   0.317  12.135   1.838 -0.2706 -0.0077 -0.1033
21469W        W36600  15.495  15.968   2.291  0.1554  0.1618  0.2760
21470W        W36601   3.259  12.922  13.712  0.1814  0.0392  0.0541
21471W        W36602   8.231  14.206   2.854  0.1864  0.2654  0.0992
21472W        W36603  17.989   4.131   2.148 -0.2966 -0.0912 -0.3623
21473W        W36604   3.815  17.321   2.553  0.2095 -0.2026  0.2016
21474W        W36605  18.151   5.413   5.023  0.0327  0.2786 -0.2747
21475W        W36606   8.982  18.133   4.809  0.3160 -0.2931 -0.2436
21476W        W36607  14.550   0.507   2.412  0.2858  0.0654  0.0069
21477W        W36608   6.969   7.717  13.847  0.0318 -0.0249 -0.1436
21478W        W36609   2.981   5.699  14.761 -0.2194  0.0458  0.1275
21479W        W36610   4.246   8.716  12.374  0.1468  0.1850  0.1535
21480W        W36611   9.751  11.291   1.783  0.0383  0.0124 -0.1677
21481W        W36612  11.214  10.907  13.102 -0.1657 -0.0538 -0.2302
21482W        W36613   8.200   2.303   5.084 -0.0498 -0.1494  0.3326
21483W        W36614   2.974   5.863  14.268 -0.1112  0.0270 -0.3242
21484W        W36615  12.944   1.045   5.250  0.3198  0.0588  0.4010
21485W        W36616  13.698   9.643   1.620 -0.2817  0.2665  0.0901
21486W        W36617  16.168   3.279   4.558  0.1003  0.0311 -0.3042
21487W        W36618   9.982  11.062   1.071 -0.1019 -0.1154 -0.0438
21488W        W36619   1.964  16.356   5.229 -0.1589  0.2623  0.3114
21489W        W36620   4.391  13.899   1.815  0.0143  0.2328  0.0915
21490W        W36621   5.481  12.558   0.647 -0.0896  0.0210 -0.0642
21491W        W36622   8.439   2.675  11.285  0.1090 -0.0002  0.0212
21492W        W36623  10.040   3.246   1.035 -0.0141  0.3108 -0.0921
21493W        W36624   4.382  14.092  15.094  0.1692 -0.1400  0.0891
21494W        W36625   3.197  17.640   1.270  0.2395 -0.2487 -0.1155
21495W        W36626   9.140  15.956   4.890 -0.1253 -0.0534 -0.0854
21496W        W36627  12.508   5.164  14.916 -0.1141 -0.0925 -0.1434
21497W        W36628   4.799   8.415   5.851 -0.0619  0.4074  0.3033
21498W        W36629   7.058   8.514  12.444 -0.0111 -0.0848  0.0629
21499W        W36630  17.702   9.886  12.644 -0.2804 -0.2131 -0.1510
21500W        W36631   1.975   6.453   2.554  0.1045  0.0468  0.4126
21501W        W36632  12.485   4.399  11.153 -0.0810 -0.1659  0.0907
21502W        W36633   3.572  16.907  13.796  0.2478  0.2328 -0.2706
21503W        W36634   2.293   6.669  14.599 -0.3798  0.0458  0.2472
21504W        W36635  18.091  17.964   5.395 -0.1494  0.1750 -0.2697
21505W        W36636   9.599   1.460   2.632  0.0931 -0.0829  0.0459
21506W        W36637  10.363  12.715  14.210 -0.1374 -0.1457 -0.1477
21507W        W36638  17.135  12.094  14.103 -0.0055  0.0339  0.0182
21508W        W36639   8.042  16.386   3.689 -0.1642 -0.0622  0.2360
21509W        W36640   6.004  17.363  10.125  0.0528 -0.1317 -0.2631
21510W        W36641   2.621   3.611  13.983  0.0198 -0.3595 -0.1092
21511W        W36642  14.860   0.838   6.124 -0.2455  0.2274 -0.2680
21512W        W36643  14.064  10.579   3.168 -0.2426 -0.0744 -0.1662
21513W        W36644  13.433   0.170  15.617 -0.2912  0.0190  0.1428
21514W        W36645   0.063  11.143  15.800 -0.0987 -0.1137  0.0077
21515W        W36646   4.039  17.948  14.380 -0.4342 -0.0325  0.1351
21516W        W36647   7.597   3.835   3.843  0.1808 -0.2176  0.0355
21517W        W36648   4.464  17.101   2.449 -0.3335  0.0795  0.0885
21518W        W36649   5.112   4.188   0.531 -0.0100  0.1703 -0.0579
21519W        W36650  14.294   9.317  11.685 -0.0897 -0.3336  0.1165
21520W        W36651  10.198   3.311   5.332  0.1028 -0.2337  0.0628
21521W        W36652  13.208  12.401   4.089  0.2575 -0.0652  0.2304
21522W        W36653   4.243   8.695   1.178 -0.0162 -0.1808  0.2668
21523W        W36654   0.152   9.092  12.029  0.3649 -0.0795  0.0699
21524W        W36655  15.576   0.814  12.640 -0.0419 -0.0675  0.1062
21525W        W36656   0.563  11.907  15.463 -0.1180 -0.2006  0.0347
21526W        W36657  11.249   0.514  15.089  0.1490  0.1861  0.0098
21527W        W36658  16.249   8.805  15.863 -0.1129 -0.2227  0.2294
21528W        W36659   2.535   0.534   3.395 -0.1329  0.3326 -0.0899
21529W        W36660  10.922   9.576   2.776  0.0405 -0.0674 -0.0793
21530W        W36661   0.905   7.640   4.952  0.0955  0.0540 -0.2403
21531W        W36662   3.650   6.572   4.101 -0.3201  0.1452  0.1025
21532W        W36663  10.132   7.202   4.770  0.1861 -0.1055  0.1877
21533W        W36664   7.419  17.797   0.192 -0.1099 -0.0611  0.1299
21534W        W36665  18.280   6.778   2.285  0.0105 -0.2185 -0.1629
21535W        W36666  17.519   5.380   1.781  0.3661  0.1567 -0.0211
21536W        W36667   4.444  16.569   2.240  0.4926 -0.0474 -0.0166
21537W        W36668   7.602   0.172   4.277  0.0569  0.1188  0.2481
21538W        W36669  12.888   1.555   9.997  0.1084 -0.0457 -0.1630
21539W        W36670   3.523  13.471  12.476 -0.0781 -0.2776  0.1912
21540W        W36671   9.817   7.740   4.012 -0.3328 -0.0123 -0.1260
21541W        W36672  16.510  11.199  10.047 -0.0166 -0.2414 -0.2090
21542W        W36673  14.068   5.134  10.687 -0.0017 -0.0250 -0.1282
21543W        W36674   5.384   4.573  11.578 -0.0816  0.1088 -0.1024
21544W        W36675   7.805   4.755   3.090  0.1128  0.1891 -0.0552
21545W        W36676  17.104  12.828  15.682 -0.0573 -0.0032 -0.0130
21546W        W36677   1.377   3.463   5.545  0.2011  0.1599 -0.0800
21547W        W36678   4.654   8.309   4.540  0.0649 -0.2513  0.1155
21548W        W36679   8.226   5.838  14.832 -0.0232  0.2493 -0.0464
21549W        W36680   1.952   7.445  14.943 -0.0108  0.0861  0.1222
21550W        W36681   0.425   8.550  12.094 -0.1651  0.2525  0.0763
21551W        W36682  14.205  11.781   4.826  0.1041  0.0396  0.1399
21552W        W36683  16.148  17.808  13.816  0.1723  0.0045 -0.1174
21553W        W36684  17.087  12.336   4.331  0.2615 -0.0361  0.0418
21554W        W36685  17.018   4.595   1.227 -0.0480  0.3933 -0.0825
21555W        W36686  13.319   9.577  11.229  0.3133  0.0056  0.2557
21556W        W36687   7.917  12.402  13.950 -0.1011  0.0533  0.4118
21557W        W36688  17.454   6.178  14.502 -0.1333  0.0524 -0.1954
21558W        W36689   5.785   8.235  11.992  0.1874 -0.2317  0.0802
21559W        W36690   9.516   3.948  16.010  0.0568  0.3844  0.0987
21560W        W36691  16.571  16.749   0.703  0.3980  0.1720 -0.0382
21561W        W36692   7.915   5.124   2.135  0.3484  0.0498 -0.1571
21562W        W36693   2.272  18.145  11.047 -0.1782  0.1453  0.2105
21563W        W36694   2.120  15.394   2.000 -0.0874 -0.2504  0.0051
21564W        W36695   5.104  18.171  11.683 -0.2875 -0.0642 -0.2235
21565W        W36696  15.379   0.779   2.968  0.3390  0.1542  0.1269
21566W        W36697   8.941  11.421  14.437 -0.1935 -0.3228 -0.0044
21567W        W36698  15.306  13.736   3.666 -0.3360 -0.0871 -0.0834
21568W        W36699   3.356   5.097  13.835  0.0463 -0.0907 -0.1845
21569W        W36700  17.943  11.415   1.670 -0.0014 -0.3079  0.2586
21570W        W36701   9.950   9.789   1.528 -0.0351 -0.0587 -0.3783
21571W        W36702  17.780   4.670   5.250 -0.2097 -0.1170  0.0732
21572W        W36703   5.357  10.561   2.641 -0.1097 -0.1896  0.1581
21573W        W36704  11.393   4.059  12.076  0.1917  0.1319 -0.0457
21574W        W36705  18.062   1.439   2.496 -0.2179 -0.1143  0.1291
21575W        W36706  15.102   4.735   2.463 -0.1771  0.1648  0.1375
21576W        W36707  13.464   4.421   2.501  0.2537 -0.1571 -0.2624
21577W        W36708  15.191  16.983  12.450  0.0632  0.0611  0.0095
21578W        W36709  15.673   9.630   1.205  0.0464  0.1351  0.0755
21579W        W36710   5.877   0.223  15.211  0.0009 -0.1036 -0.0162
21580W        W36711   5.674   7.043  16.097 -0.3554 -0.1367 -0.0426
21581W        W36712  10.194   4.074   0.270  0.2265 -0.3392 -0.0666
21582W        W36713  18.026  13.400  12.092 -0.0206 -0.0725 -0.1082
21583W        W36714  15.107  13.971  13.551 -0.2013  0.3342 -0.1138
21584W        W36715   9.026   8.217  12.107  0.4010 -0.0343  0.1106
21585W        W36716   7.470  14.556   0.975  0.3830 -0.0750  0.1546
21586W        W36717   6.497  16.610   1.494  0.2182 -0.0304  0.0170
21587W        W36718   2.576   3.791  10.474  0.2361 -0.0933  0.2001
21588W        W36719  12.791   8.865   4.830 -0.0384 -0.4949  0.1201
21589W        W36720  16.028   0.645   3.893  0.0435  0.1471  0.0540
21590W        W36721  13.109   8.638  13.809  0.1262  0.0827  0.1331
21591W        W36722  17.916   1.647  13.771  0.0333 -0.1722 -0.1298
21592W        W36723   1.254  14.294  13.887  0.2517 -0.1927 -0.1859
21593W        W36724   3.731   1.698   4.003  0.7225  0.2716 -0.1601
21594W        W36725   3.573   5.872   2.345 -0.4050 -0.1937  0.1324
21595W        W36726   1.681   6.749  13.343  0.1788  0.0934 -0.0153
21596W        W36727   1.222   8.621  12.244  0.1835  0.0738 -0.1270
21597W        W36728  17.535   6.678   4.081  0.3015  0.0094 -0.0538
21598W        W36729  10.303   3.883   2.945 -0.0425 -0.1244  0.0918
21599W        W36730   3.710   8.954  10.925  0.1646 -0.1620 -0.0484
21600W        W36731   6.716  17.399   1.093  0.0332  0.0628  0.0462
21601W        W36732   9.625   7.542   0.329  0.3083 -0.3521  0.0351
21602W        W36733  16.292  15.024  14.932  0.0269  0.2493 -0.3374
21603W        W36734  12.462  17.282   0.507 -0.2380 -0.0616  0.2269
21604W        W36735   3.178  10.231   1.451  0.1146 -0.0871  0.0564
21605W        W36736   3.613  10.606   3.705  0.2419  0.0610 -0.0327
21606W        W36737   9.964   2.542   1.936 -0.1017 -0.1337  0.1011
21607W        W36738   4.685  16.381   5.549  0.0868  0.0276  0.0418
21608W        W36739   0.216  15.436   0.012  0.1965  0.2033  0.2621
21609W        W36740  11.470   7.350   2.011 -0.0568  0.1666 -0.1565
21610W        W36741  14.656  13.602   2.511  0.0033 -0.0858  0.1326
21611W        W36742   7.118  10.742  12.119  0.1829  0.0309 -0.0691
21612W        W36743  10.492   8.547   1.881  0.2208 -0.4624 -0.1814
21613W        W36744  17.559   1.514   2.636  0.2908 -0.1256 -0.2565
21614W        W36745  17.176  10.889   3.202 -0.1186  0.0848 -0.1832
21615W        W36746   2.590   4.533   3.406  0.3127  0.1202  0.0187
21616W        W36747  15.670   9.993  15.861 -0.1389  0.0239  0.0621
21617W        W36748  16.788  12.451   1.938  0.2232  0.1364 -0.0413
21618W        W36749  10.730   0.784  12.434 -0.3094 -0.2025 -0.0444
21619W        W36750  17.214  14.365   2.066 -0.2253  0.0678 -0.1737
21620W        W36751   5.932   3.006   2.651 -0.0760 -0.0590  0.1137
21621W        W36752  14.895  10.811  13.610  0.2737 -0.3635  0.2300
21622W        W36753  15.646   9.502  12.158  0.1523  0.0296 -0.1027
21623W        W36754   0.148  10.585   3.056  0.1881 -0.3539 -0.0588
21624W        W36755  14.985  16.139  14.601 -0.2062 -0.1131 -0.1090
21625W        W36756   0.961  12.088   3.731 -0.0250  0.0104  0.1358
21626W        W36757  13.656   6.144  13.894  0.0691 -0.2255 -0.0991
21627W        W36758   2.024   2.065   3.707 -0.2085  0.1020 -0.2873
21628W        W36759   5.113  11.390   4.952  0.0447 -0.0335  0.0506
21629W        W36760  17.912   9.162   6.041  0.2131 -0.1387 -0.1477
21630W        W36761  14.600   7.184   1.343  0.1855 -0.0868  0.2121
21631W        W36762  14.573   4.001   2.338  0.1712 -0.3055  0.0027
21632W        W36763   1.288   8.974   1.622  0.2838 -0.0608 -0.2513
21633W        W36764  16.812  14.047   2.697  0.1494  0.0722  0.1906
21634W        W36765   7.009   7.353   5.594 -0.0228 -0.2472 -0.0964
21635W        W36766  10.721   5.715   3.605 -0.0911 -0.0869 -0.1738
21636W        W36767   5.913  17.160  13.922  0.0288  0.0563  0.0918
21637W        W36768   9.343  11.680  15.600 -0.2611 -0.1342 -0.2514
21638W        W36769  17.931  14.071  11.457 -0.0668 -0.3576  0.1338
21639W        W36770  13.773   2.740   2.390 -0.1106 -0.1937  0.1347
21640W        W36771   6.082   1.514   2.424 -0.0207  0.0432  0.1158
21641W        W36772   5.814  12.865  11.641  0.0290 -0.0994 -0.0179
21642W        W36773   7.616  16.696  11.353  0.0830  0.0456  0.2675
21643W        W36774  11.352   7.045  11.126  0.1462  0.0238  0.1275
21644W        W36775   2.887  17.096  14.852  0.1117  0.0184  0.2252
21645W        W36776   2.349   5.212   1.535 -0.3184 -0.0498  0.2838
21646W        W36777  17.236   6.472   3.771  0.0817  0.0677  0.0855
21647W        W36778  15.193  17.030   1.840 -0.1347 -0.1103  0.0324
21648W        W36779   9.692   1.987   5.369 -0.1918  0.0635 -0.2252
21649W        W36780  10.126  12.673  12.267 -0.0977 -0.1576  0.4451
21650W        W36781   4.037  13.122  15.883  0.0891 -0.0985 -0.2932
21651W        W36782  18.070  14.358  11.009  0.3799  0.1443  0.2225
21652W        W36783   8.372   1.310   3.973 -0.2405  0.0784 -0.1258
21653W        W36784   7.663  11.049  11.660  0.0272 -0.1111  0.0282
21654W        W36785   0.611   6.631  13.070 -0.0306  0.0038 -0.1445
21655W        W36786   2.305   4.092  14.093  0.1288  0.0279 -0.0496
21656W        W36787   3.323  10.298  13.306 -0.2340  0.0570  0.0544
21657W        W36788   2.480  17.830  14.860 -0.1364 -0.0895 -0.2138
21658W        W36789  16.945   5.899  11.908  0.2358 -0.1088  0.0454
21659W        W36790  13.213   2.158   0.946  0.2965 -0.0512 -0.0024
21660W        W36791   1.360  12.396   1.930  0.2318  0.1425 -0.2238
21661W        W36792   6.999   1.421  14.615 -0.1246  0.1691 -0.2261
21662W        W36793   7.019   7.835  14.601  0.1176  0.0278  0.3387
21663W        W36794   9.868  15.799   0.968 -0.4098  0.0759 -0.2528
21664W        W36795   9.397   5.574  15.533  0.0233  0.0776 -0.3442
21665W        W36796   7.213   7.439   1.300  0.0736  0.0146  0.0165
21666W        W36797  10.179   3.482  15.178  0.3022 -0.0197 -0.0510
21667W        W36798  12.717   3.695  15.169 -0.2368  0.1137  0.0061
21668W        W36799   7.925   4.824   5.500 -0.0144  0.0861  0.0949
21669W        W36800   9.499   9.307   3.776 -0.2104  0.0348 -0.0565
21670W        W36801   7.006  16.408   3.130  0.0858  0.0254 -0.1349
21671W        W36802   6.500  10.838  10.207  0.1057 -0.0693 -0.1325
21672W        W36803   6.839   2.627   2.262 -0.0610 -0.1820 -0.0776
21673W        W36804  12.362  16.461  12.189  0.2106 -0.0704 -0.0240
21674W        W36805  10.171   6.791  16.006  0.1181 -0.0818 -0.1284
21675W        W36806   0.913  14.063  11.516 -0.0935  0.1968 -0.1270
21676W        W36807  16.877  14.187  14.604  0.0115 -0.1806  0.1645
21677W        W36808  16.644  13.825  15.606 -0.0839 -0.0795 -0.4096
21678W        W36809  11.515  12.334   5.577  0.0652  0.0344 -0.0048
21679W        W36810   5.448  14.949  12.804  0.0993 -0.0301 -0.3325
21680W        W36811  18.176   4.286   3.996  0.0247 -0.0745  0.3720
21681W        W36812  13.485   0.620  15.392 -0.0467 -0.0883 -0.0368
21682W        W36813   6.231   9.363   3.748 -0.0265  0.0197  0.0029
21683W        W36814   4.088  15.752  14.862 -0.0121 -0.3020 -0.2486
21684W        W36815  12.806   4.180   1.597  0.2446 -0.1044  0.0412
21685W        W36816  15.676   6.489   4.425  0.0486  0.0571 -0.1970
21686W        W36817  17.892  12.945   4.544  0.3215  0.1896 -0.1580
21687W        W36818  15.412  14.507   0.918  0.0519 -0.0350 -0.2236
21688W        W36819  11.731  13.651  14.950 -0.1861 -0.2505 -0.3045
21689W        W36820   2.531  14.485  14.395 -0.0031  0.2657 -0.0429
21690W        W36821   7.116  11.301  14.975 -0.1270  0.3434  0.1312
21691W        W36822   9.758   2.327  12.195 -0.1158 -0.5540  0.1338
21692W        W36823  11.965   4.356   0.467 -0.0516 -0.3839  0.1137
21693W        W36824   6.314   1.092   2.429  0.2238  0.0988  0.0328
21694W        W36825   9.402  14.567  10.669  0.0954 -0.1591  0.1117
21695W        W36826   2.146   5.244   3.516  0.0939  0.2444 -0.0117
21696W        W36827   3.822   5.313  13.953 -0.0303 -0.0620  0.4107
21697W        W36828  12.865   2.615   2.430 -0.1599 -0.2937  0.0912
21698W        W36829  13.508   0.165  15.120 -0.3284  0.0850 -0.2213
21699W        W36830  14.856   2.653  13.263  0.1704 -0.0409  0.0764
21700W        W36831   6.873   4.222  14.111  0.0204 -0.2523 -0.0267
21701W        W36832  12.513  14.942   1.322 -0.0920 -0.0959 -0.0920
21702W        W36833  13.424   3.491  12.359  0.2240  0.2364 -0.1315
21703W        W36834  16.166   3.783   3.971 -0.1537 -0.3344  0.0954
21704W        W36835   6.691  13.923  14.108  0.1238  0.2333 -0.0398
21705W        W36836  17.722  17.791  12.965 -0.1512 -0.1542 -0.0560
21706W        W36837  16.639   8.181   5.401 -0.1044 -0.1141 -0.2488
21707W        W36838  13.642   3.043   0.413 -0.1069 -0.0032  0.0437
21708W        W36839  15.982  12.116   2.162 -0.0260  0.1692 -0.2142
21709W        W36840   3.200   9.697   0.153  0.2892  0.0715  0.1141
21710W        W36841   3.533   2.334  10.065  0.3379  0.2490 -0.2702
21711W        W36842  15.537  13.874  12.697  0.0109  0.2047  0.1889
21712W        W36843   7.267  15.997   1.202 -0.0286 -0.0347 -0.0586
21713W        W36844   1.464  14.466   3.996  0.2040  0.2628  0.0198
21714W        W36845   2.959  16.098  12.637  0.2888  0.2510 -0.0480
21715W        W36846  13.037  15.724   0.820  0.1812 -0.0082 -0.0160
21716W        W36847   8.363   3.127  15.227 -0.0206  0.0966 -0.1609
21717W        W36848   1.952  12.298  16.037 -0.1981  0.3646 -0.2396
21718W        W36849  14.147   0.661  14.383 -0.2003  0.1513  0.0095
21719W        W36850  12.785  15.615  14.177  0.1835 -0.0179  0.2970
21720W        W36851   7.580  13.193   2.766  0.1058 -0.1231  0.1121
21721W        W36852   6.011  10.818  12.108 -0.0291  0.0563  0.0578
21722W        W36853   8.924  17.952   3.908  0.3134 -0.0487 -0.3023
21723W        W36854   7.743  14.574   0.502  0.1250 -0.1142 -0.0911
21724W        W36855   8.113  18.108   4.935 -0.1303 -0.2169 -0.0346
21725W        W36856   1.862   6.957   1.722 -0.1784 -0.0128  0.1690
21726W        W36857  15.652   5.029   4.975 -0.0400 -0.2308 -0.2679
21727W        W36858  11.077   7.752   1.353 -0.0688 -0.1999  0.1336
21728W        W36859   7.894  13.679  12.102  0.1445  0.0564 -0.0473
21729W        W36860   5.201   5.913  13.442 -0.2802  0.2359  0.4560
21730W        W36861  17.900   1.150  12.207  0.1132  0.2361 -0.0248
21731W        W36862   1.256  15.240  12.585 -0.3399 -0.0884  0.1190
21732W        W36863   1.223   9.067  12.496  0.3593  0.1540 -0.2362
21733W        W36864  15.738   4.026   2.985 -0.1230 -0.1713 -0.0112
21734W        W36865   7.359  15.588   3.430  0.0090  0.0196  0.1384
21735W        W36866  15.143  15.441  14.598  0.0846 -0.0444  0.2532
21736W        W36867   3.056   0.840   4.820  0.1740 -0.1629  0.1317
21737W        W36868  12.501   0.014  11.844 -0.0369 -0.2943 -0.0778
21738W        W36869  12.285  14.382  12.906  0.3389  0.0077  0.1729
21739W        W36870  18.120   6.489  12.420 -0.1801  0.1331  0.0403
21740W        W36871   6.485  15.547  12.990 -0.1524 -0.1928  0.0178
21741W        W36872  13.198   0.906  15.705 -0.0137  0.1935 -0.0921
21742W        W36873   1.930   2.062  12.471  0.0442 -0.0565 -0.3506
21743W        W36874  12.605   7.669   4.107 -0.1500 -0.1483 -0.3742
21744W        W36875  12.165  13.439  12.805 -0.1320  0.1363  0.1311
21745W        W36876   4.402  13.061   0.220  0.0940  0.3498  0.0185
21746W        W36877   6.952   4.120  12.417  0.1178 -0.1835  0.0515
21747W        W36878   4.781   6.865   0.151  0.0970 -0.0112  0.0750
21748W        W36879   3.407  15.697   3.457 -0.1170  0.2574  0.3299
21749W        W36880   7.591  16.810  11.989 -0.3029 -0.2480 -0.0510
21750W        W36881  13.686  15.676   2.560 -0.0524  0.0099 -0.3638
21751W        W36882  15.031  12.408  11.709  0.0753 -0.1628  0.1163
21752W        W36883   4.803   5.753   1.328 -0.0828 -0.1033  0.1229
21753W        W36884   2.303  16.005   0.748  0.1241  0.0456 -0.4857
21754W        W36885  15.209   4.456  12.864 -0.1626  0.0218 -0.2402
21755W        W36886  13.728   0.575   4.190 -0.1050  0.1066 -0.0069
21756W        W36887   9.898  17.768  15.234  0.0059  0.2106  0.1581
21757W        W36888   7.444  14.314   2.239  0.0292 -0.2945  0.2454
21758W        W36889   9.453  14.133   1.133  0.0666 -0.0572  0.1148
21759W        W36890   0.655   8.148   1.775 -0.0333 -0.1842  0.0672
21760W        W36891   1.109  12.717  14.493  0.1771 -0.0020 -0.0929
21761W        W36892   1.136  16.748   3.014 -0.0395  0.0560  0.0518
21762W        W36893  12.226   9.072   0.165  0.1688  0.2479  0.0191
21763W        W36894  17.987  16.590  14.677  0.1080 -0.2141  0.1590
21764W        W36895  14.929  11.804  15.499  0.1732  0.4372 -0.2079
21765W        W36896  16.690  16.135  11.864  0.4717  0.0571  0.0819
21766W        W36897   5.351   4.707   0.606 -0.2015  0.0831 -0.2891
21767W        W36898  10.400   0.319   0.371 -0.1889  0.7182  0.0660
21768W        W36899   3.351  13.727   4.229  0.0018 -0.1365  0.0475
21769W        W36900   0.390   3.254  13.442 -0.0769 -0.0934 -0.1995
21770W        W36901  13.208   1.224  11.873  0.0348 -0.1349 -0.2912
21771W        W36902  16.384   0.294   1.939  0.1584  0.1655 -0.2486
21772W        W36903  10.986  10.682  11.699 -0.0868  0.1541 -0.1639
21773W        W36904  13.974   6.238  14.406 -0.2082  0.3700 -0.0579
21774W        W36905   4.650  15.444  14.152 -0.1826  0.0512  0.0568
21775W        W36906   4.737   4.327  11.805  0.0697  0.1778 -0.3029
21776W        W36907  10.600  17.468  13.598 -0.2762  0.0555 -0.0454
21777W        W36908   2.920   3.953   4.034 -0.1626 -0.1027 -0.0601
21778W        W36909   4.119  17.762  13.532 -0.0091  0.5487 -0.2338
21779W        W36910   2.656  13.960   3.227 -0.0300  0.2423 -0.1673
21780W        W36911   1.468   0.955  14.187  0.1305 -0.0018  0.0430
21781W        W36912   1.449  12.522  15.891 -0.1535 -0.1527  0.2349
21782W        W36913  11.381  14.569  14.392 -0.1679  0.1218  0.0039
21783W        W36914   6.642  10.609   3.431  0.1198  0.1709 -0.1594
21784W        W36915   6.096   9.887   2.004 -0.2259 -0.1011 -0.0599
21785W        W36916  10.416   6.652   1.166  0.0115 -0.2168 -0.3568
21786W        W36917   5.817  14.600  10.995  0.1007  0.2090  0.1507
21787W        W36918   9.379  18.301   2.375 -0.3029 -0.4083 -0.0030
21788W        W36919  14.607  10.955  13.992 -0.0625 -0.1622 -0.3102
21789W        W36920  10.427  10.589   3.976 -0.0085  0.0572 -0.1179
21790W        W36921   3.362  11.241   4.379  0.0489  0.0260  0.0907
21791W        W36922   1.474  15.380  11.215  0.1779  0.0161  0.4417
21792W        W36923   2.992   5.635   0.511  0.0953 -0.4010  0.1088
21793W        W36924   0.354  11.779  11.601 -0.1075  0.1723  0.0935
21794W        W36925  15.265  14.887  13.737 -0.0247 -0.0412  0.2052
21795W        W36926   9.741  10.160   0.910 -0.2944 -0.2260 -0.1807
21796W        W36927  12.215   9.916   1.093  0.1727 -0.2381 -0.1795
21797W        W36928   5.379  11.404   2.209  0.0526  0.0350 -0.3344
21798W        W36929  11.498   6.403  11.136  0.2788  0.0041  0.0906
21799W        W36930  16.556  13.950  12.419  0.2085 -0.0373 -0.1273
21800W        W36931   0.376  12.176   2.876 -0.0307  0.1359 -0.0603
21801W        W36932   9.963  17.436   3.982  0.2235 -0.2976 -0.2383
21802W        W36933  14.505  15.889   2.233  0.0479 -0.1763 -0.2455
21803W        W36934  14.407  14.879  11.097  0.2058 -0.0782 -0.1720
21804W        W36935   4.646   0.933  15.925 -0.3311  0.3430 -0.2310
21805W        W36936  15.280   0.268   0.060  0.0672  0.0803 -0.2208
21806W        W36937  16.548   8.816   2.357  0.0587 -0.2314  0.1224
21807W        W36938   2.970   2.946  16.029 -0.0230 -0.1215 -0.2831
21808W        W36939   0.051  17.819  16.034  0.0523  0.1350 -0.3901
21809W        W36940  12.701  17.352  15.943  0.0538  0.1660  0.3999
21810W        W36941   2.057  15.517   3.383 -0.0009 -0.0042 -0.0160
21811W        W36942  10.161   3.473  11.747  0.3061 -0.0731  0.3387
21812W        W36943  17.002   8.248   3.689 -0.0355  0.1402 -0.0465
21813W        W36944   1.665  16.641  11.792  0.1689 -0.0938  0.1327
21814W        W36945  10.834   5.731  11.308  0.0184  0.1417  0.2455
21815W        W36946  15.961   6.233  12.536  0.1849 -0.0397 -0.0299
21816W        W36947  15.231  14.452   2.938 -0.1916 -0.1028 -0.0848
21817W        W36948  17.973   2.578   3.490  0.1021  0.0609  0.0168
21818W        W36949  11.655  14.407   4.090 -0.1613 -0.0235 -0.1988
21819W        W36950  18.223   2.118   6.233  0.0996 -0.2368 -0.0712
21820W        W36951   2.279   9.091   5.222 -0.1471  0.2557 -0.4486
21821W        W36952  10.730   2.467  14.738  0.0344  0.2545  0.1482
21822W        W36953   8.964  14.914   1.093 -0.2243  0.0357 -0.1297
21823W        W36954  12.769   8.291  15.222  0.0630  0.3186  0.0534
21824W        W36955  16.311  11.549   0.870  0.2020 -0.0815 -0.0879
21825W        W36956   8.567   9.344  14.172  0.0737 -0.3440  0.0721
21826W        W36957  10.358   0.525  14.608  0.0994  0.1224 -0.0766
21827W        W36958   0.542  11.335   0.718 -0.1817  0.0995 -0.1637
21828W        W36959  14.378  13.317   3.290 -0.2115 -0.0107  0.2037
21829W        W36960   6.535   7.476   0.682  0.3376 -0.0993  0.1618
21830W        W36961   0.085   4.293  14.361  0.0776 -0.0750  0.0101
21831W        W36962   4.326   5.393  13.294  0.4264  0.0549  0.2921
21832W        W36963  11.801   5.627  10.944  0.0103 -0.1490 -0.1600
21833W        W36964   7.848  12.884   4.099 -0.1674 -0.0830  0.0630
21834W        W36965  14.160   0.714  11.599  0.2316  0.0762 -0.3210
21835W        W36966  17.955  11.274   1.206 -0.0417  0.1083  0.0551
21836W        W36967   1.546  13.052  14.962 -0.2184  0.3809  0.1484
21837W        W36968   1.497  11.757  13.626 -0.6110  0.0272 -0.0547
21838W        W36969  10.087  15.384  14.894 -0.1983  0.1399 -0.0363
21839W        W36970   4.105   4.762  15.817  0.3585  0.1897  0.0816
21840W        W36971   8.016   5.044  11.572  0.1246 -0.2107  0.1170
21841W        W36972   3.421  11.201  13.058 -0.1167 -0.3405 -0.1412
21842W        W36973  17.045   8.474  11.863 -0.1321 -0.0963  0.0277
21843W        W36974   1.940  15.569  11.335 -0.1488 -0.2378  0.1074
21844W        W36975   6.585  11.856  11.062  0.3512 -0.0484 -0.0345
21845W        W36976  15.220   9.037  13.437 -0.2215 -0.0788  0.4455
21846W        W36977   5.934  18.100  14.616  0.1760  0.3065 -0.0450
21847W        W36978   2.184   9.572  12.433  0.1208  0.2928  0.1871
21848W        W36979   8.522   9.357  13.693 -0.1137 -0.1037 -0.0041
21849W        W36980   7.127   7.294  15.448  0.1122  0.0053  0.0925
21850W        W36981  10.920   2.126  12.569  0.0570 -0.1931 -0.0201
21851W        W36982  12.085  16.111  14.879  0.3728  0.0674  0.1858
21852W        W36983  11.135   9.851   3.715 -0.2670  0.0901  0.1242
21853W        W36984   7.140   3.509   4.835 -0.3402  0.2343  0.1889
21854W        W36985  17.135  10.127  14.075  0.1702  0.1982 -0.0090
21855W        W36986  11.454   9.980  13.538  0.0527 -0.0661  0.0025
21856W        W36987   6.837   9.265   1.197 -0.0903  0.0447  0.1871
21857W        W36988   6.008   6.007  12.931  0.2442 -0.4158 -0.0800
21858W        W36989   2.913   8.754  12.529  0.0756 -0.0713 -0.0798
21859W        W36990  11.499   9.355  14.362 -0.1115 -0.0414 -0.0118
21860W        W36991   9.413   5.512  12.885 -0.2492 -0.3946 -0.2565
21861W        W36992   3.121   6.451   4.293  0.0014 -0.2823  0.1115
21862W        W36993  16.290  10.802   3.431  0.3128  0.0706 -0.2492
21863W        W36994   5.222  15.680   4.326 -0.0222  0.2079 -0.1821
21864W        W36995   2.401   0.096   0.028  0.0233  0.2047  0.1257
21865W        W36996   3.949   6.866   5.082  0.0487  0.0795  0.0947
21866W        W36997  12.622  16.717  14.832  0.1658 -0.1815  0.1608
21867W        W36998   6.267   3.666   4.090 -0.0902 -0.3265 -0.0277
21868W        W36999   7.353   9.339  10.872 -0.0425 -0.2116 -0.0558
21869W        W37000   3.958  18.253  12.676 -0.3174 -0.2235 -0.1551
21870W        W37001   1.157  16.409  13.889 -0.0605 -0.0205 -0.0828
21871W        W37002   7.559   9.690  12.283 -0.3759  0.2161  0.1736
21872W        W37003  10.022   8.981  12.523  0.0951  0.0602  0.0840
21873W        W37004  15.603   1.132   2.596 -0.3147 -0.0388  0.1461
21874W        W37005   6.471  10.136  14.547 -0.1217 -0.1612  0.2786
21875W        W37006   0.501  13.724   2.366  0.0359 -0.0159  0.0159
21876W        W37007   6.423   3.088   3.272  0.1546 -0.3325  0.2738
21877W        W37008   9.572   9.355  13.136  0.0767  0.2158 -0.0034
21878W        W37009   2.985  12.119  15.794 -0.0642 -0.1650  0.0166
21879W        W37010  15.538   7.078  14.624  0.0515  0.1061 -0.4232
21880W        W37011  15.136   8.243  13.084 -0.1038  0.1251  0.0608
21881W        W37012  11.708  12.179  14.328  0.1962 -0.1098  0.2018
21882W        W37013  13.684  12.024  15.252 -0.0651 -0.0911 -0.3950
21883W        W37014  11.900   6.555  10.271  0.0039 -0.2045 -0.2239
21884W        W37015   6.385   5.830  11.160 -0.1911 -0.3095 -0.1407
21885W        W37016   8.156  18.218   3.280  0.2356  0.5884  0.0040
21886W        W37017  18.105  13.187  16.050 -0.4072  0.1753  0.0545
21887W        W37018  12.177  15.392  14.116  0.0711  0.1653 -0.1119
21888W        W37019  10.493   1.728  11.296 -0.0405  0.2664 -0.1510
21889W        W37020   5.899   5.613  15.259  0.0232 -0.0056 -0.3101
21890W        W37021   7.270   5.348   1.080  0.2075  0.2147 -0.2224
21891W        W37022   2.621   6.460  12.140  0.2978  0.1375  0.0468
21892W        W37023  16.445   5.313  13.479  0.3076  0.1296 -0.1410
21893W        W37024   0.362   4.721  13.066  0.1453 -0.0773 -0.1004
21894W        W37025   0.909  10.806   1.067  0.0625 -0.3289  0.4484
21895W        W37026  13.220   8.764  10.127  0.2638 -0.0304  0.1644
21896W        W37027  13.716   7.606  10.978 -0.3508 -0.1833 -0.3704
21897W        W37028   6.621  17.427   3.301 -0.0447 -0.2493 -0.2852
21898W        W37029   8.530   5.071  12.643 -0.0562 -0.2403 -0.1407
21899W        W37030   8.988  12.812  12.881 -0.0927 -0.5565 -0.0406
21900W        W37031   9.506   8.569  10.838  0.2901 -0.0858 -0.0271
21901W        W37032   8.260  11.903   9.865 -0.2851  0.0591  0.1364
21902W        W37033   6.567  16.307  13.607  0.1429 -0.0579  0.0147
21903W        W37034   8.978   6.554  13.393 -0.0134  0.2213  0.0951
21904W        W37035  12.043   0.694   0.482 -0.2385 -0.0217  0.1423
21905W        W37036  15.993   4.222   1.316  0.1555  0.0633  0.3648
21906W        W37037  13.037   7.673  12.841  0.3335 -0.0119  0.0495
21907W        W37038  12.952  12.783  13.775 -0.0343  0.1654  0.2236
21908W        W37039   4.857  11.830  15.700  0.0387  0.2169  0.5153
21909W        W37040  17.204   5.636   1.985  0.0629  0.0338 -0.1111
21910W        W37041   1.953  10.314   2.370  0.1825  0.0992 -0.2191
21911W        W37042  11.570  17.355   2.693 -0.0865 -0.0270 -0.3095
21912W        W37043  13.995  11.357  12.169 -0.0801 -0.0823  0.2512
21913W        W37044   0.661   0.947   3.909 -0.1760 -0.1139  0.3113
21914W        W37045  12.963   4.332  13.968  0.0137  0.1216  0.2300
21915W        W37046   7.389   5.373   4.837  0.0894 -0.5484 -0.2710
21916W        W37047  10.428  10.000  13.980 -0.0573  0.0282 -0.0921
21917W        W37048   1.202  17.443   1.575 -0.0936  0.1381  0.2774
21918W        W37049  12.094  16.865   1.166 -0.1442  0.1038 -0.2134
21919W        W37050   0.356  16.936  13.940  0.2484  0.1323 -0.1443
21920W        W37051   2.588   4.565   1.541 -0.2481 -0.0967  0.1462
21921W        W37052   9.894  13.435   2.328  0.0169  0.1812  0.0735
21922W        W37053  13.377  15.183  10.284  0.0416  0.1207  0.0631
21923W        W37054   7.249  13.204   6.298 -0.1178  0.1123  0.2395
21924W        W37055   4.012   0.102  11.398 -0.0579 -0.0471  0.0443
21925W        W37056   2.896   4.301   2.133 -0.1218  0.1103  0.0415
21926W        W37057  12.037  13.320   0.740 -0.2765 -0.2790 -0.2002
21927W        W37058  11.861  13.223   2.244 -0.1455 -0.1796 -0.4084
21928W        W37059  12.127   5.323  15.415  0.3182  0.1618 -0.1715
21929W        W37060  14.511  11.388   0.614 -0.0700 -0.2865 -0.0457
21930W        W37061  10.617  14.760  13.382  0.3654  0.1263 -0.2031
21931W        W37062  15.275   1.578   5.412 -0.1656 -0.1594  0.1592
21932W        W37063  11.767   6.273   0.687 -0.1831  0.1349 -0.3672
21933W        W37064  16.215   8.493   4.793  0.0402 -0.1996 -0.2099
21934W        W37065  12.946   2.840  15.413 -0.0525 -0.1429 -0.2297
21935W        W37066   7.742  10.447  11.645  0.1468  0.0494  0.1654
21936W        W37067  17.898   3.664   0.186 -0.1727 -0.1073 -0.1745
21937W        W37068  18.061   5.997   4.546 -0.1207 -0.1783 -0.0346
21938W        W37069  16.539   6.601   2.808  0.3783 -0.2004 -0.1434
21939W        W37070  17.722  16.844   0.205 -0.0016  0.2328  0.0399
21940W        W37071   8.382   2.561  12.544  0.0555 -0.0900  0.0710
21941W        W37072   3.981   6.922   3.792 -0.2624  0.3059 -0.3963
21942W        W37073   4.290  13.527   0.978 -0.0031  0.1409  0.0647
21943W        W37074   5.959   5.466   1.528  0.0546  0.3598 -0.1304
21944W        W37075   8.924   8.610  14.127  0.0946  0.0339  0.2054
21945W        W37076   1.786   3.182  15.914  0.1717  0.0497 -0.1910
21946W        W37077  13.253   6.176   0.360  0.0794 -0.0555 -0.0690
21947W        W37078  17.665   2.193  13.197 -0.0107  0.1176  0.4792
21948W        W37079  12.280  15.080  13.737 -0.0371  0.0198  0.1738
21949W        W37080  14.887   1.998   1.199  0.2047  0.0242 -0.1491
21950W        W37081  16.027   1.477  11.053  0.0268 -0.0684 -0.2313
21951W        W37082  14.744   3.151   4.049 -0.0034 -0.2322  0.0441
21952W        W37083  17.217  15.816  11.870  0.3179  0.2339 -0.2534
21953W        W37084  12.303  12.132   4.553 -0.0515  0.0706  0.0783
21954W        W37085  10.813   6.150   3.335  0.2981 -0.0044 -0.1651
21955W        W37086  10.886   1.061   2.171 -0.1746  0.1804  0.1190
21956W        W37087  11.824   5.620  14.491 -0.2438 -0.3335 -0.1277
21957W        W37088   8.106  15.111  10.812 -0.1075  0.2807 -0.1101
21958W        W37089  13.088  14.324  10.019 -0.0452 -0.2477  0.0941
21959W        W37090   2.715  13.449  15.397  0.0814  0.1503  0.2325
21960W        W37091  13.086   7.666  11.120  0.4304  0.2131 -0.0254
21961W        W37092  10.041   7.495  10.204 -0.2651 -0.1960 -0.1266
21962W        W37093  11.573  14.756   1.437 -0.4140  0.1189  0.1519
21963W        W37094   8.909   1.723   2.555 -0.2095 -0.0759 -0.3499
21964W        W37095  16.439  16.403  12.270  0.0504  0.2413 -0.1862
21965W        W37096  15.114   4.527   1.790 -0.2856  0.1305  0.0089
21966W        W37097  14.305  14.236  11.782  0.1118 -0.0958 -0.1115
21967W        W37098   1.677  15.848   4.345 -0.0866 -0.0257 -0.0287
21968W        W37099  10.939  16.159   4.600  0.1727  0.0808  0.1829
21969W        W37100   0.344  13.252   2.732 -0.2167 -0.2267 -0.3214
21970W        W37101  15.485   6.623   2.652  0.2439  0.1493  0.0206
21971W        W37102   2.229   3.657   6.137  0.0853  0.2780 -0.2248
21972W        W37103   8.313  12.358  13.427 -0.1239  0.0919 -0.1593
21973W        W37104   0.031   1.181  14.594 -0.0015 -0.2328  0.2120
21974W        W37105  18.116  11.327   2.862 -0.1385  0.1162 -0.0436
21975W        W37106   5.868  14.797   2.517  0.1048 -0.0860  0.1834
21976W        W37107  10.697  17.695   5.105 -0.1654  0.2406 -0.1288
21977W        W37108  16.867   8.353   0.596 -0.1839  0.0147 -0.0344
21978W        W37109  13.606  12.436  13.079 -0.1983 -0.0666 -0.0974
21979W        W37110   1.157   6.618  12.876  0.2913 -0.0653 -0.0534
21980W        W37111   7.184   7.527  13.365 -0.1612  0.0620  0.0819
21981W        W37112   8.015   9.468  12.961 -0.0556  0.2384 -0.0900
21982W        W37113   3.079   8.432  11.060  0.2232  0.5033  0.2706
21983W        W37114   8.342   7.719   5.234 -0.1575 -0.0041 -0.1081
21984W        W37115  11.139  16.564   4.841  0.1010 -0.1764  0.2662
21985W        W37116   2.152  14.208   0.262  0.1041  0.0584 -0.0081
21986W        W37117   4.777   6.988   2.318  0.2826 -0.0413 -0.3085
21987W        W37118   5.391   2.528  12.342 -0.1215  0.0327 -0.1890
21988W        W37119   7.126   3.785   2.981  0.1161  0.1794 -0.0595
21989W        W37120   2.499  15.939   4.670 -0.0425  0.3239  0.1592
21990W        W37121   9.504   2.440   5.127  0.0163 -0.2803  0.1256
21991W        W37122  14.953   0.951   0.544 -0.3431  0.0330  0.0954
21992W        W37123   8.072  11.802  15.074 -0.2585 -0.2578  0.4586
21993W        W37124   5.009  13.250   9.943  0.1724  0.1587 -0.0271
21994W        W37125   7.558  11.856   4.716  0.3881 -0.0730 -0.1393
21995W        W37126  16.452  11.886  15.649  0.3392 -0.0652  0.3995
21996W        W37127   5.788  16.915  14.372  0.3152 -0.3209 -0.0285
21997W        W37128  10.962   6.462  11.785 -0.1792 -0.0605  0.0097
21998W        W37129  14.392   7.500  13.263  0.0507  0.0414  0.0276
21999W        W37130   0.751   4.375   0.742 -0.0221 -0.1510  0.1321
22000W        W37131  12.670  16.735   4.835  0.0118 -0.0835 -0.2772
22001W        W37132  16.693   9.682  13.553 -0.3165  0.3993 -0.0112
22002W        W37133  11.307   7.968  13.272  0.0425 -0.2105 -0.1451
22003W        W37134   7.148   5.650   2.164  0.0564  0.0605 -0.1578
22004W        W37135  13.663  11.187  11.376  0.0669 -0.2529  0.0158
22005W        W37136   2.538   7.364  15.163  0.0677  0.2426 -0.3622
22006W        W37137   1.502  12.204  12.740 -0.0543 -0.2281  0.0082
22007W        W37138   0.432   9.503  11.834 -0.3358 -0.1854 -0.2198
22008W        W37139  16.613   1.386  12.199  0.2487  0.2029 -0.0348
22009W        W37140  16.842  15.041  15.536 -0.3377 -0.1541 -0.0847
22010W        W37141   2.743  18.015  11.167  0.1759  0.0485 -0.3413
22011W        W37142   4.505   3.752   5.255  0.0529  0.0054  0.1397
22012W        W37143   3.993  12.235  11.137  0.0215  0.2748  0.2051
22013W        W37144  10.761   8.857  13.826 -0.1732 -0.1187 -0.2198
22014W        W37145   9.352  13.387   4.821 -0.1363 -0.4209 -0.0009
22015W        W37146  13.882   8.306  11.674  0.1578 -0.0465 -0.0658
22016W        W37147   2.193  16.490  10.591 -0.2083 -0.0134 -0.0894
22017W        W37148  17.023   8.626  12.765 -0.1394 -0.0257 -0.0941
22018W        W37149  17.644   3.971  11.333 -0.2523  0.1917  0.1653
22019W        W37150  16.656   6.119   2.663  0.3450 -0.0478 -0.1406
22020W        W37151   2.466   6.000  12.061 -0.0065  0.1080  0.0955
22021W        W37152  12.068   0.221  15.913 -0.0114  0.0924 -0.2170
22022W        W37153  12.301   9.408  13.147  0.1903 -0.0412  0.1037
22023W        W37154   6.740   9.103   4.972 -0.1603 -0.2489  0.1267
22024W        W37155   2.609   7.449  14.341  0.1977 -0.0953  0.3501
22025W        W37156   6.380  12.836   5.716 -0.0926  0.3493 -0.1151
22026W        W37157  14.175   3.177  13.188  0.2124  0.1797  0.0872
22027W        W37158   5.738   1.597  14.579 -0.2865 -0.1382  0.1249
22028W        W37159  14.412  16.129  10.061 -0.1426 -0.2099 -0.0637
22029W        W37160   1.682   9.858  14.458 -0.2386  0.0647  0.1794
22030W        W37161   1.376  12.514   1.261 -0.1482  0.1117  0.1518
22031W        W37162   3.148   1.338   0.471 -0.1408 -0.0046  0.0302
22032W        W37163   9.473  17.770  11.257 -0.1604 -0.1434 -0.0221
22033W        W37164   0.108   4.871   0.118  0.1414  0.0702  0.2603
22034W        W37165   6.111   6.673   5.560  0.2623  0.2609  0.0193
22035W        W37166   2.833   2.246   1.111  0.0452  0.2243 -0.0632
22036W        W37167   5.633  13.037  15.890  0.5091 -0.0934 -0.0166
22037W        W37168  17.775   5.739   2.767 -0.0299 -0.0170  0.3109
22038W        W37169  15.154  16.052   1.124 -0.2865  0.2219 -0.0982
22039W        W37170  10.539  17.059  12.029  0.1510 -0.0512  0.1190
22040W        W37171   1.803  18.123   0.884 -0.2078 -0.0845 -0.0372
22041W        W37172  17.260  14.415  11.477 -0.1895 -0.0322 -0.2844
22042W        W37173  13.208   7.823  12.356 -0.1738  0.0649 -0.1211
22043W        W37174  12.799  14.258  15.477  0.1206  0.0780  0.0543
22044W        W37175   8.712   8.961   0.358 -0.1212 -0.3263 -0.1644
22045W        W37176  17.444  13.024   5.292 -0.0105  0.3555  0.0845
22046W        W37177   2.259   7.088   0.573 -0.1251  0.3164  0.1062
22047W        W37178   5.247  10.627   3.862 -0.3131 -0.1966  0.2370
22048W        W37179   4.484  15.187  10.260  0.0077 -0.1126 -0.0776
22049W        W37180   4.415  12.684   0.657  0.0049 -0.1285  0.0008
22050W        W37181  13.314  14.969  12.221  0.1503  0.1002  0.0707
22051W        W37182   3.772   8.970   5.364 -0.2934 -0.0649 -0.0406
22052W        W37183   6.273  13.213   0.721  0.0671 -0.0411  0.1617
22053W        W37184   9.708   9.504   2.829  0.0014  0.0213  0.2630
22054W        W37185   1.641  14.393   3.232 -0.2618 -0.0379 -0.2342
22055W        W37186  15.226   3.742  10.579  0.0440  0.4116 -0.0790
22056W        W37187  13.920   5.937   5.133 -0.0052 -0.1264  0.0135
22057W        W37188  16.818  17.255  14.110 -0.1831  0.3329 -0.0851
22058W        W37189   6.463  18.294  13.801  0.4129 -0.0002 -0.3052
22059W        W37190  17.397  10.320   4.680 -0.0216 -0.0657  0.0468
22060W        W37191   8.880  17.499   6.077  0.2635 -0.0192  0.1063
22061W        W37192   8.945  11.921  12.165  0.0260  0.0764 -0.0581
22062W        W37193  16.264   7.923  14.745 -0.0106  0.1434  0.2247
22063W        W37194   7.153   0.964  14.719  0.2513  0.2096 -0.4952
22064W        W37195  18.302  17.737  12.493 -0.1689  0.1384  0.4000
22065W        W37196   3.125  10.362   3.650 -0.0307  0.3937  0.0895
22066W        W37197   8.917   3.943  10.314 -0.4289 -0.1153 -0.0833
22067W        W37198  11.631   3.203   5.024  0.2556 -0.4060 -0.0748
22068W        W37199  13.760   6.584   9.662 -0.2975 -0.1086  0.1199
22069W        W37200  10.750  10.609  13.438 -0.2853  0.1903 -0.0919
22070W        W37201   1.524   1.562   3.651 -0.0276  0.0544  0.1358
22071W        W37202   9.201   0.753  11.160 -0.3967  0.0118 -0.0243
22072W        W37203   5.537   4.297  14.167 -0.0444 -0.2766 -0.0041
22073W        W37204   4.618  12.500   2.924  0.0352 -0.0312 -0.1735
22074W        W37205  18.040   5.500  14.380 -0.0314  0.1166  0.0479
22075W        W37206  16.187  13.283   2.952 -0.1605  0.0751  0.0246
22076W        W37207  16.059   9.358   1.399  0.2381  0.0286 -0.0701
22077W        W37208   2.613  13.984   0.362  0.2520  0.1961  0.0132
22078W        W37209  13.593  16.304   3.215 -0.0889  0.4389  0.1981
22079W        W37210   4.251   1.883  13.778  0.2186  0.2007  0.2564
22080W        W37211   7.227   0.754   5.042 -0.1601  0.1430  0.1381
22081W        W37212  15.167   0.473  12.726  0.3467  0.2564 -0.1928
22082W        W37213   5.638   3.363  15.017 -0.1072 -0.1076  0.1514
22083W        W37214   6.104  16.979   1.594  0.0808  0.0531  0.1264
22084W        W37215   9.125   6.758  12.949  0.0401 -0.0582 -0.1414
22085W        W37216   5.852  12.028  13.506 -0.0193 -0.1774  0.0889
22086W        W37217   2.096  14.204   5.263  0.2958 -0.1625 -0.0076
22087W        W37218   7.841  16.503   2.680  0.0140 -0.1958  0.2205
22088W        W37219   4.069  13.878   6.133 -0.1379  0.3455 -0.1876
22089W        W37220   8.360   1.903   1.891 -0.1319  0.0955 -0.0542
22090W        W37221   0.519   8.954  13.164  0.2158 -0.4970 -0.1515
22091W        W37222   4.832  12.074   5.675  0.4057 -0.0613 -0.1285
22092W        W37223  14.540   2.003  15.382  0.1797  0.2653  0.1072
22093W        W37224   2.733   2.617   4.066 -0.1307 -0.1982  0.1298
22094W        W37225   7.485  10.155  15.527 -0.1834 -0.0196 -0.1582
22095W        W37226   8.178   2.012   2.975  0.0730  0.1617 -0.0236
22096W        W37227   8.269   2.144  15.592  0.0034  0.1259  0.0577
22097W        W37228   0.228  14.432   5.036 -0.5231  0.4103  0.0929
22098W        W37229  13.692  10.057   4.498 -0.1455 -0.1093  0.0559
22099W        W37230   5.609  11.862  15.442 -0.1379  0.0857  0.0954
22100W        W37231   9.871  12.166  12.448  0.0703 -0.1424  0.2414
22101W        W37232   2.186  10.545   0.503 -0.0213 -0.0610  0.2799
22102W        W37233   1.447  15.008   4.651  0.2102 -0.3131 -0.1853
22103W        W37234   3.282   3.879  12.911 -0.3270 -0.0880 -0.3853
22104W        W37235   4.611  16.799   5.788 -0.2228  0.1474  0.0345
22105W        W37236   9.858   8.334   5.591  0.0023 -0.0469  0.5146
22106W        W37237  17.582  12.103   3.538 -0.2857 -0.0375 -0.1318
22107W        W37238  11.669  13.824   0.873  0.2646  0.0197 -0.1116
22108W        W37239   5.557  16.303   5.306 -0.0302 -0.0569  0.0415
22109W        W37240  13.073  13.594   0.137 -0.1032  0.0445 -0.0732
22110W        W37241  12.819  13.926   4.297 -0.0867  0.0531 -0.0484
22111W        W37242   9.139   9.506  12.485  0.1556 -0.0410 -0.0739
22112W        W37243   6.316  11.908   4.625 -0.1259  0.1462  0.2379
22113W        W37244   2.526  16.901  12.346 -0.0780  0.1011 -0.0020
22114W        W37245  11.428  11.567  13.198  0.3249  0.0706  0.0492
22115W        W37246   2.451   1.357   5.693 -0.0307 -0.1178 -0.1371
22116W        W37247   0.965  17.746   1.202 -0.2153 -0.2559 -0.1716
22117W        W37248  10.634  11.333   4.893  0.1759  0.0935 -0.2290
22118W        W37249   0.240  11.893  14.640  0.1446 -0.2285 -0.0320
22119W        W37250   4.199   1.284   0.535  0.2576 -0.0684 -0.1601
22120W        W37251   8.078   1.111  11.496  0.0183 -0.2580 -0.1011
22121W        W37252   6.732  16.754  13.248 -0.1440  0.0658 -0.1596
22122W        W37253  11.343   5.283  11.756 -0.0255 -0.3279 -0.0745
22123W        W37254   9.702  15.732   3.673  0.3058  0.0180 -0.0176
22124W        W37255   5.751   7.756  11.101 -0.1408  0.0784  0.0013
22125W        W37256  14.844   8.753  11.332  0.0998 -0.0732 -0.2738
22126W        W37257  16.385  11.227  11.464 -0.1932  0.1193 -0.2431
22127W        W37258  18.080   9.978  10.419  0.1300 -0.0081 -0.6376
22128W        W37259  15.918   5.123  13.597 -0.0092 -0.0045  0.3370
22129W        W37260   1.596   4.352  12.116  0.2931  0.0679 -0.1053
22130W        W37261  15.850   9.492   2.020 -0.0441 -0.2856 -0.1953
22131W        W37262   4.997  14.400   2.548 -0.1192  0.0813 -0.2190
22132W        W37263  13.047  13.317   5.355  0.1789  0.1356 -0.1544
22133W        W37264  17.625  12.077  10.760 -0.3378 -0.5887  0.5377
22134W        W37265   2.808  10.593  15.141  0.0843  0.0773  0.1855
22135W        W37266  15.843  15.199  12.369 -0.2836 -0.2193  0.0552
22136W        W37267   7.381  13.534  11.698  0.2018  0.0786  0.0432
22137W        W37268   5.260  11.858   1.908  0.1548 -0.0264 -0.2018
22138W        W37269   2.895   8.964  14.430 -0.3724 -0.0468 -0.0605
22139W        W37270   7.697  10.088  13.067 -0.0659  0.0196  0.1215
22140W        W37271   8.755   4.356   1.700  0.2299  0.0035 -0.4091
22141W        W37272  14.314  15.192   4.053  0.2581  0.2347 -0.3090
22142W        W37273   3.033   3.964   1.739  0.0715  0.2707 -0.0887
22143W        W37274   3.661   4.708  13.084 -0.2288 -0.3820 -0.2733
22144W        W37275   6.239  16.681   0.133  0.0152  0.0640  0.0923
22145W        W37276   3.926  10.947  13.905 -0.0118  0.0807  0.1610
22146W        W37277  14.572  16.718  12.174  0.3601 -0.1519  0.1000
22147W        W37278  13.717  13.737   4.118  0.0816 -0.0183  0.0516
22148W        W37279   4.682  14.270   1.167  0.1743  0.0239  0.0893
22149W        W37280  16.480  13.058   0.125  0.0204 -0.1044  0.3796
22150W        W37281   5.204   4.734   4.752 -0.0417 -0.0322 -0.2814
22151W        W37282   3.961   0.580   1.514  0.2097 -0.1829 -0.2745
22152W        W37283   7.594  15.257   2.038 -0.0954  0.0671  0.0458
22153W        W37284   4.909   7.274  10.745 -0.0174  0.1500  0.0255
22154W        W37285   5.399   9.698   1.057  0.1683  0.0591 -0.1467
22155W        W37286  17.410  15.120  15.556 -0.8280 -0.1257 -0.1533
22156W        W37287   9.348   7.941   0.647  0.0027  0.0584 -0.0748
22157W        W37288   3.941   3.594  15.297  0.1496  0.2023  0.1482
22158W        W37289  11.017  13.516   0.915  0.1948 -0.0326  0.1549
22159W        W37290   3.968  15.589  13.489  0.0048  0.1015  0.2183
22160W        W37291  16.731   2.016  11.362 -0.1995  0.1980  0.0633
22161W        W37292   5.142   6.251   1.407  0.3321 -0.2811 -0.1102
22162W        W37293   1.086  15.654  15.721  0.3543  0.3475  0.2113
22163W        W37294   6.328  16.986   1.134  0.0743  0.0035  0.2936
22164W        W37295  10.322   8.202  10.622  0.1391 -0.1763  0.0934
22165W        W37296   9.479  14.447   3.515  0.2715 -0.1171 -0.1565
22166W        W37297  13.514   8.024   1.795  0.1082  0.0198  0.0647
22167W        W37298  13.509  16.267   5.208 -0.1597  0.2111 -0.1967
22168W        W37299   4.279  11.635   3.059  0.2758 -0.3025 -0.2423
22169W        W37300   8.661  17.684   5.621 -0.3620  0.0343  0.2033
22170W        W37301   5.857  18.011   3.806  0.1713 -0.0194 -0.2318
22171W        W37302   2.078   3.670   2.448 -0.1567  0.0300  0.2612
22172W        W37303   2.376   0.662  15.038 -0.0547 -0.3283 -0.2756
22173W        W37304   0.154  15.827   4.204 -0.1352 -0.0897  0.1462
22174W        W37305   8.698   9.644  11.538  0.1689  0.4637 -0.0454
22175W        W37306   1.699   0.159  14.573 -0.1959 -0.2710  0.0314
22176W        W37307  15.244   2.570  14.060  0.0863 -0.1727 -0.1724
22177W        W37308   7.928   3.977   4.879  0.0856 -0.2111 -0.1854
22178W        W37309   8.308  14.303   2.034  0.1150 -0.1451 -0.1845
22179W        W37310  13.423   5.173   1.331 -0.1178  0.0380  0.1723
22180W        W37311  15.046   5.341   4.521  0.0798 -0.1335 -0.1267
22181W        W37312  10.039  12.439  11.120  0.0371  0.1986  0.0068
22182W        W37313  17.312  11.873   0.162 -0.0371 -0.0250 -0.2126
22183W        W37314  15.528  13.983  11.881  0.0695  0.1402 -0.1619
22184W        W37315   7.982  11.588  11.921  0.1283  0.0436  0.0278
22185W        W37316  14.761   6.296   0.490 -0.3376  0.0671  0.0337
22186W        W37317  10.334  14.810  11.686  0.0485 -0.1255 -0.0461
22187W        W37318   4.370   4.708  11.711  0.1451  0.1215 -0.1804
22188W        W37319  17.730   4.761   3.916 -0.1191  0.0342 -0.1474
22189W        W37320   2.619   4.490   4.238 -0.1431 -0.1578  0.0334
22190W        W37321   5.388  15.191  15.963  0.0939  0.2488  0.2393
22191W        W37322  15.309   7.331   5.189 -0.1762 -0.0992 -0.0488
22192W        W37323   5.374  14.807  14.974 -0.1803  0.1163 -0.1239
22193W        W37324   3.309   2.879   4.917  0.2051  0.1548  0.2174
22194W        W37325   1.727   7.761   4.322  0.0826  0.0382  0.1349
22195W        W37326   9.725  17.443  13.033  0.0784  0.1636 -0.2143
22196W        W37327   1.902   7.227  13.434 -0.0185  0.1978 -0.0290
22197W        W37328  15.885   9.692   4.346 -0.2897 -0.0099  0.2611
22198W        W37329  13.738  13.164  12.162 -0.2407 -0.1223  0.1468
22199W        W37330  16.452  10.661  15.198  0.0020  0.3012  0.0430
22200W        W37331   0.635  10.753   2.987 -0.0260 -0.2248 -0.1066
22201W        W37332   3.125  13.861   5.247  0.0638  0.4261 -0.3592
22202W        W37333   2.714   2.968   5.612 -0.0453 -0.0492 -0.1419
22203W        W37334  14.560   2.681  12.792  0.0372 -0.0366  0.2280
22204W        W37335  16.938   2.035   3.915 -0.1851 -0.1557 -0.2197
22205W        W37336   9.463   3.463  12.903  0.1891  0.1605 -0.0765
22206W        W37337  10.279  13.256  10.861  0.2581 -0.1239 -0.0585
22207W        W37338   9.269   8.743   3.259  0.0307  0.1445  0.0537
22208W        W37339  18.189   9.576  11.552 -0.1124 -0.0114 -0.0509
22209W        W37340  13.211  18.291  11.336 -0.1907  0.1619 -0.0862
22210W        W37341   2.525  10.502   3.165 -0.0444 -0.1226 -0.2884
22211W        W37342  13.609  12.156  10.536  0.0583  0.0683  0.1000
22212W        W37343   7.820   0.266   0.149  0.0337 -0.2309  0.2053
22213W        W37344   8.209   1.731  15.920  0.2587 -0.1768 -0.1563
22214W        W37345   8.133  10.839   0.212  0.1249  0.2502  0.1660
22215W        W37346  18.304   1.530  14.939 -0.2104 -0.3232 -0.0566
22216W        W37347   9.812  14.141   5.128  0.0083  0.1405  0.1154
22217W        W37348  13.770  17.467   4.491 -0.1317  0.0474 -0.0598
22218W        W37349  11.003   1.205   4.920 -0.2676 -0.1543  0.1707
22219W        W37350  17.989   9.615   0.487 -0.0043  0.2261 -0.1697
22220W        W37351   3.647   8.754  16.051  0.3072 -0.0231  0.4109
22221W        W37352   0.243  16.918   1.794  0.2658  0.1815  0.5139
22222W        W37353   2.839  13.291   2.562  0.0531  0.0629 -0.1198
22223W        W37354  16.441   7.053   1.306 -0.0271  0.2236  0.0382
22224W        W37355  17.204   1.394  13.181  0.0001  0.1746 -0.1671
22225W        W37356   9.208   0.100  15.148 -0.4190  0.1138  0.3978
22226W        W37357  15.520  16.394   0.893  0.0798 -0.1347 -0.2675
22227W        W37358  10.209   8.165  12.514 -0.1579 -0.4327 -0.0728
22228W        W37359   7.312   6.312  11.225  0.1188  0.0305 -0.1596
22229W        W37360   7.316   3.386  15.679 -0.6105  0.2324 -0.1026
22230W        W37361   3.316  15.836  15.526  0.1749 -0.1674 -0.1513
22231W        W37362   4.837  17.116  14.843  0.4288 -0.0729  0.1352
22232W        W37363   5.856  16.966  13.461 -0.0437  0.0649  0.0145
22233W        W37364   2.711   0.458   4.917  0.2521 -0.0723  0.1808
22234W        W37365   8.711  10.571   1.656  0.0085 -0.0794 -0.2191
22235W        W37366  15.672  12.192  11.966 -0.1904  0.2213 -0.1368
22236W        W37367  11.865  17.849  10.247 -0.5708  0.1785 -0.0900
22237W        W37368   9.134   3.767   3.387  0.1016  0.0870  0.0186
22238W        W37369   2.930   7.354  13.968  0.1725  0.2090  0.1740
22239W        W37370  16.255   6.427   1.962 -0.0643  0.3756  0.0435
22240W        W37371  10.978   9.659   1.909  0.0022  0.0364  0.2477
22241W        W37372  12.344   9.234  13.994  0.0886  0.0283 -0.2555
22242W        W37373   3.239  13.228   2.191  0.0041 -0.1141  0.1968
22243W        W37374  12.972   2.744  14.576  0.0605 -0.0316  0.0671
22244W        W37375   0.972   4.327  15.111 -0.0534 -0.0139  0.1540
22245W        W37376  16.861   0.393   5.987  0.0945 -0.0954 -0.2319
22246W        W37377  17.209   0.601  13.132 -0.1850 -0.0095 -0.0976
22247W        W37378  11.141   2.469   4.511  0.1746  0.1084  0.0425
22248W        W37379  10.165   5.044   0.325  0.0476  0.1109  0.1930
22249W        W37380   5.519   5.906  13.823 -0.0169  0.1437 -0.1971
22250W        W37381   0.888   7.966   2.224 -0.0045 -0.0291  0.2887
22251W        W37382  16.698   4.493   0.408 -0.2585 -0.2541 -0.1396
22252W        W37383  15.605   5.185  15.715  0.1176  0.0027  0.0831
22253W        W37384  10.518   9.447   0.165 -0.1037 -0.2100 -0.3899
22254W        W37385  13.992  16.371  14.561  0.2024 -0.1453 -0.1677
22255W        W37386  11.649  13.934  13.218 -0.1839  0.3839 -0.2287
22256W        W37387   4.282  11.669   2.482  0.1363 -0.1662 -0.0888
22257W        W37388  15.343  15.115   3.138 -0.1938  0.1847  0.1238
22258W        W37389  12.049   9.457  11.131  0.0764 -0.0884  0.2115
22259W        W37390   5.454  10.859   1.434 -0.0193  0.0514 -0.2155
22260W        W37391   4.822   2.898   2.656 -0.1233  0.1758 -0.2708
22261W        W37392   4.999  13.989  12.127  0.1502  0.0492  0.0823
22262W        W37393   8.195  17.472   5.505 -0.0965  0.1385  0.0663
22263W        W37394   3.576   3.039  11.579  0.0081  0.1534  0.2451
22264W        W37395   2.420  16.940   0.404  0.0098 -0.2497 -0.2415
22265W        W37396  13.229  17.704   4.763  0.2782 -0.2014 -0.1000
22266W        W37397   9.393   7.602  12.660  0.3287 -0.2816  0.0182
22267W        W37398  13.248   6.863   4.045  0.0592  0.1696  0.2936
22268W        W37399  16.092   0.460   5.903  0.1538 -0.1513 -0.0227
22269W        W37400   1.997   1.051  13.919 -0.0863  0.0593 -0.2569
22270W        W37401  11.737   7.508   4.191  0.1570  0.2246 -0.1952
22271W        W37402   0.587   6.414  15.594 -0.1290  0.1472 -0.0297
22272W        W37403   6.096   0.554  12.672 -0.1841  0.1404  0.1087
22273W        W37404   9.320  10.804  13.691  0.1664 -0.0733 -0.1521
22274W        W37405   5.322  11.097  11.290  0.2660 -0.0489  0.0168
22275W        W37406   9.702   4.682  11.430 -0.3791  0.1363  0.1091
22276W        W37407  16.796   0.383   4.346 -0.1057  0.3705 -0.1133
22277W        W37408   1.699   0.186   0.572 -0.0497  0.0195 -0.1067
22278W        W37409   9.392  11.429   0.379 -0.2478 -0.0589  0.1188
22279W        W37410   3.424  17.109   2.874 -0.0153 -0.0272  0.1348
22280W        W37411  16.989  10.058   3.531  0.2173  0.2135  0.0399
22281W        W37412  16.366  12.451   3.582 -0.1000 -0.1343  0.1084
22282W        W37413   9.936   8.669  14.154 -0.0562 -0.0637  0.0602
22283W        W37414  18.306  14.070  10.701 -0.0685  0.1693  0.2547
22284W        W37415  12.607  12.172  15.603  0.1671  0.1582  0.4837
22285W        W37416   9.140   3.259   0.575 -0.0003  0.1808 -0.1598
22286W        W37417  17.028  11.605   2.141  0.4000 -0.0466  0.0835
22287W        W37418   9.195  17.987  11.576  0.0075 -0.0775  0.1398
22288W        W37419  13.453   9.775   3.607  0.2785 -0.1977  0.0292
22289W        W37420   9.702   3.069  15.913  0.0420  0.2044 -0.0794
22290W        W37421  14.775   6.612  14.815  0.1827  0.0509 -0.1719
22291W        W37422   0.848   3.976  11.120  0.0919  0.2706  0.0677
22292W        W37423   8.451   0.422   1.364 -0.1580  0.2052 -0.2194
22293W        W37424  10.790  12.838   2.757 -0.0721 -0.1367 -0.3292
22294W        W37425  12.435   5.948  12.203  0.2147 -0.1783 -0.0873
22295W        W37426   5.646   8.553  10.799  0.0001 -0.1673  0.2251
22296W        W37427  12.852   3.877  14.267  0.0294  0.2057 -0.1470
22297W        W37428  12.820  16.383  15.825  0.0069 -0.1866 -0.1484
22298W        W37429  11.000   4.598  14.862 -0.1002  0.1810 -0.1408
22299W        W37430  10.201  17.787  13.668  0.4217  0.1119  0.0332
22300W        W37431  11.089  10.039   3.283 -0.0805 -0.0329  0.1522
22301W        W37432  14.256   5.489  12.950 -0.0427  0.0802 -0.1403
22302W        W37433   8.580   0.176   2.624  0.1025 -0.0328  0.2177
22303W        W37434   4.069  10.750  15.767 -0.0586 -0.0735  0.2435
22304W        W37435  15.961   3.425   0.965 -0.3678  0.1047  0.0307
22305W        W37436   7.731   3.683  15.829  0.4950  0.3000 -0.1749
22306W        W37437  13.873  13.006   4.282  0.1022  0.0183  0.1779
22307W        W37438   2.387   9.363   1.654 -0.3608  0.2470 -0.0070
22308W        W37439  11.684   4.535  11.256  0.1587 -0.5208 -0.2938
22309W        W37440   8.049  15.401   0.252  0.1605 -0.3259  0.1618
22310W        W37441  17.059   3.504  14.733  0.0337 -0.0332  0.0386
22311W        W37442   0.674   2.150   2.541 -0.0771  0.0992 -0.1406
22312W        W37443   3.348   4.106  14.503  0.0064  0.3750 -0.3750
22313W        W37444   7.293  13.630   1.108  0.0166  0.3845 -0.0131
22314W        W37445  13.177  15.829   3.842 -0.2217 -0.4304 -0.4053
22315W        W37446  13.103   9.897   1.029  0.0400 -0.1843 -0.0416
22316W        W37447   8.638   6.503   5.419  0.1426  0.0609 -0.2936
22317W        W37448   6.819  12.249   2.285  0.2127  0.1474  0.0366
22318W        W37449  11.407   2.476   3.048  0.0999  0.2219 -0.1056
22319W        W37450  12.720  13.870  11.240 -0.1815  0.1295 -0.1480
22320W        W37451  12.095   0.812   2.457 -0.3946 -0.1565  0.2691
22321W        W37452  16.083   8.040   5.469 -0.2019  0.4282  0.1208
22322W        W37453   6.068   5.409  13.237  0.5342  0.0407  0.1091
22323W        W37454  17.854   2.009  14.175 -0.2868  0.2200 -0.0042
22324W        W37455   3.422  15.615   1.563  0.0551  0.0118 -0.1058
22325W        W37456   7.333  12.410  15.826 -0.1858 -0.3082  0.0302
22326W        W37457  11.281  10.155   0.739 -0.0284 -0.0519 -0.0678
22327W        W37458   3.253   7.877   2.061  0.0305 -0.2536 -0.1128
22328W        W37459  13.741   8.772   0.593  0.3240  0.2294  0.0901
22329W        W37460  17.248  14.015   5.444  0.3955  0.1662 -0.0502
22330W        W37461   2.396   0.710   2.779 -0.1636  0.0591  0.1964
22331W        W37462   1.098   4.302   4.160  0.1163  0.1636 -0.0795
22332W        W37463   2.724   6.706  13.204  0.1406 -0.0971 -0.0006
22333W        W37464   6.227   6.480   5.048  0.0823 -0.1251 -0.2058
22334W        W37465  11.454   8.385  15.994  0.3017 -0.1002  0.0342
22335W        W37466  14.967   4.149  11.478 -0.0249  0.3146  0.1132
22336W        W37467  13.115   1.787  10.571  0.3404  0.1976  0.0995
22337W        W37468  10.269   2.542  12.260 -0.0214  0.0202  0.1568
22338W        W37469   9.194  16.083   2.345  0.2621  0.0333  0.1170
22339W        W37470  11.524  12.268   4.609  0.2594 -0.3210 -0.2507
22340W        W37471  14.124   7.999   1.583  0.1971  0.0404 -0.0422
22341W        W37472   4.841  17.954  13.020 -0.2415 -0.0766  0.0113
22342W        W37473  16.148   3.098   5.050 -0.3133  0.0185 -0.1788
22343W        W37474   6.265  12.996   2.702  0.4261  0.0895 -0.1937
22344W        W37475   3.040  10.536   0.796  0.3276  0.0205  0.0381
22345W        W37476  15.632  16.556   4.163 -0.2215 -0.0767  0.1601
22346W        W37477   6.892  13.390   5.569  0.2904  0.1359 -0.0609
22347W        W37478  16.607  10.238   1.959 -0.2173  0.0730  0.0072
22348W        W37479   3.796  15.363  15.772 -0.2789  0.0885 -0.0170
22349W        W37480  16.856   7.829   2.392  0.0500 -0.2199 -0.0747
22350W        W37481   3.178   7.269  11.011  0.2401 -0.1743  0.0097
22351W        W37482  10.010   1.743  10.882 -0.1003  0.0016  0.2099
22352W        W37483   5.844   2.524  14.834  0.0466  0.1566  0.1238
22353W        W37484  10.064   6.501  14.425  0.2815 -0.0991  0.0817
22354W        W37485   5.638   8.454  13.221  0.2014 -0.0127 -0.0073
22355W        W37486   3.204   1.827  11.203 -0.2215 -0.3508  0.0194
22356W        W37487   5.737   5.108  10.926  0.0810  0.1662 -0.1504
22357W        W37488   9.441  16.903   4.867 -0.4141  0.2936  0.0643
22358W        W37489   8.358   8.567   4.889  0.0711 -0.2033 -0.0909
22359W        W37490   4.798  15.442   0.585  0.1485 -0.0416 -0.1446
22360W        W37491   7.104  12.699   2.326 -0.1700  0.0220  0.0384
22361W        W37492  14.340   3.114   2.093  0.0702  0.1371  0.1184
22362W        W37493   4.462   3.257   5.246  0.6368  0.1068  0.0086
22363W        W37494  14.030   5.784   0.332  0.0560 -0.1203 -0.3863
22364W        W37495  12.524   8.183   0.814 -0.0709 -0.2726 -0.2122
22365W        W37496   9.313   0.406  10.138  0.1421  0.0314  0.0534
22366W        W37497   6.973   5.426   3.015  0.0618 -0.1243 -0.0196
22367W        W37498  13.403  14.853  15.312  0.1742  0.1506 -0.2715
22368W        W37499   1.382  11.344  11.718 -0.2650  0.0144  0.2700
22369W        W37500   9.952   5.930  13.463  0.1795  0.1539  0.4696
22370W        W37501  17.673   3.042   3.335  0.1499 -0.2142 -0.1512
22371W        W37502  15.165   0.781   4.872 -0.2662 -0.0420  0.0458
22372W        W37503   6.060   4.039  12.001  0.0666 -0.0148  0.3948
22373W        W37504   1.465   5.098   4.404  0.0678 -0.0668 -0.2259
22374W        W37505   7.400   3.196  14.010  0.0130 -0.0214  0.0821
22375W        W37506   4.282  16.162   2.538  0.1636  0.0063  0.1214
22376W        W37507   1.345   4.975   2.380  0.0284 -0.0485 -0.0657
22377W        W37508   4.100   9.457   1.893 -0.4031 -0.1490  0.1450
22378W        W37509   1.136   4.695   4.420 -0.0090  0.1313 -0.1827
22379W        W37510   3.582   4.960  15.765 -0.1690 -0.0319 -0.1472
22380W        W37511   1.429   9.922   1.551  0.1103 -0.1554  0.2934
22381W        W37512   5.072  16.158  15.851 -0.1880 -0.2543 -0.0094
22382W        W37513  10.393  15.066   0.587 -0.0074 -0.3930 -0.2672
22383W        W37514   3.211   8.039   0.752  0.1692  0.3502  0.2030
22384W        W37515  15.272   4.677  15.011  0.0587  0.0288  0.0545
22385W        W37516   2.360  15.012  11.085 -0.1550 -0.1940 -0.0881
22386W        W37517   0.674  17.636   0.807  0.1197  0.0761  0.4721
22387W        W37518   5.529   3.245  12.344 -0.2190  0.2895 -0.1533
22388W        W37519  16.171  17.593  13.147 -0.0120 -0.0468  0.1238
22389W        W37520  10.166  18.259   4.843  0.1777 -0.4794 -0.0382
22390W        W37521   9.848   3.143  10.888  0.2909  0.1428  0.1172
22391W        W37522   7.441  12.558  15.330 -0.0620  0.0605  0.0514
22392W        W37523   4.980  15.715  12.387  0.2773  0.1317 -0.2680
22393W        W37524   5.881  12.263   2.499  0.0602  0.1833  0.0193
22394W        W37525  16.749   3.290   1.878 -0.1506 -0.0625 -0.0568
22395W        W37526   0.139  17.003  15.683 -0.0239  0.1509 -0.0532
22396W        W37527   9.314  12.615   5.052  0.0670 -0.0558 -0.2172
22397W        W37528  17.964  13.578  14.297 -0.0392  0.0065 -0.1927
22398W        W37529   4.485  16.037  15.704  0.1077 -0.2126  0.2056
22399W        W37530   0.635  11.071  15.996 -0.1343  0.3381  0.0215
22400W        W37531   4.497   3.903   3.896  0.0339 -0.4559 -0.1494
22401W        W37532  15.274  12.712  10.189  0.1023 -0.0121 -0.0982
22402W        W37533   4.538   9.920  14.759 -0.3232 -0.3086 -0.2639
22403W        W37534  16.160   7.486   1.296 -0.1015 -0.1066  0.0057
22404W        W37535   1.119  14.446   0.405 -0.3351  0.1825  0.2657
22405W        W37536   4.234  13.959   5.672  0.2132 -0.2948  0.0225
22406W        W37537   4.876  16.799  10.406 -0.0071  0.3579 -0.1720
22407W        W37538   5.340   5.275   2.231 -0.0021 -0.0404 -0.0418
22408W        W37539   4.467  13.800  15.501 -0.1152 -0.0795  0.0213
22409W        W37540  15.553   0.992   4.492  0.0459 -0.1144 -0.0406
22410W        W37541  14.990   3.637   2.775  0.1080 -0.0725 -0.0171
22411W        W37542  11.267   4.238  15.760  0.1619 -0.1013  0.1168
22412W        W37543  10.886   7.132  10.870 -0.0162  0.1901  0.1031
22413W        W37544  11.602   7.615  13.172  0.0814  0.2137  0.1767
22414W        W37545   3.411   6.794   2.837 -0.1093  0.2319  0.1944
22415W        W37546   0.426  12.686   5.415  0.3487 -0.0336 -0.0589
22416W        W37547   2.786   5.205  11.765 -0.0801  0.0358 -0.0032
22417W        W37548   4.287   0.381  15.924 -0.0759  0.3136  0.2650
22418W        W37549   1.138  13.808   1.591  0.2312  0.1783 -0.0491
22419W        W37550   9.495  11.198  12.520 -0.0765  0.0823  0.2914
22420W        W37551   7.411   0.725  13.832  0.2046  0.3205 -0.2194
22421W        W37552  10.952  13.374  15.958  0.0285 -0.0274 -0.0075
22422W        W37553   9.879   6.792   4.983  0.2429  0.1338  0.2004
22423W        W37554  10.094  15.076  15.997 -0.1702 -0.1270 -0.0905
22424W        W37555   8.226   9.415   9.922 -0.0235  0.0997 -0.0321
22425W        W37556   9.318   3.871  11.625 -0.2527  0.2463  0.1830
22426W        W37557  15.180   9.141  11.135  0.3265  0.2697  0.3728
22427W        W37558   5.050  12.208   0.536  0.2748  0.1378 -0.3414
22428W        W37559   2.202  10.034   1.130 -0.1127 -0.1360 -0.0753
22429W        W37560  13.169  13.977   1.118  0.2306 -0.2057  0.0724
22430W        W37561  16.569   6.374  14.773 -0.1317 -0.1701  0.0207
22431W        W37562  16.870  12.872   5.657 -0.1239  0.1674  0.2138
22432W        W37563  17.553   0.338  13.952  0.0394  0.2556  0.1042
22433W        W37564  14.830   0.933  14.208 -0.1603 -0.2539 -0.2884
22434W        W37565  10.060   3.040   9.577 -0.2582 -0.3641 -0.3198
22435W        W37566  10.507   2.850  15.604  0.3528 -0.0963  0.0121
22436W        W37567  13.550   9.642   4.105 -0.2891  0.2492 -0.1793
22437W        W37568  16.249   4.902   5.704 -0.0015 -0.0487  0.2493
22438W        W37569  16.832   7.218   0.950 -0.1314 -0.2436 -0.0323
22439W        W37570  12.074  13.671  15.346 -0.1081  0.0470  0.0236
22440W        W37571  11.432  14.322   5.248 -0.0189  0.0247 -0.1852
22441W        W37572   9.295  17.685  13.188 -0.1860 -0.0257  0.3752
22442W        W37573   2.882  11.062   4.231 -0.3239  0.0280 -0.0777
22443W        W37574   0.226  16.160   4.585 -0.2055 -0.1892  0.0284
22444W        W37575  17.208  16.970  13.213 -0.0910 -0.0645 -0.1524
22445W        W37576   0.653  14.008   1.610 -0.0606  0.0949  0.0438
22446W        W37577  16.712  10.122  13.835  0.3733  0.3853  0.2016
22447W        W37578  13.214   7.341  12.119  0.1279  0.3057 -0.1473
22448W        W37579  14.735   8.584   0.966 -0.0009  0.3055 -0.0247
22449W        W37580  17.431   0.807   3.556  0.1943 -0.0025  0.0647
22450W        W37581  15.916  15.660  13.894 -0.0199 -0.0452  0.0677
22451W        W37582   1.668   4.147  12.996  0.1033 -0.2826 -0.1855
22452W        W37583   4.469   7.021   1.471 -0.1693 -0.0747 -0.0628
22453W        W37584  10.551   3.970   1.209 -0.2895  0.0696  0.1139
22454W        W37585  16.513  11.800   1.311  0.2812  0.1468 -0.1179
22455W        W37586  10.833   1.480   1.845 -0.1389 -0.1596 -0.2468
22456W        W37587  16.039   4.767   4.126 -0.0876 -0.1785  0.1649
22457W        W37588   5.404  10.087   3.764  0.0343 -0.0515  0.1223
22458W        W37589  14.818  13.285   2.959  0.3778 -0.0900 -0.1419
22459W        W37590   3.277  11.526  13.483 -0.0633  0.0903 -0.0290
22460W        W37591   1.786  16.661  10.937 -0.0334 -0.3706 -0.0278
22461W        W37592   4.104   4.356  13.825 -0.0432 -0.1062  0.0485
22462W        W37593   0.991  12.003  13.890 -0.4299 -0.0995 -0.0391
22463W        W37594   0.899   7.559  16.107 -0.1633 -0.0103  0.0196
22464W        W37595  10.723   5.088   4.057  0.1641  0.0846  0.3650
22465W        W37596  17.993   1.663   0.681  0.0866 -0.2507  0.0234
22466W        W37597   5.425   0.951   5.604 -0.1367 -0.3520  0.0647
22467W        W37598   3.060  14.000  15.049  0.1166 -0.0244  0.0208
22468W        W37599  17.691  11.097   2.571  0.0042 -0.1375 -0.2069
22469W        W37600   4.743  15.384  15.287 -0.0253 -0.0050 -0.0196
22470W        W37601  13.801  12.368   0.242 -0.0640  0.1033  0.1554
22471W        W37602   5.333  16.052   3.846  0.1133 -0.0113  0.0276
22472W        W37603  14.973   5.917   5.559 -0.0750 -0.1648  0.3392
22473W        W37604   3.533  12.185  13.730  0.0980  0.2440 -0.0456
22474W        W37605  13.900  10.255   2.342 -0.0375  0.0780  0.4232
22475W        W37606  11.567   0.493  13.850 -0.1554  0.1913  0.4030
22476W        W37607  15.183  18.076   1.029  0.1911  0.0799  0.1947
22477W        W37608   6.823   1.309  15.074 -0.3736  0.0381  0.5263
22478W        W37609   7.566   0.762  14.970  0.1436 -0.0832  0.0180
22479W        W37610  16.596  10.581   1.221 -0.1927 -0.1247  0.0793
22480W        W37611  14.184  10.688   5.861  0.1490  0.2961  0.0359
22481W        W37612  13.316   9.412  13.518 -0.3813 -0.1411  0.0770
22482W        W37613   6.501   2.127   1.218  0.1277  0.0289 -0.0688
22483W        W37614  15.796  16.143   0.503 -0.0433 -0.1811  0.1501
22484W        W37615   0.276  13.856   2.768  0.1339 -0.0621  0.0623
22485W        W37616   7.161  12.156   1.504  0.0523  0.4001  0.0294
22486W        W37617   5.924   4.168   0.358 -0.0893  0.2058  0.0780
22487W        W37618  12.598   2.807   0.718 -0.0490 -0.2198 -0.0290
22488W        W37619   2.463  15.443  11.418 -0.0896  0.0068 -0.0076
22489W        W37620  10.827   0.287   4.147  0.0184 -0.0833  0.0778
22490W        W37621   5.758   5.504  13.600  0.0261  0.0312  0.0958
22491W        W37622  13.119  15.152  10.710  0.2388 -0.3035  0.2056
22492W        W37623  10.132   3.951  14.785 -0.1230  0.1581  0.3566
22493W        W37624  14.470   0.480  13.457  0.2390  0.2496  0.2959
22494W        W37625   7.964   0.675   1.579 -0.3029  0.1716  0.1928
22495W        W37626   5.308   9.475  14.354 -0.0686  0.0658  0.3221
22496W        W37627   5.962  15.666  12.995 -0.0309  0.0286  0.2330
22497W        W37628   9.320   4.759   1.171 -0.0241 -0.0763 -0.2116
22498W        W37629   4.560   8.620  14.165 -0.1934  0.2502 -0.2573
22499W        W37630   4.332   3.987  12.733 -0.0109 -0.1748  0.0802
22500W        W37631   8.337  17.263  10.052 -0.0882  0.0677 -0.2566
22501W        W37632   6.906  14.526  16.033  0.0311 -0.1736 -0.1065
22502W        W37633   1.328  13.209   3.550 -0.2274 -0.0703 -0.1150
22503W        W37634  13.101   8.910   1.910 -0.0708  0.0297  0.1170
22504W        W37635  15.264   6.241   2.355 -0.0344 -0.1178 -0.2310
22505W        W37636   2.838  17.427   1.562 -0.1211  0.0783  0.1396
22506W        W37637  15.243  16.500   9.824 -0.0911  0.0161  0.0050
22507W        W37638  15.503  17.592   1.076  0.0084  0.0541 -0.2032
22508W        W37639  16.858   5.889   1.291 -0.3320 -0.0159  0.0117
22509W        W37640  12.782   3.243   2.999 -0.1726  0.0051 -0.0342
22510W        W37641  13.989   1.777   5.918 -0.0351 -0.0231  0.0523
22511W        W37642  16.261   4.760  12.274  0.2639  0.1454 -0.0673
22512W        W37643  15.483   7.932  14.198 -0.0701 -0.1584 -0.2510
22513W        W37644  17.026   5.580  14.088 -0.0261  0.3228  0.0340
22514W        W37645  13.907   1.756  12.333 -0.2411  0.1479  0.0446
22515W        W37646  14.940  11.124   3.970  0.1201  0.3458 -0.2164
22516W        W37647  11.112   7.053   3.622 -0.0775  0.1378 -0.1172
22517W        W37648  14.388   8.960   0.046 -0.0164 -0.0674 -0.0283
22518W        W37649   7.356  13.661   0.164  0.0684 -0.1414 -0.0149
22519W        W37650   9.470   1.493   1.091 -0.0433 -0.1003  0.0977
22520W        W37651   1.262  15.878   4.003  0.1648  0.2471 -0.0308
22521W        W37652   4.743  17.652   5.442  0.0036  0.4306 -0.0947
22522W        W37653  17.257   3.808  12.438  0.3392 -0.2630  0.0247
22523W        W37654  13.460   7.760  15.759  0.1112 -0.1213 -0.2847
22524W        W37655  10.087  10.676  11.545  0.2659 -0.0430  0.1083
22525W        W37656   3.612  16.932  12.715  0.1771 -0.0095 -0.1360
22526W        W37657  17.761   6.232  13.838  0.0393 -0.0729  0.1794
22527W        W37658  15.510   5.262  12.737  0.1113 -0.0956 -0.1935
22528W        W37659  15.741   8.607  14.361 -0.1450 -0.2734  0.2816
22529W        W37660  10.918   8.162   2.981  0.1551 -0.4395  0.0123
22530W        W37661  11.474  12.539   3.218  0.3865  0.1101 -0.1896
22531W        W37662   2.687  13.008  15.614  0.0196  0.1507  0.0744
22532W        W37663  11.416  17.710  11.590 -0.4747 -0.0556  0.0437
22533W        W37664  15.085  10.335   1.146 -0.0042 -0.0605  0.0263
22534W        W37665  15.782   0.142   2.411 -0.0645  0.1044 -0.3334
22535W        W37666  14.618  17.410  15.926  0.5883 -0.0736 -0.0045
22536W        W37667   8.288   3.869  15.969  0.2543 -0.3853 -0.0122
22537W        W37668   2.450   9.873  12.696 -0.0462  0.3948  0.0620
22538W        W37669   9.009   3.695  15.630  0.0870 -0.1815  0.4786
22539W        W37670  15.808   8.114  16.075  0.0706 -0.0306  0.3575
22540W        W37671   2.036  14.876   5.881 -0.1145 -0.2127  0.0510
22541W        W37672   1.728   6.038   2.234 -0.1070 -0.1282 -0.1954
22542W        W37673  12.716  12.591   0.857  0.0400  0.3209  0.0617
22543W        W37674  16.718   0.626   2.065 -0.1514 -0.0157  0.3179
22544W        W37675  14.070   4.150  12.405  0.2060  0.0098  0.0780
22545W        W37676   0.019   0.898   1.605  0.3554 -0.1229 -0.1532
22546W        W37677  10.076  10.185  11.233 -0.0629  0.0393  0.0248
22547W        W37678   3.750  12.558  15.832  0.0966  0.1659  0.0978
22548W        W37679   0.318   3.851  12.641  0.5851 -0.2384  0.1788
22549W        W37680   4.832   9.096   3.005  0.1578  0.0068  0.0934
22550W        W37681   0.842  14.387  14.853 -0.0830  0.2315  0.1132
22551W        W37682   1.656  15.574  14.770 -0.1762  0.0259  0.3450
22552W        W37683   8.388   8.071   3.943  0.1328 -0.0847 -0.2795
22553W        W37684  18.303   9.036   4.484  0.1272  0.1827  0.0849
22554W        W37685   1.113  16.193   2.917 -0.3165  0.0742  0.4578
22555W        W37686  16.075   1.269  11.980  0.1730 -0.1322  0.3783
22556W        W37687   9.898  17.724   1.962 -0.2099  0.0154  0.2748
22557W        W37688   8.507  11.513  15.233  0.2478 -0.0043 -0.0360
22558W        W37689  11.493   1.966   4.412 -0.0992 -0.0588 -0.0475
22559W        W37690   2.342  12.849   6.135 -0.2253 -0.2610 -0.0542
22560W        W37691  14.837   3.250   2.037  0.1022 -0.3097  0.1757
22561W        W37692  14.521   3.715  13.899  0.0557 -0.1149 -0.0856
22562W        W37693  15.373  10.691   2.952  0.0391 -0.0634 -0.1692
22563W        W37694   2.678  13.293  12.298  0.0512 -0.2580 -0.1642
22564W        W37695   3.764   2.862   0.230 -0.1058  0.1485  0.2511
22565W        W37696   3.649   4.103  11.103 -0.4171  0.3533 -0.1459
22566W        W37697   5.399  12.939   4.550 -0.1286  0.5251 -0.2740
22567W        W37698  14.570   5.830  15.863  0.1190 -0.2700 -0.0905
22568W        W37699  15.976   6.890   0.510 -0.3160  0.0536  0.0567
22569W        W37700   5.965  12.687  15.868 -0.0734 -0.1893 -0.0163
22570W        W37701  11.675  12.757   2.397 -0.0525 -0.0650 -0.0126
22571W        W37702   6.997   2.169  11.530 -0.1701 -0.0923 -0.1693
22572W        W37703  17.736   5.563  12.703 -0.0887  0.0631 -0.0307
22573W        W37704  17.985  13.536  15.280  0.0515  0.0932 -0.1320
22574W        W37705  13.276  10.712  14.579 -0.1069 -0.0490 -0.2112
22575W        W37706   2.670   9.276  13.028 -0.0695  0.0591 -0.1378
22576W        W37707   1.746  11.457   5.007 -0.3140 -0.0498 -0.1529
22577W        W37708   1.288  16.311  10.549  0.3715 -0.0624 -0.5002
22578W        W37709   2.873  10.101  13.574  0.0450  0.0471  0.2952
22579W        W37710  12.681   6.975   5.108 -0.0460 -0.2090 -0.0609
22580W        W37711  12.489  11.215  15.814  0.1744  0.3633  0.1580
22581W        W37712   6.453  14.913   3.484  0.0825 -0.0825 -0.2991
22582W        W37713   5.062   2.908  12.451 -0.0974  0.0489 -0.1034
22583W        W37714   1.549  11.589   4.509  0.0681  0.1443  0.0609
22584W        W37715  18.036  13.738  13.793 -0.1006 -0.2777 -0.2965
22585W        W37716   9.077  15.731   4.455  0.3061  0.0286  0.3401
22586W        W37717   2.184   8.255   2.510 -0.0418  0.0586  0.1598
22587W        W37718  13.571  10.165   2.746  0.0180 -0.1070  0.1231
22588W        W37719   4.554  16.684  13.882  0.0630  0.4085 -0.1572
22589W        W37720  15.705   9.315   0.378  0.2485 -0.0169  0.2351
22590W        W37721   3.858  13.731  12.135 -0.1207 -0.0282  0.0907
22591W        W37722   2.168  15.568  14.879 -0.0880  0.2219 -0.1900
22592W        W37723   8.686   1.267   5.554  0.0273  0.0685 -0.2277
22593W        W37724  14.486   1.854   1.388  0.1772 -0.0561 -0.2653
22594W        W37725  17.280   5.848  15.995 -0.0119  0.0623 -0.0500
22595W        W37726   9.684   3.847  14.462 -0.0763  0.0321  0.0696
22596W        W37727  10.289   7.981  14.105 -0.1918  0.2689 -0.0734
22597W        W37728  14.550  17.427  13.552 -0.1226 -0.5814  0.0052
22598W        W37729  13.548   6.726   0.430 -0.2027 -0.2250 -0.1601
22599W        W37730   1.454  10.562  13.892  0.0550 -0.0647  0.1209
22600W        W37731  14.390   0.988  13.544  0.1887  0.0535 -0.1601
22601W        W37732   4.066  10.189  10.822 -0.5091  0.3083 -0.2595
22602W        W37733  13.885   3.880   3.481  0.3936 -0.3459 -0.0360
22603W        W37734  14.096  11.970  16.012  0.0649  0.4456  0.0950
22604W        W37735  18.008   3.835  15.210 -0.3271  0.0130 -0.2672
22605W        W37736  12.025   3.858   0.372  0.1544 -0.1057  0.0213
22606W        W37737   9.430   0.708   1.757 -0.0380 -0.0026 -0.0371
22607W        W37738   3.713   5.083   4.522 -0.0903  0.0425  0.0541
22608W        W37739  17.126   7.636   1.203 -0.0003 -0.3552 -0.1627
22609W        W37740  13.224  15.321  12.568 -0.0757 -0.3057 -0.0421
22610W        W37741  16.346   6.925  11.666  0.0299  0.2021 -0.1207
22611W        W37742  11.614  15.097   1.931  0.2674  0.0861  0.2613
22612W        W37743   3.525   5.523   1.577  0.1242 -0.0278 -0.1257
22613W        W37744   4.889   8.073   2.776 -0.1263 -0.4663 -0.3128
22614W        W37745  14.401  15.266  14.707 -0.2245  0.0273 -0.0928
22615W        W37746   4.384   0.902  13.324  0.3911  0.3629  0.0737
22616W        W37747   0.108  16.411  13.968 -0.0668  0.0571 -0.0919
22617W        W37748  11.718  16.183   2.873 -0.0813 -0.3599  0.1095
22618W        W37749   7.912  13.502  13.863 -0.2985 -0.1230  0.0009
22619W        W37750  16.058   0.078  16.063  0.0231 -0.0380  0.0183
22620W        W37751  10.077  10.758   1.746  0.4119  0.1342 -0.0061
22621W        W37752  17.671   7.744  12.601  0.0052  0.1575 -0.2006
22622W        W37753  10.391   1.499   1.178  0.1367  0.1031 -0.2156
22623W        W37754  13.712   0.938  14.476 -0.2961  0.0679 -0.3644
22624W        W37755  16.910   6.820   1.433  0.5291  0.3582 -0.3750
22625W        W37756   3.929  11.429  14.973  0.0115  0.1138  0.0522
22626W        W37757   5.317   0.217   2.439  0.1252 -0.1777  0.2012
22627W        W37758   9.883   7.889   0.837 -0.4755 -0.0236 -0.0804
22628W        W37759  17.191   8.939  15.892  0.0195  0.3160  0.2406
22629W        W37760   1.207   2.356  12.895 -0.3204  0.0732 -0.0785
22630W        W37761   3.991  15.303  11.345  0.2154  0.0431  0.2702
22631W        W37762  17.098  11.641  15.397 -0.3366  0.0392  0.0269
22632W        W37763   4.065  17.300   2.114 -0.0236 -0.2459 -0.0005
22633W        W37764  14.091  15.107  15.069 -0.1790 -0.1923 -0.0788
22634W        W37765   5.766  10.712   1.873 -0.0722 -0.0279  0.0469
22635W        W37766   1.281   5.933   1.974  0.0387  0.0251  0.0971
22636W        W37767  14.634  15.811  13.066 -0.0459 -0.1562  0.0326
22637W        W37768   1.489   2.194  12.289 -0.1920 -0.1733  0.1225
22638W        W37769   7.301  10.179  11.611  0.1027 -0.2207  0.2048
22639W        W37770   1.471   7.104  13.076 -0.1763 -0.1669 -0.0976
22640W        W37771  13.265  13.001   1.277 -0.0332 -0.0511 -0.0701
22641W        W37772  13.596   8.665  12.227  0.1818 -0.7041  0.0700
22642W        W37773   9.220   4.275   5.438 -0.0111 -0.1640 -0.2321
22643W        W37774   6.522  12.237  15.396  0.1326 -0.2271 -0.4321
22644W        W37775   2.008   3.750  13.858  0.0577  0.1147 -0.1368
22645W        W37776  11.002  11.813  13.554  0.1509 -0.1978  0.3181
22646W        W37777   8.643   9.448   2.768 -0.0020 -0.0966 -0.0379
22647W        W37778   4.465  10.526  15.939 -0.1273 -0.1396  0.0302
22648W        W37779   9.259   1.273  14.614  0.3070  0.0768 -0.2130
22649W        W37780  11.200  17.113   2.903  0.0194  0.1342 -0.2251
22650W        W37781  16.047  13.265  15.368  0.0920 -0.0944 -0.2794
22651W        W37782   2.485  11.106   2.396  0.1334 -0.2223 -0.1133
22652W        W37783   9.841   8.108   0.391  0.0336  0.1590 -0.4974
22653W        W37784   2.972  12.365   2.620  0.2611  0.0102  0.0354
22654W        W37785  16.791  13.739   5.656  0.0769  0.0800  0.2482
22655W        W37786  17.739  13.918   3.810 -0.1893 -0.0968 -0.1859
22656W        W37787   0.873  15.470   4.073 -0.0039 -0.0942  0.2067
22657W        W37788   8.278  10.786  14.152 -0.1370  0.0086  0.0502
22658W        W37789   4.466  13.601  12.720 -0.0230 -0.0762  0.2761
22659W        W37790   4.713  11.735  12.582 -0.1984  0.0348  0.0197
22660W        W37791  14.288  16.136  12.898  0.0875  0.0730 -0.0409
22661W        W37792  12.966   7.333  13.132  0.1503  0.3746  0.3498
22662W        W37793  14.464   1.795   0.300  0.3136  0.2322  0.0892
22663W        W37794   8.062   6.018   1.786 -0.2410 -0.1083 -0.0819
22664W        W37795  12.012   7.495   2.831 -0.0289  0.0353 -0.3024
22665W        W37796  17.738  11.508  12.076  0.3475  0.2278 -0.0800
22666W        W37797   1.917   3.928   3.584 -0.2987 -0.1481  0.1090
22667W        W37798  12.572   2.094   5.266  0.0399 -0.0059  0.3676
22668W        W37799   4.483   8.145   2.372 -0.3664  0.0111  0.0542
22669W        W37800   6.776   0.708  14.984 -0.0641 -0.1417 -0.1828
22670W        W37801   1.671   8.351  12.049 -0.2026 -0.1564 -0.0916
22671W        W37802  17.769   5.967  12.979 -0.1966 -0.0043 -0.1942
22672W        W37803   7.533   6.972  14.534  0.0996 -0.0096 -0.0389
22673W        W37804  17.982  13.154  14.646 -0.0183  0.0669 -0.2000
22674W        W37805  11.743   0.865  12.296 -0.2973  0.0696  0.3524
22675W        W37806  12.440   6.870  14.771  0.0296 -0.0336  0.0222
22676W        W37807   2.655  14.761  15.852  0.0582  0.0583 -0.0970
22677W        W37808   6.374  16.179   4.743 -0.2166  0.2262  0.2115
22678W        W37809  11.183  13.558  13.110 -0.0273  0.2079  0.2542
22679W        W37810  12.058  17.731   4.919 -0.1840  0.0590 -0.2259
22680W        W37811  10.630  13.820   1.913 -0.3209  0.4347  0.1454
22681W        W37812   5.417   0.901  11.846 -0.2183 -0.0890  0.1694
22682W        W37813  14.939  18.276  15.094 -0.2067 -0.1289  0.0012
22683W        W37814   9.485   5.892   3.972 -0.2749  0.0325 -0.0609
22684W        W37815   6.675   8.385   0.330 -0.0441 -0.0726  0.2271
22685W        W37816   2.395  12.923  13.784  0.2458  0.0374 -0.0296
22686W        W37817   9.838   7.134   3.535  0.3305  0.0861 -0.0149
22687W        W37818  10.672   2.751   6.030 -0.0994  0.2413 -0.3047
22688W        W37819   5.779  12.747   0.217  0.2549 -0.2193  0.0969
22689W        W37820  13.449  14.205  12.871 -0.1921  0.0907  0.2876
22690W        W37821   6.874   6.790  12.165  0.0961 -0.2297  0.1373
22691W        W37822  15.863   8.413  13.891 -0.2111  0.0508  0.0165
22692W        W37823  13.780   6.330  12.748  0.2693  0.0228 -0.0394
22693W        W37824   8.802  11.000  16.101 -0.1020  0.0785  0.0860
22694W        W37825  10.690  15.164  13.709 -0.0934 -0.0230  0.3581
22695W        W37826   8.557   4.928  11.216  0.1034 -0.0662 -0.0857
22696W        W37827  10.721  16.221  11.801  0.3003 -0.0504  0.4185
22697W        W37828  15.459   4.525  11.719  0.1940  0.2649  0.0437
22698W        W37829  12.781  14.337   2.795 -0.1867 -0.1006 -0.1503
22699W        W37830  11.478  11.281  10.654 -0.1982  0.0671  0.0308
22700W        W37831  15.467   6.333  11.600 -0.2442 -0.2246  0.0385
22701W        W37832   2.142   4.885   5.747  0.0573  0.0427 -0.0692
22702W        W37833  10.888   2.923  10.002  0.0950 -0.2214 -0.3876
22703W        W37834  14.572   7.209   4.617 -0.0100 -0.0433 -0.2519
22704W        W37835   5.545   6.366   1.735  0.1395 -0.1370  0.0596
22705W        W37836  17.027   9.445   4.977 -0.2532  0.2368  0.0324
22706W        W37837  17.064   6.343   1.277 -0.0781 -0.1000  0.1756
22707W        W37838  13.263   4.187  14.503  0.1054  0.1282  0.0208
22708W        W37839  15.846  11.320   0.903  0.0214  0.0038 -0.1813
22709W        W37840  16.369   5.869  15.657  0.1994 -0.1804 -0.0402
22710W        W37841   5.761   0.056  14.230 -0.0599  0.0346 -0.4050
22711W        W37842  14.100  11.942   5.962 -0.2332  0.2229 -0.0553
22712W        W37843  16.800  16.843   3.278 -0.0808  0.1743 -0.0568
22713W        W37844   9.978  12.317   2.592  0.4792 -0.0018 -0.0029
22714W        W37845  13.392  17.992  14.799  0.3040 -0.1314 -0.0077
22715W        W37846  10.120  17.528   5.211  0.0963 -0.3743 -0.0769
22716W        W37847  11.310  12.558   2.004  0.1771 -0.1530 -0.3005
22717W        W37848  10.495   8.650  11.761 -0.2639 -0.0612 -0.1978
22718W        W37849  11.076   4.229   1.248  0.0924 -0.0892 -0.0477
22719W        W37850  16.341   3.057   1.143 -0.0807  0.2205  0.0556
22720W        W37851   1.675   3.571  14.478 -0.2079 -0.0954 -0.0879
22721W        W37852  15.413  13.451   2.054  0.0160  0.1012  0.2879
22722W        W37853   4.823  10.622   5.160  0.3057 -0.0422 -0.1078
22723W        W37854   2.119   8.229  12.190 -0.1959 -0.0780 -0.0129
22724W        W37855  11.332  18.317  13.741  0.0791  0.2548  0.2869
22725W        W37856   4.569   1.029   2.056  0.0615 -0.1364 -0.1974
22726W        W37857   4.021   4.067   3.849  0.2945  0.1201  0.0800
22727W        W37858  15.075  11.401  12.707  0.2216 -0.1691 -0.0595
22728W        W37859   6.137  18.282   2.558 -0.1608  0.2014 -0.1458
22729W        W37860  17.542   6.287  15.977 -0.0691 -0.2358 -0.0918
22730W        W37861  12.975   0.364  12.070 -0.1708  0.0151  0.1634
22731W        W37862   8.379  11.156   2.214 -0.2750 -0.1965  0.0338
22732W        W37863   1.594  14.796   5.662  0.1161  0.0484 -0.1370
22733W        W37864   9.634  11.619   3.711  0.2419 -0.0604  0.2302
22734W        W37865  10.330  13.647   0.921  0.0007 -0.1279  0.0871
22735W        W37866  18.239   0.220   0.998  0.2629  0.2392  0.1760
22736W        W37867   6.680  10.896  11.536 -0.1932 -0.0002 -0.2076
22737W        W37868  16.589   6.965  14.867  0.0291  0.1324 -0.1052
22738W        W37869  13.353  12.110  14.100  0.0178  0.3545  0.0082
22739W        W37870  16.856  10.103  11.580  0.0790  0.1993  0.1434
22740W        W37871   0.943  15.488   6.226 -0.0818  0.0652 -0.1600
22741W        W37872   5.371  13.843   0.010 -0.0110  0.3173  0.2623
22742W        W37873   5.692  16.160  13.229 -0.2929  0.0241  0.2292
22743W        W37874   1.092  16.590   5.249 -0.0983  0.0191  0.0034
22744W        W37875   0.242  11.071  10.760  0.0237  0.0429  0.0491
22745W        W37876  10.611   8.241  13.812  0.1793  0.1047 -0.0331
22746W        W37877   5.122   3.753  11.549  0.3260 -0.0523  0.2335
22747W        W37878  15.305   2.072   5.578  0.1439  0.2100 -0.1189
22748W        W37879  16.508   4.537  15.601 -0.0154 -0.1424  0.1398
22749W        W37880   6.563   3.321   4.401  0.2713  0.1628  0.0912
22750W        W37881   9.854  10.250  11.729 -0.0969  0.0511  0.3313
22751W        W37882  17.755   7.241  14.603 -0.1714 -0.0834 -0.3988
22752W        W37883   8.563   8.303   0.077 -0.3191  0.0599  0.1611
22753W        W37884   0.849   4.764  15.262 -0.2272 -0.3413  0.1829
22754W        W37885   7.263  13.730   1.628 -0.0915  0.3462  0.1237
22755W        W37886  12.117  12.504   5.363 -0.0457  0.3045  0.0752
22756W        W37887  10.268  17.073  11.448  0.1131  0.2977  0.0843
22757W        W37888   7.202  17.971   5.468 -0.0204 -0.1092  0.3572
22758W        W37889  11.891  11.776   3.931  0.0703  0.0423 -0.0414
22759W        W37890  16.402   0.907  15.438  0.0017  0.0052 -0.1845
22760W        W37891   4.135  11.972   3.542  0.1194  0.1575 -0.2834
22761W        W37892   6.198  15.291   1.665  0.0921 -0.0384  0.0451
22762W        W37893   3.912  10.088   2.834 -0.2154 -0.0580 -0.2972
22763W        W37894   2.986   8.043  12.394 -0.1011 -0.0015  0.2329
22764W        W37895   1.587   9.355   3.224  0.1265 -0.0541 -0.0060
22765W        W37896   2.473  17.261   5.276  0.1364  0.0657 -0.1922
22766W        W37897   4.068   4.689  14.412  0.0964  0.0388  0.2007
22767W        W37898  14.780   6.988  13.837 -0.1413  0.4978  0.2820
22768W        W37899  16.870  17.898   3.000  0.4179 -0.0505  0.0145
22769W        W37900  15.952   7.790  15.164  0.0134  0.3082  0.0967
22770W        W37901   0.241   1.261  13.106 -0.0753 -0.0949  0.2383
22771W        W37902  11.033   0.351  15.505 -0.4919 -0.0622 -0.1096
22772W        W37903   6.453  17.356  12.751  0.0220 -0.1755 -0.0375
22773W        W37904   5.783  17.756   5.580 -0.0596  0.0647  0.3701
22774W        W37905   3.049   4.638  14.913 -0.2045 -0.0134  0.0494
22775W        W37906  16.534  11.735   3.693  0.1313 -0.1255 -0.0228
22776W        W37907   5.253   2.027  12.454  0.0602  0.1278  0.0758
22777W        W37908   6.143  10.746  15.054 -0.0090 -0.1865 -0.2369
22778W        W37909  15.731  15.237   0.710 -0.0461  0.1592 -0.2072
22779W        W37910   4.182   1.991   6.187 -0.1432 -0.2353  0.1067
22780W        W37911  13.660   7.733  12.210 -0.2070 -0.0661 -0.0613
22781W        W37912  10.790  18.221   5.224 -0.0468 -0.0551 -0.1687
22782W        W37913  12.269   0.291   5.753  0.0574  0.0054 -0.0300
22783W        W37914  17.919   5.508   5.434 -0.0924 -0.0074  0.0415
22784W        W37915   7.668   5.543   4.344  0.1132 -0.3301  0.0607
22785W        W37916  18.283   0.175   2.796  0.0205 -0.1093 -0.1996
22786W        W37917   4.543  17.364   1.927 -0.0991  0.3006  0.1630
22787W        W37918  14.837  12.555  15.279 -0.2188  0.0970  0.5279
22788W        W37919  11.389   5.351   2.252  0.0946  0.1632 -0.0184
22789W        W37920   8.194   7.689   3.524  0.0273  0.0508  0.0850
22790W        W37921   2.782  12.046   4.378 -0.0767 -0.1141 -0.0187
22791W        W37922   8.706   8.822  11.984 -0.0426 -0.1910 -0.3548
22792W        W37923   4.375  17.533  15.726  0.0393 -0.0950 -0.1250
22793W        W37924   2.800  10.121  14.537 -0.1684 -0.0394  0.1164
22794W        W37925   4.045  16.884   2.317 -0.1244 -0.1125  0.0322
22795W        W37926  14.285  12.709   4.525 -0.4041 -0.1931  0.3740
22796W        W37927   0.653   2.691  15.025 -0.2987  0.1358 -0.4103
22797W        W37928  16.910  12.107   1.612 -0.2798  0.0011  0.1369
22798W        W37929  14.329   4.952   1.413  0.2380  0.1452  0.0328
22799W        W37930  11.646   6.455   5.580 -0.0096  0.3887  0.0108
22800W        W37931   4.974  15.279  15.730 -0.1366 -0.1548 -0.0878
22801W        W37932  11.586   4.366   2.705  0.2181  0.0446 -0.0089
22802W        W37933   6.779   7.720   1.319  0.0338  0.1000  0.2519
22803W        W37934   2.538  13.356  13.968  0.0678  0.1164 -0.2017
22804W        W37935   3.981  17.905   5.681  0.0593 -0.1221  0.1686
22805W        W37936   6.607   6.185   4.126  0.1711  0.2851  0.3507
22806W        W37937   4.194  11.671  12.680 -0.0362 -0.0972 -0.2316
22807W        W37938  13.473   5.869  16.104 -0.3310 -0.3730  0.1105
22808W        W37939   1.596   5.300   2.666 -0.4527 -0.1410 -0.1287
22809W        W37940   2.051   5.554  13.371  0.1036 -0.0702 -0.3532
22810W        W37941  14.445   3.843   4.227 -0.0395  0.0002  0.0655
22811W        W37942   9.265  16.325  15.341 -0.1412  0.2892  0.0198
22812W        W37943  12.153  14.179  13.333 -0.2514  0.0034  0.0670
22813W        W37944  17.286  10.143  12.486  0.1923  0.1525 -0.0819
22814W        W37945   9.393  17.128   2.496  0.3037  0.1321  0.2257
22815W        W37946  13.765   1.412   1.584 -0.1222 -0.1565 -0.0611
22816W        W37947  15.667   5.067   3.238  0.4713 -0.4630 -0.1785
22817W        W37948  10.955  13.985   5.408 -0.0695 -0.2402 -0.0344
22818W        W37949  17.138   7.480   5.941  0.1266 -0.0454 -0.0807
22819W        W37950  10.982   4.122  11.746  0.1241 -0.2476 -0.2136
22820W        W37951   3.594  15.195  14.581 -0.0136 -0.1017 -0.0865
22821W        W37952  16.658   3.198   6.430  0.1110  0.0134 -0.0662
22822W        W37953  11.362  17.288  12.156 -0.0934  0.0973  0.1790
22823W        W37954  12.625  16.427   0.733 -0.0508 -0.2700  0.0383
22824W        W37955  10.369  15.626  11.828 -0.0381  0.0443 -0.0310
22825W        W37956  12.297  16.466  12.754 -0.1211 -0.1790  0.1441
22826W        W37957  10.461  13.414  11.716 -0.1592  0.2277  0.0102
22827W        W37958   8.823  13.243   4.608  0.0065  0.2880 -0.2177
22828W        W37959  15.368  14.563  14.104 -0.4508  0.0525  0.1535
22829W        W37960   4.935   1.700  11.819 -0.3126 -0.0464 -0.2378
22830W        W37961   1.653   8.105  15.198  0.2515 -0.0474 -0.1929
22831W        W37962  15.407   9.901  15.448 -0.0968 -0.1703 -0.0421
22832W        W37963   5.287   3.471   4.544 -0.3637  0.0442 -0.2722
22833W        W37964  12.695  15.017   4.659  0.1312 -0.0092  0.3466
22834W        W37965   6.921  14.279   2.316  0.1368 -0.0338 -0.4718
22835W        W37966  10.351  11.378   4.470 -0.1051  0.1199  0.1223
22836W        W37967  13.541   3.972  12.288 -0.4407 -0.2422  0.1236
22837W        W37968   5.992   3.815   5.697  0.0445  0.1226  0.0289
22838W        W37969  15.646   2.826   2.957 -0.1498  0.1307  0.0771
22839W        W37970   8.921   6.121   2.303 -0.1265 -0.3174  0.2094
22840W        W37971  13.680   5.493  15.837  0.2801 -0.0022 -0.0064
22841W        W37972   1.842  10.999   5.732 -0.0694 -0.3619 -0.2273
22842W        W37973  17.123  18.119  13.528  0.0648  0.1971  0.3376
22843W        W37974   8.123   3.328   0.044  0.2179 -0.6039 -0.1984
22844W        W37975   8.496   5.598  13.109  0.1264 -0.2008  0.1294
22845W        W37976   1.093  11.991  13.373 -0.1544  0.0611  0.0644
22846W        W37977   1.024  18.300   2.530  0.2690  0.0143 -0.1007
22847W        W37978  11.356   0.501  11.884 -0.0082  0.2360  0.1422
22848W        W37979  15.047   9.101  15.095  0.0484  0.0421  0.0657
22849W        W37980   0.240  11.504   4.699 -0.2440 -0.0306 -0.4924
22850W        W37981  16.092   3.361  16.103 -0.3640 -0.0541  0.0295
22851W        W37982   4.487  16.703   4.763  0.0109 -0.0572  0.1331
22852W        W37983  14.291   5.011   1.911  0.0068 -0.1941 -0.1517
22853W        W37984   1.107   0.976   0.365 -0.1728 -0.2220  0.1191
22854W        W37985  18.315  13.987  15.133  0.1853 -0.1421  0.1808
22855W        W37986  14.848   7.932   4.707 -0.0432  0.2159  0.4211
22856W        W37987  16.406  14.398  14.868 -0.2308 -0.0468  0.0040
22857W        W37988   7.540   8.905  13.095  0.0181 -0.2289  0.3294
22858W        W37989   4.013   5.298  15.745 -0.1864  0.2298 -0.0658
22859W        W37990  14.453   9.145   1.794  0.0691 -0.1463  0.0444
22860W        W37991   7.088  14.074   1.259  0.0537  0.4091 -0.1982
22861W        W37992  13.309  17.309   4.384 -0.2405  0.4691  0.1553
22862W        W37993  13.250   9.387   0.709 -0.0282 -0.2026  0.0993
22863W        W37994  13.973   8.838   1.567  0.2901  0.2417 -0.0630
22864W        W37995  10.322  11.220   2.033  0.1306 -0.0939 -0.1325
22865W        W37996   1.945  17.975  13.051  0.2016  0.0953 -0.0314
22866W        W37997  14.479   7.489  11.820 -0.0638  0.1799  0.0929
22867W        W37998   6.841  12.934   1.163 -0.0745 -0.2240 -0.1759
22868W        W37999  10.786  11.482   0.323 -0.3099 -0.2405 -0.5255
22869W        W38000   0.967   9.748  11.579  0.0824  0.0759  0.0697
22870W        W38001   7.518  10.347  10.175 -0.1157  0.1548 -0.4296
22871W        W38002  15.469   3.590   1.103 -0.1442  0.2297 -0.0250
22872W        W38003   3.017   4.834   5.470 -0.0624 -0.1596  0.2098
22873W        W38004   0.134   8.255   0.186 -0.0105  0.1049 -0.0297
22874W        W38005  11.513  11.743  14.165  0.4157 -0.0707 -0.2210
22875W        W38006   2.378  11.729   3.711  0.1849 -0.0425  0.1552
22876W        W38007   2.847  13.023   0.606 -0.3087  0.1400  0.2803
22877W        W38008  13.368   3.171   2.235  0.0331  0.1021 -0.0961
22878W        W38009   5.857  15.523   1.916  0.1006 -0.2754 -0.4072
22879W        W38010   0.087   3.382  13.954  0.0631 -0.1331  0.0397
22880W        W38011   1.234  17.305  13.010 -0.0144  0.1870  0.2255
22881W        W38012  16.108  16.667   1.690  0.0884 -0.3007  0.1917
22882W        W38013  10.013   6.811   0.857 -0.0639 -0.1464  0.0570
22883W        W38014   5.255  10.513  10.601  0.2998  0.2810 -0.0216
22884W        W38015  13.853  15.420   1.033  0.2514 -0.1205 -0.1844
22885W        W38016   8.573  11.101  15.584  0.1094 -0.1525  0.0715
22886W        W38017  17.647  10.616   2.292  0.1492 -0.0105  0.2264
22887W        W38018  16.631   6.506   5.089  0.0228  0.1532 -0.0427
22888W        W38019  16.345   8.907  12.433 -0.0839 -0.1939 -0.1404
22889W        W38020  17.612   4.669   2.890  0.0851  0.2598  0.1482
22890W        W38021   0.678   9.159  14.404 -0.2901  0.1628  0.3677
22891W        W38022   8.090  14.685  12.629 -0.1010  0.1448 -0.1352
22892W        W38023   6.561   2.297   3.676  0.1936  0.3024  0.1459
22893W        W38024  16.687   7.785  11.196 -0.1254  0.0492 -0.1069
22894W        W38025  12.022  16.158  13.970 -0.1570  0.0013  0.1088
22895W        W38026   5.353   6.389  12.501  0.6241  0.0699 -0.3616
22896W        W38027   0.125  12.370  14.469 -0.1657 -0.2347 -0.0051
22897W        W38028   8.138  17.587   0.494 -0.1439 -0.0638 -0.3391
22898W        W38029  15.515  13.489  10.027 -0.1167  0.0554  0.0318
22899W        W38030   3.004   9.597  12.838 -0.3002 -0.2362  0.0370
22900W        W38031   3.225   3.024   0.370 -0.2514 -0.0596  0.1475
22901W        W38032  17.267  15.512   1.561  0.1016  0.0557 -0.3294
22902W        W38033  16.089  13.111   0.582  0.1606  0.1027 -0.0159
22903W        W38034   7.426   1.055  15.806 -0.1105 -0.0739 -0.0249
22904W        W38035  12.509   1.893  13.196  0.1624 -0.0134  0.0726
22905W        W38036   8.777  10.354   4.267  0.2645 -0.1265  0.2063
22906W        W38037  14.486   5.307  13.349  0.3295  0.0366 -0.4061
22907W        W38038  15.897  13.197   4.776  0.2228 -0.3957  0.0562
22908W        W38039   9.897  14.878  15.013  0.1335 -0.0584 -0.0491
22909W        W38040   5.709  17.630   3.333 -0.1292 -0.1389 -0.1936
22910W        W38041   2.618   2.135   0.089  0.4049  0.1405 -0.1034
22911W        W38042  14.629   8.295  14.725 -0.2458 -0.1302  0.1218
22912W        W38043  13.858  10.824  10.068  0.0180 -0.3108  0.2996
22913W        W38044  17.288   8.468  10.162 -0.1654 -0.0916 -0.0855
22914W        W38045   1.269   5.848  11.766 -0.0210 -0.1365  0.3411
22915W        W38046   5.282   6.945  10.666 -0.0219 -0.1587  0.0002
22916W        W38047   8.714  11.085  14.721 -0.2821  0.0330 -0.3323
22917W        W38048  16.062  11.720  10.731  0.1088 -0.0137  0.3302
22918W        W38049   3.581   7.269  14.622  0.0409 -0.0899  0.1834
22919W        W38050  16.997  11.370   3.358 -0.1387  0.0002 -0.1468
22920W        W38051   1.491   4.421   4.652 -0.1092  0.0330  0.1062
22921W        W38052   4.892   3.809   2.730  0.1802 -0.1385  0.1334
22922W        W38053   9.498   1.679  14.510 -0.1371  0.3620 -0.4264
22923W        W38054  13.629  13.980  15.217 -0.0244  0.1925  0.0687
22924W        W38055  15.468   6.338  15.372 -0.0750  0.1040 -0.3711
22925W        W38056  15.701   8.493   1.924  0.1712  0.3128 -0.2545
22926W        W38057  15.132   4.989   0.461 -0.1460  0.3977  0.0505
22927W        W38058   0.000   9.135  14.240 -0.0368  0.1580  0.0041
22928W        W38059   3.698  10.124   1.410  0.0140  0.0140 -0.0472
22929W        W38060   5.769  11.514  13.478 -0.4177 -0.1520 -0.0323
22930W        W38061   0.047  11.199   0.470 -0.2833  0.0774  0.1672
22931W        W38062  13.499  15.221   1.627  0.0660  0.0078  0.0912
22932W        W38063  12.058   2.526  13.700  0.0601 -0.0514 -0.0334
22933W        W38064   7.138   9.292   4.212 -0.0993  0.2718  0.2482
22934W        W38065  17.497   2.928  13.527  0.3172 -0.1685 -0.1676
22935W        W38066  12.364   4.628  14.894  0.0606 -0.0215  0.3528
22936W        W38067   2.362  16.838  11.874  0.3736 -0.1657 -0.0806
22937W        W38068   2.398  15.473   4.990  0.1313 -0.2470  0.1467
22938W        W38069   6.130  15.356  15.390 -0.2467  0.0420 -0.1096
22939W        W38070   5.688   2.560  11.587 -0.2158  0.1202  0.1282
22940W        W38071  11.281   5.110   1.240 -0.2436 -0.3096 -0.2160
22941W        W38072   9.307   4.099  14.779  0.0436  0.2316  0.2244
22942W        W38073  12.389  16.534   5.944  0.1133  0.0187 -0.1140
22943W        W38074   4.049  15.115  13.290 -0.0384  0.3828  0.0648
22944W        W38075   4.421   4.352  15.868  0.2285  0.1535 -0.1813
22945W        W38076  15.648  10.972  14.958 -0.0457 -0.0425 -0.0942
22946W        W38077   8.469   8.217   1.459 -0.1814  0.0222 -0.2577
22947W        W38078   6.611  14.000   1.373 -0.2914 -0.3222  0.1778
22948W        W38079   4.787   1.898   1.693 -0.0442 -0.1580 -0.0704
22949W        W38080   5.849  14.254  11.733 -0.0485  0.1505  0.0627
22950W        W38081   5.232  14.310  13.674 -0.0106 -0.1778  0.2275
22951W        W38082   4.264   6.010  12.607  0.1428  0.1927  0.1940
22952W        W38083   2.864   2.080  15.348  0.4413  0.1663  0.1480
22953W        W38084  11.285  13.044   2.428 -0.0447 -0.4858 -0.0561
22954W        W38085   6.415   7.810  12.414  0.1454  0.2634 -0.0893
22955W        W38086  10.480   7.159   4.232 -0.1717 -0.0795  0.1122
22956W        W38087  18.322  17.431   0.264 -0.2842 -0.1136 -0.2554
22957W        W38088   7.445   0.933  12.890 -0.1562 -0.0819  0.2653
22958W        W38089   4.468  12.892  15.245  0.0037  0.0505  0.1359
22959W        W38090   6.244   1.871  14.312 -0.0677  0.1726  0.1091
22960W        W38091   8.682  10.121  16.102 -0.1893  0.0049  0.3046
22961W        W38092  12.749   1.559   4.439 -0.2337 -0.0590 -0.0299
22962W        W38093   1.538  14.356   5.341  0.2016 -0.0327 -0.0563
22963W        W38094   4.425   6.496  12.496  0.1536 -0.0157  0.0942
22964W        W38095   7.074  17.255   3.199 -0.3561  0.2166 -0.0354
22965W        W38096   9.856  13.900   1.294 -0.1943  0.1711 -0.0133
22966W        W38097   5.855  11.346   4.189  0.2006 -0.3500 -0.0555
22967W        W38098  17.767  15.579   5.360 -0.2742 -0.1362  0.1122
22968W        W38099   3.060  17.235   1.959 -0.3357 -0.0708 -0.0055
22969W        W38100  16.431   8.689  13.290 -0.2229 -0.0434 -0.2875
22970W        W38101  15.568  11.839  15.311  0.1416  0.1816 -0.1583
22971W        W38102  16.793  11.111   1.297 -0.1865 -0.1141 -0.1914
22972W        W38103  17.755   2.604   1.037 -0.2333 -0.0204  0.1791
22973W        W38104   2.898  15.460   5.143 -0.1596 -0.0387 -0.2836
22974W        W38105  13.356   1.664  12.053 -0.2302  0.0931 -0.1107
22975W        W38106   1.747   5.104   1.498 -0.1827 -0.1953  0.2102
22976W        W38107   0.552  14.021   4.747  0.2331  0.2519 -0.3986
22977W        W38108   2.397   4.519  15.582 -0.4049  0.0541  0.1003
22978W        W38109  14.122   0.364  13.093  0.2645  0.2161 -0.0987
22979W        W38110  13.239  17.413  10.975 -0.3197  0.0260 -0.3914
22980W        W38111   9.284   3.030  15.004  0.0531  0.2599 -0.0169
22981W        W38112   3.879  15.687   3.182 -0.1881 -0.1826 -0.1232
22982W        W38113   3.588  15.929  15.948 -0.1879  0.2193  0.0962
22983W        W38114  16.983  18.225   5.634  0.0523  0.3008 -0.1639
22984W        W38115   3.513   5.983  13.596  0.0224  0.0536 -0.2389
22985W        W38116   0.313   9.345  10.202  0.0872  0.0670  0.0056
22986W        W38117   2.887  17.096   1.156  0.1521 -0.0106  0.2035
22987W        W38118  13.413   9.817   3.086 -0.2634 -0.1522  0.0271
22988W        W38119   5.561   1.548   0.738  0.0589 -0.2129  0.1334
22989W        W38120  16.314   1.044   3.843  0.0512 -0.4341  0.2570
22990W        W38121   1.178   2.119  14.676  0.2063 -0.1188  0.1981
22991W        W38122  14.445   0.264   4.748 -0.0153 -0.0353 -0.0326
22992W        W38123   2.797  10.482   4.238 -0.1223 -0.0642 -0.1690
22993W        W38124   6.820   3.323  15.742 -0.1694  0.1522  0.2493
22994W        W38125  12.644   3.404   4.041 -0.0360 -0.2294  0.0974
22995W        W38126   6.194   9.733   3.381 -0.3094 -0.0488  0.3228
22996W        W38127  15.656   5.813  12.842  0.1148 -0.0039  0.1705
22997W        W38128   4.370  13.803  13.437 -0.2665  0.0337 -0.0199
22998W        W38129  10.438   7.011  14.103  0.1574 -0.0478  0.0793
22999W        W38130   6.637  10.279  13.551  0.2164 -0.5514 -0.1427
23000W        W38131  11.355   6.725  12.100  0.1356  0.1041 -0.0476
23001W        W38132   3.487   4.659  13.566  0.2313  0.2019 -0.0114
23002W        W38133   6.644  10.851  12.608 -0.3311 -0.1387  0.1460
23003W        W38134   7.433  13.028   5.429  0.0833 -0.1022 -0.0206
23004W        W38135   0.905   9.684   4.980  0.2508 -0.1159  0.0972
23005W        W38136   8.446  10.263   4.646 -0.3746  0.0111 -0.4149
23006W        W38137   9.775  16.530   2.839 -0.1805  0.0206 -0.0447
23007W        W38138  16.361   4.923  13.808 -0.0823 -0.1461  0.2190
23008W        W38139   4.723  14.168   2.192 -0.3065 -0.1479 -0.1586
23009W        W38140   9.180  17.201  11.850  0.0331  0.3144 -0.1074
23010W        W38141   9.322  16.072   3.502  0.1433  0.2156  0.0325
23011W        W38142   3.668   9.585   1.711 -0.1653  0.0356  0.0868
23012W        W38143  13.226  12.841  12.335 -0.3974  0.0337 -0.2815
23013W        W38144   1.149   9.782  15.175  0.3103 -0.0512 -0.1810
23014W        W38145  12.424   4.908  15.365 -0.1881 -0.2132  0.0462
23015W        W38146  12.420   6.260  13.158 -0.1046  0.1040 -0.1432
23016W        W38147  10.508   7.713   1.394  0.0848  0.1379  0.3417
23017W        W38148   0.576  16.162  15.975  0.0280 -0.3753  0.1036
23018W        W38149   9.778  13.146   1.845  0.1629  0.1496  0.0727
23019W        W38150  12.905  12.183  16.025 -0.1014  0.0005  0.1122
23020W        W38151  10.414   6.760  10.741  0.2098  0.1595  0.7203
23021W        W38152  17.469   5.228  13.095 -0.0295  0.2127 -0.1712
23022W        W38153   7.263  12.420   3.292  0.0369  0.0222 -0.3037
23023W        W38154   6.584   9.781   0.949 -0.1560 -0.0245 -0.0210
23024W        W38155   6.569   1.559  14.467 -0.0854 -0.4814 -0.0653
23025W        W38156  13.657  13.630  11.278 -0.1706 -0.3732  0.0250
23026W        W38157   9.755   7.497   2.485  0.0173 -0.1171  0.1187
23027W        W38158   5.837   2.918   3.635  0.1488 -0.1879 -0.0378
23028W        W38159  12.008  14.727   1.214  0.1595 -0.0464  0.0110
23029W        W38160   0.603   3.202   0.875 -0.0860  0.0213 -0.1705
23030W        W38161   1.874   8.368   3.266  0.0862 -0.0379  0.1868
23031W        W38162   0.373   9.509  14.081  0.1525 -0.1394  0.0174
23032W        W38163   5.796   5.876  14.202 -0.0632  0.1402 -0.1273
23033W        W38164   2.236  13.041  14.231 -0.1882  0.0932 -0.1257
23034W        W38165  14.269  14.759  14.753  0.0552  0.0680 -0.1358
23035W        W38166   9.749  11.468  11.057 -0.3433  0.0787 -0.1263
23036W        W38167   5.691   3.756  13.534 -0.2464 -0.0241 -0.1305
23037W        W38168  16.652   3.659   5.624 -0.0756  0.1879  0.1895
23038W        W38169   5.117   4.437  10.568 -0.3181 -0.0131  0.0921
23039W        W38170   5.307   1.805   0.993 -0.0432 -0.3083 -0.1814
23040W        W38171  14.737  13.165   1.680  0.3055 -0.0106 -0.1965
23041W        W38172   3.281  12.702  12.864  0.0873 -0.2313  0.2947
23042W        W38173   6.102   3.445  13.284 -0.0924  0.0187  0.4008
23043W        W38174   3.530  16.174  12.411 -0.0348  0.1888 -0.0572
23044W        W38175   9.630   7.578  13.162  0.1918  0.1501 -0.2015
23045W        W38176   7.060   0.303   1.343 -0.1503  0.4314  0.0006
23046W        W38177   1.960  11.941  12.798 -0.1121  0.1579 -0.0514
23047W        W38178  16.565   3.679   3.231  0.3563  0.0276  0.3404
23048W        W38179   8.751   2.829   4.213  0.2755 -0.0064 -0.0358
23049W        W38180   1.290  10.595  11.421 -0.1210  0.0417  0.2838
23050W        W38181  17.820   2.895  13.952  0.2982  0.1766  0.2126
23051W        W38182   8.777  11.282   3.539 -0.0205 -0.0020 -0.0398
23052W        W38183   0.980  13.812   0.625  0.1120 -0.0865 -0.0618
23053W        W38184   1.064   0.777   0.866 -0.1606 -0.1770 -0.1042
23054W        W38185  14.179  16.843  12.402  0.0214  0.1520  0.0137
23055W        W38186  16.113  13.815  15.285  0.2346  0.0642 -0.3421
23056W        W38187   0.505  12.521  12.679 -0.3249 -0.0511 -0.2433
23057W        W38188  17.230   9.469   2.938  0.1646  0.1516 -0.0200
23058W        W38189   6.763   9.296   1.816 -0.1485  0.1900 -0.0057
23059W        W38190  13.902   4.240  11.444  0.1489 -0.0688  0.1744
23060W        W38191   3.950  13.817   2.935 -0.0962  0.2765 -0.1506
23061W        W38192   9.119  14.118   3.712  0.0943 -0.2676  0.0865
23062W        W38193  16.158   6.264   2.982  0.1930  0.0327 -0.1158
23063W        W38194   4.368   8.472  14.858  0.0075 -0.4053  0.2139
23064W        W38195  14.037  15.687   2.199 -0.0638 -0.0334 -0.1333
23065W        W38196  14.620   8.432   2.830  0.0405 -0.0342 -0.1155
23066W        W38197  16.183   1.868   0.245  0.1507 -0.0288 -0.0445
23067W        W38198   6.189  14.011   2.247 -0.0302 -0.1075 -0.2852
23068W        W38199   7.435  15.701   1.884  0.3150  0.1123  0.1508
23069W        W38200   0.732   0.649   4.335 -0.1626  0.0021  0.3297
23070W        W38201  14.685  12.854  14.877 -0.0381 -0.0146  0.1204
23071W        W38202  17.902  10.520  11.978 -0.1565 -0.1531  0.0185
23072W        W38203  17.427  12.642   3.730  0.2284 -0.1180 -0.3192
23073W        W38204   0.310   6.505   2.988  0.3047  0.0611 -0.4317
23074W        W38205  10.613  12.408   0.236 -0.5803 -0.1091 -0.2913
23075W        W38206   8.220  18.245  10.228 -0.1332 -0.0233  0.0460
23076W        W38207   1.545   9.243   0.759 -0.4019 -0.0044 -0.2233
23077W        W38208  15.857  11.713  11.170  0.2483 -0.1579  0.1434
23078W        W38209  14.287  15.280   0.879  0.4161 -0.0464  0.0502
23079W        W38210   8.804  13.012   3.103  0.0054 -0.2937 -0.0500
23080W        W38211   0.986   3.026  14.114 -0.2244 -0.2398  0.2211
23081W        W38212  11.256  14.155  15.311  0.2358 -0.0487 -0.0042
23082W        W38213   2.490   1.049  14.701 -0.1209  0.1793  0.2111
23083W        W38214   8.054  12.740  13.603 -0.2699  0.2506  0.4165
23084W        W38215  14.972   3.661  14.200 -0.2135  0.1263 -0.0709
23085W        W38216  10.650   4.138  13.577 -0.1722  0.1022 -0.1386
23086W        W38217  16.301  12.811  13.141 -0.1591 -0.3443  0.1741
23087W        W38218   1.922  17.155  14.941 -0.0960  0.6716 -0.1173
23088W        W38219   0.145   1.061  13.612  0.2416 -0.2001  0.3059
23089W        W38220  13.649   5.147  13.559  0.1976  0.0179 -0.1116
23090W        W38221  15.499   5.680   5.616  0.0304  0.3058  0.2426
23091W        W38222   1.420   9.535  14.761  0.1035 -0.1611 -0.2488
23092W        W38223   2.444   8.787  10.851 -0.1060  0.4771  0.1141
23093W        W38224   8.374   1.828  13.390  0.2197  0.0797 -0.5418
23094W        W38225  12.064   4.550   0.937 -0.1592 -0.1589  0.0455
23095W        W38226   7.029   0.578   6.276 -0.3174 -0.0224  0.0103
23096W        W38227   9.243   4.409  11.539 -0.0558 -0.0075  0.0693
23097W        W38228  17.966  16.209   0.726 -0.0860 -0.0448  0.6001
23098W        W38229  10.482   1.699  14.193 -0.2245 -0.0154  0.1146
23099W        W38230   2.158   3.195   2.145  0.0384 -0.0796 -0.1377
23100W        W38231   9.149   1.040   3.817 -0.1540 -0.2642 -0.0489
23101W        W38232   6.870  13.101  10.573 -0.2235 -0.1642  0.1915
23102W        W38233   3.496  13.933  11.619 -0.0348  0.0560 -0.0827
23103W        W38234  17.520   0.056  11.290  0.2330 -0.0925  0.0978
23104W        W38235  15.461   2.477  11.594  0.0557 -0.1672  0.2582
23105W        W38236  14.617  10.689   5.051  0.0348 -0.0990 -0.0313
23106W        W38237   5.007  12.333   3.907  0.0091 -0.1581  0.0737
23107W        W38238  16.523  12.752   4.125 -0.2642  0.0479 -0.0228
23108W        W38239   0.547   8.285   4.398 -0.0088  0.2405 -0.0521
23109W        W38240   5.817  14.437  12.216  0.1944 -0.3011 -0.3030
23110W        W38241  14.809   4.126  12.968  0.3082 -0.1344 -0.0562
23111W        W38242  16.237  13.315  15.819  0.1527 -0.1816  0.3841
23112W        W38243   9.489   5.186  10.664  0.4300  0.0330 -0.0454
23113W        W38244  12.643  17.398  13.687  0.3587  0.1592  0.1547
23114W        W38245   5.356   4.663   3.772  0.2448  0.2765  0.0719
23115W        W38246   1.279  17.453  13.980  0.2016  0.3104 -0.2829
23116W        W38247  11.434   5.294   1.704  0.2369  0.1210 -0.0295
23117W        W38248  16.169  14.746   4.327 -0.0963 -0.0594 -0.2274
23118W        W38249  14.719   0.324   1.722 -0.0887  0.2451  0.0594
23119W        W38250  10.325  10.985   4.726 -0.0745  0.4051  0.0605
23120W        W38251   3.925   8.082  14.928  0.1082 -0.2442  0.1178
23121W        W38252   1.912  18.173  11.977  0.1234 -0.0132 -0.0825
23122W        W38253  14.097   1.770  14.915 -0.0670 -0.0897  0.2162
23123W        W38254   9.869  11.663  12.833  0.3451 -0.2174  0.0738
23124W        W38255  13.989   9.771   3.188 -0.2758 -0.2981 -0.1547
23125W        W38256   0.524   2.020   4.943 -0.0766 -0.1028  0.3677
23126W        W38257   5.748  10.707   4.914  0.1279 -0.2082 -0.1479
23127W        W38258   9.744  11.946  15.762 -0.3786 -0.2681 -0.0789
23128W        W38259   3.013   2.082   4.588 -0.3114  0.0242  0.1064
23129W        W38260   1.380  14.965   1.320  0.0489  0.0133  0.0693
23130W        W38261   5.774   3.221  13.568  0.3710 -0.0209 -0.0956
23131W        W38262   7.938  15.370  14.289 -0.0238  0.0944  0.1235
23132W        W38263  15.243   5.854   2.876  0.0044  0.0603  0.2949
23133W        W38264   4.965   8.881   3.562 -0.0305 -0.2474  0.3264
23134W        W38265  14.482  12.048  14.652 -0.2127  0.0472  0.1209
23135W        W38266  10.866  11.264   4.352 -0.0035  0.1020  0.0113
23136W        W38267  12.853  16.860  14.403  0.1449  0.2398  0.0202
23137W        W38268  16.547   9.075   0.036 -0.0630  0.4288 -0.1801
23138W        W38269   4.399  13.852  11.758  0.3461  0.1063  0.0526
23139W        W38270   3.858  14.865   2.692 -0.2564  0.0597  0.1509
23140W        W38271   0.702   1.553  13.165 -0.2859 -0.0502  0.1272
23141W        W38272  13.121   5.148  15.458 -0.0528  0.1287  0.1848
23142W        W38273  17.786  11.006  11.993 -0.2355  0.0018 -0.1469
23143W        W38274   6.698   1.929  14.064 -0.1673 -0.1244  0.1595
23144W        W38275  11.196  11.023  14.361  0.0992 -0.0453  0.1092
23145W        W38276  17.458   2.330  12.722  0.0324 -0.0508 -0.1813
23146W        W38277   7.150   8.771   3.344  0.1788 -0.3677 -0.1275
23147W        W38278   2.836  13.685  13.670 -0.1263 -0.2204  0.2991
23148W        W38279   3.129   7.639   2.551 -0.2094 -0.0921  0.2015
23149W        W38280   4.635   4.775  13.497  0.1669  0.1374 -0.0128
23150W        W38281   6.038   5.579   0.640  0.4234  0.1211 -0.3015
23151W        W38282   7.626  13.040   1.328 -0.3705 -0.0808 -0.1135
23152W        W38283   0.636  16.857  12.087  0.1383 -0.1724  0.2615
23153W        W38284  14.004  10.704   0.566 -0.0257 -0.1899  0.2773
23154W        W38285  10.679   0.244   1.092  0.2034 -0.0521 -0.1061
23155W        W38286   3.650  14.072   3.956 -0.1750  0.1262 -0.0781
23156W        W38287  10.996   8.570  12.357  0.2156 -0.0762 -0.1253
23157W        W38288  13.194   9.450   3.280  0.0151 -0.0381  0.3598
23158W        W38289  11.349  11.044  14.879  0.2052 -0.0079  0.1304
23159W        W38290  13.431  18.074   9.943  0.0440  0.0203  0.0180
23160W        W38291  16.895   7.749   5.605 -0.1033 -0.2537  0.3306
23161W        W38292   4.489   7.915   0.284  0.0936 -0.1317 -0.0697
23162W        W38293   2.632   4.890   0.441 -0.2495  0.2205  0.1071
23163W        W38294  11.777   0.802   1.394 -0.2836 -0.1380  0.0298
23164W        W38295   9.794  13.659   5.147  0.0425  0.0437  0.0321
23165W        W38296   2.028   1.528  11.236  0.1349  0.0990  0.0944
23166W        W38297  11.782   6.839  11.009  0.0489  0.2664  0.1556
23167W        W38298  14.834   6.599   4.389  0.2116 -0.1198 -0.1481
23168W        W38299   0.828  16.403   4.271 -0.0246  0.2207  0.0200
23169W        W38300   8.287   5.488   4.950  0.0378  0.2972 -0.0639
23170W        W38301   9.025   9.291   2.463  0.2375  0.0564  0.1261
23171W        W38302   0.530  10.881  14.990 -0.1796 -0.0948  0.3578
23172W        W38303   8.709   9.434   3.437  0.2664 -0.1660  0.2316
23173W        W38304  13.350  14.285  10.539  0.0117 -0.0762  0.3060
23174W        W38305   3.742  17.658   0.852 -0.1108 -0.1194 -0.2914
23175W        W38306  15.786  14.529  11.349 -0.1869  0.1654  0.1608
23176W        W38307   9.341  15.515   2.070  0.1876  0.0497 -0.1489
23177W        W38308   9.958  15.268   0.852 -0.2175  0.1931 -0.1304
23178W        W38309   0.812  17.253   5.216 -0.1593  0.3962  0.4283
23179W        W38310  12.592  15.774   1.819  0.0325 -0.2348 -0.1136
23180W        W38311  13.416   0.268   4.632 -0.0805 -0.0212  0.1285
23181W        W38312   8.952   2.062  13.751 -0.2131 -0.0901  0.0706
23182W        W38313  10.033  15.036  14.552  0.0043 -0.0703 -0.1001
23183W        W38314  11.475  14.004  14.102  0.0412  0.1001  0.0467
23184W        W38315  11.209   6.005  13.814  0.1428 -0.2354  0.1581
23185W        W38316  11.713  12.800   0.956 -0.1189 -0.1313 -0.0290
23186W        W38317   5.777  10.960  13.624 -0.0629  0.0022  0.0819
23187W        W38318   1.768  10.720  11.635  0.0007  0.0155 -0.1611
23188W        W38319   6.094  13.579  15.440 -0.1257 -0.0524  0.1094
23189W        W38320   5.940  15.042  12.143  0.0557 -0.4057  0.1221
23190W        W38321   9.149  17.155  15.559  0.0660  0.0424 -0.2364
23191W        W38322  14.315  13.995  13.238 -0.2914  0.0443  0.0795
23192W        W38323  17.416  17.219   1.604  0.0808  0.1130  0.0700
23193W        W38324   4.513  16.699  12.349 -0.0131 -0.3020  0.1037
23194W        W38325  12.803  13.101   0.148 -0.0836  0.3309  0.1671
23195W        W38326  11.230  10.346  13.222 -0.2211  0.0634  0.3069
23196W        W38327   9.288  15.492   5.046  0.0695 -0.0960  0.2269
23197W        W38328   3.281   6.366  14.374 -0.1888  0.0764  0.4418
23198W        W38329   8.707   3.790  13.919  0.1071 -0.1261 -0.0207
23199W        W38330  14.225  15.326  15.498 -0.2381 -0.0712  0.1936
23200W        W38331   3.323   2.521   3.697  0.0645 -0.1098 -0.0600
23201W        W38332   5.705   5.742   3.136  0.0354  0.0063 -0.2060
23202W        W38333   1.002  16.657  15.440 -0.1311 -0.2233 -0.0712
23203W        W38334  13.248  13.346  11.632  0.1301  0.3139  0.3120
23204W        W38335   9.510   1.314   2.066 -0.1999  0.3240 -0.2207
23205W        W38336   1.988   1.237   4.048  0.1557  0.6297 -0.0810
23206W        W38337   4.365   6.405  13.410 -0.4496  0.0777  0.2564
23207W        W38338   1.971   5.711   0.538  0.1939 -0.1943  0.1367
23208W        W38339  14.314  12.145  11.107 -0.0627 -0.0461 -0.0324
23209W        W38340  16.924   6.121  13.127  0.2719  0.1863  0.1710
23210W        W38341  13.763   7.494   4.584 -0.0544  0.0669 -0.3610
23211W        W38342  15.535  13.360   3.982  0.1595  0.1952 -0.1813
23212W        W38343   6.361  12.686   4.020  0.0970  0.3060  0.0107
23213W        W38344   4.953   2.589  12.058 -0.1241  0.0285 -0.0159
23214W        W38345   4.137  15.785   3.642  0.0346  0.0375  0.0310
23215W        W38346   0.811   7.211   5.659  0.0968 -0.3729  0.3008
23216W        W38347   9.968   2.482   4.888 -0.2502 -0.0764 -0.1519
23217W        W38348  14.131   7.739  14.263 -0.1033  0.3229 -0.1919
23218W        W38349   0.076   1.159  11.388  0.0115 -0.2680  0.0840
23219W        W38350   8.643  11.070   1.765  0.1986  0.2035 -0.1871
23220W        W38351   9.345   6.040   5.763  0.3113  0.1679  0.0086
23221W        W38352   2.709   0.631   4.425  0.0415 -0.0828  0.0383
23222W        W38353  17.354   7.603  14.305 -0.0277  0.0209  0.2488
23223W        W38354  14.964  10.745   0.875  0.1146 -0.0801  0.0253
23224W        W38355  13.022  13.621   3.549 -0.0261  0.0364 -0.0851
23225W        W38356   5.802   1.877   0.015  0.1049 -0.3802  0.0989
23226W        W38357   3.529   8.841  12.840  0.4056 -0.0752  0.0476
23227W        W38358   4.311   4.055  15.406  0.2091  0.2191  0.1529
23228W        W38359  14.921   7.058   3.389 -0.1604  0.1205  0.0906
23229W        W38360  15.524  17.158   3.955 -0.3085 -0.1504  0.0516
23230W        W38361   0.376  12.107   4.369 -0.0300 -0.0734  0.0330
23231W        W38362   4.292  16.695   6.171  0.1562  0.0321  0.0653
23232W        W38363   0.444  14.293  11.481 -0.2872 -0.3266 -0.1252
23233W        W38364   5.713  14.313  13.171 -0.0532  0.0849 -0.1057
23234W        W38365  15.741   1.598  15.853  0.2601  0.4409 -0.0986
23235W        W38366  11.490  17.922  10.679 -0.0999 -0.0898 -0.0539
23236W        W38367   5.166   4.336   5.617 -0.2590  0.1425 -0.0166
23237W        W38368  16.593  15.408   0.783  0.1143 -0.0162 -0.1190
23238W        W38369   9.336  13.875  11.876  0.0896 -0.0946  0.0654
23239W        W38370  15.306  11.290   1.832 -0.0520  0.0657 -0.0534
23240W        W38371  16.769   6.573   0.224 -0.1002 -0.0224 -0.2725
23241W        W38372   7.831   8.399   2.719 -0.2382  0.0774  0.0142
23242W        W38373  15.408   4.566  13.317 -0.0416  0.1841  0.2020
23243W        W38374  17.669   9.268  13.813 -0.1490  0.0358 -0.1074
23244W        W38375  14.515  15.820  14.208  0.2456 -0.0416  0.1241
23245W        W38376  16.893  11.222  11.330 -0.2776 -0.0042  0.0922
23246W        W38377   6.288  14.318  14.791  0.2011  0.1961  0.2254
23247W        W38378  13.943   8.369   1.888  0.2466 -0.0161 -0.0735
23248W        W38379  18.234   4.680  13.138  0.0284  0.2508 -0.0575
23249W        W38380  16.242   7.967   1.234 -0.0281 -0.1226  0.3495
23250W        W38381  14.236   6.328  10.929  0.1477  0.0964  0.1312
23251W        W38382  15.622  16.599  10.190  0.1015 -0.0532  0.0748
23252W        W38383   8.697   5.799   5.000 -0.1299 -0.3029  0.0542
23253W        W38384  17.350   4.305  14.148  0.0352 -0.0152  0.0458
23254W        W38385   4.733   6.106  11.804 -0.0189  0.0396  0.1088
23255W        W38386   7.083   8.983   2.536  0.0160 -0.3392  0.0063
23256W        W38387  13.164   3.635  11.961  0.2946  0.0326 -0.1420
23257W        W38388   4.064  16.379  12.402  0.0627 -0.0393 -0.2550
23258W        W38389   4.113  10.156  13.583 -0.0091  0.0018 -0.3187
23259W        W38390  17.260   4.527  16.045  0.0918 -0.1405  0.1084
23260W        W38391   6.449   9.596  10.540  0.0862  0.0384  0.1425
23261W        W38392  12.773  12.290   2.831 -0.0668 -0.1590 -0.1979
23262W        W38393   2.774   9.216   1.010 -0.0972  0.3745  0.2890
23263W        W38394   7.572   3.393  14.507 -0.2587 -0.0862  0.0594
23264W        W38395   7.980  15.478   4.136  0.0650  0.2765  0.0173
23265W        W38396   2.659   7.970   4.224 -0.0863 -0.2004 -0.0148
23266W        W38397   2.029  15.279  15.355  0.1047 -0.3507  0.2639
23267W        W38398   8.766  11.741   3.434 -0.1976 -0.1273  0.1935
23268W        W38399   3.275  16.967   0.418  0.0416 -0.0212 -0.2184
23269W        W38400  18.095   7.727  15.743 -0.1540  0.0271  0.0608
23270W        W38401   0.949   1.259   1.789  0.1335 -0.0741 -0.0291
23271W        W38402   1.710   2.639  13.981  0.0048 -0.0647  0.1658
23272W        W38403  12.971   9.890   1.588 -0.1383 -0.1466  0.0543
23273W        W38404   1.455   8.390   1.404 -0.3170 -0.1827 -0.1253
23274W        W38405   8.924  10.607   0.757  0.0082  0.0889 -0.0533
23275W        W38406   1.386   3.972   5.476  0.0599  0.2541  0.0945
23276W        W38407   2.492   8.427   4.085  0.3162 -0.3200  0.3346
23277W        W38408   3.778   5.879   0.724 -0.0580 -0.2033  0.1926
23278W        W38409   5.503  17.841   5.132  0.1523 -0.3009  0.2879
23279W        W38410  12.308   8.960   4.328  0.1242  0.2245  0.2161
23280W        W38411  13.067   2.464  13.787 -0.0427 -0.4037 -0.2503
23281W        W38412   1.773  18.317  10.228  0.1835 -0.1084  0.1818
23282W        W38413  16.808   9.367  15.082 -0.0363  0.5750 -0.0809
23283W        W38414   3.333   3.320  11.236  0.0596  0.3103  0.1703
23284W        W38415   1.570   1.814   1.254 -0.1423 -0.2536  0.3355
23285W        W38416  16.772  17.357  12.393 -0.2468 -0.2009  0.0213
23286W        W38417  13.704   0.478  14.650  0.0012  0.3425 -0.2201
23287W        W38418  14.740   1.246  11.188 -0.0418 -0.0581 -0.0438
23288W        W38419   7.448  16.355  11.662  0.0865  0.0032 -0.2212
23289W        W38420  16.348   7.584  13.480 -0.0614 -0.1983  0.0222
23290W        W38421  17.176  12.017  12.476  0.0151 -0.2039 -0.0772
23291W        W38422   6.018  17.760  10.535  0.2938  0.0611  0.1209
23292W        W38423  10.629  12.405  15.032 -0.1111 -0.2411 -0.0313
23293W        W38424  11.934  14.270   4.473  0.0420  0.2146  0.0227
23294W        W38425   8.575  10.124   5.220  0.4046  0.0333 -0.0708
23295W        W38426   0.301  14.731   1.379  0.2665  0.1078  0.0530
23296W        W38427  15.523  14.925   2.203 -0.0793 -0.2351 -0.0929
23297W        W38428   3.682  15.711  14.567  0.1544 -0.0238 -0.0909
23298W        W38429   8.354   6.812   5.118  0.0472  0.0472  0.0297
23299W        W38430  13.861   6.824   0.000  0.0271 -0.2272  0.0665
23300W        W38431   7.429  16.901   5.166  0.0421  0.1840 -0.1762
23301W        W38432   3.522   6.657  15.742 -0.1911  0.0959 -0.0301
23302W        W38433  10.956  11.789   1.485  0.0675 -0.0092  0.1870
23303W        W38434   7.545   0.337  10.819  0.2854 -0.2516  0.1718
23304W        W38435   9.496  16.097   2.783 -0.2288 -0.0493  0.1280
23305W        W38436   8.502  13.238   5.004 -0.0891  0.0138  0.0848
23306W        W38437   7.389  14.338  13.825 -0.2447 -0.0978  0.2103
23307W        W38438   1.327   3.993  14.622 -0.0089 -0.2175 -0.0472
23308W        W38439   8.539  11.464  13.675 -0.2615  0.2728  0.2709
23309W        W38440  16.260  14.613  13.946 -0.0801 -0.0514 -0.2668
23310W        W38441   1.991  13.446  14.120 -0.1747 -0.1419 -0.1212
23311W        W38442   8.614   4.602   0.103 -0.0340 -0.2822 -0.0321
23312W        W38443  10.109   3.858   2.451  0.2481  0.0084 -0.1057
23313W        W38444   3.035   7.764  11.033  0.1603 -0.0379  0.4131
23314W        W38445   7.512  10.385  11.137 -0.1294 -0.0516  0.0139
23315W        W38446  12.472  16.860  10.529 -0.3056  0.1027 -0.0912
23316W        W38447   3.028   2.771  14.874 -0.0614 -0.2213 -0.0608
23317W        W38448   7.426  17.237   3.623  0.1843  0.3030  0.0382
23318W        W38449   8.893  10.433  12.435  0.1768 -0.2226  0.0583
23319W        W38450  16.787  13.965  15.123 -0.1822 -0.0299 -0.1688
23320W        W38451  16.832  16.601   2.839  0.0576 -0.0768 -0.1534
23321W        W38452  18.299   0.877  10.974 -0.2839  0.0494 -0.0780
23322W        W38453  12.642  12.264   1.769 -0.1800  0.1229  0.0049
23323W        W38454  12.158  10.883  15.911  0.0985  0.2918 -0.0004
23324W        W38455   1.296   2.200  13.392 -0.1185 -0.2125 -0.0108
23325W        W38456  11.848  12.678   5.780  0.0048 -0.2359  0.1401
23326W        W38457  11.698   4.876   1.141 -0.2027 -0.2222 -0.1214
23327W        W38458   0.737   3.699   0.698  0.0276  0.0678  0.5302
23328W        W38459   8.281   4.982   0.026  0.2754  0.1897 -0.1096
23329W        W38460  16.148   7.153  11.226  0.4004 -0.1658 -0.2347
23330W        W38461   9.743  14.208  13.678 -0.3585 -0.0275  0.0761
23331W        W38462  14.032   2.667  13.871  0.1703  0.2289 -0.3889
23332W        W38463   6.146   6.635  13.771  0.0590 -0.0571 -0.0704
23333W        W38464   4.405   4.626   1.001  0.1108 -0.0145  0.1196
23334W        W38465  10.218   0.025  12.628  0.1309 -0.0847  0.1341
23335W        W38466  18.196  17.088  14.681  0.2985  0.2626 -0.1971
23336W        W38467  12.729  10.007  13.912 -0.0755 -0.1315  0.2301
23337W        W38468   1.395   2.203  13.883  0.1336 -0.2523 -0.2070
23338W        W38469   9.507   6.255   5.255 -0.1676  0.1378  0.1402
23339W        W38470  15.431   5.089   1.656  0.2452 -0.2411 -0.0158
23340W        W38471   9.219   3.628  12.053 -0.1630  0.0082 -0.1450
23341W        W38472   2.765   1.607  15.300 -0.2378 -0.1993  0.0977
23342W        W38473   6.961  16.886  12.124 -0.0566 -0.0613  0.2689
23343W        W38474   2.367  10.413   1.446 -0.3151 -0.2234 -0.1843
23344W        W38475  10.642  17.670   0.941 -0.0523 -0.0132  0.0916
23345W        W38476  12.868   3.435  14.698 -0.0402 -0.1588  0.3759
23346W        W38477  15.473  12.644  12.020  0.0321 -0.3242  0.0450
23347W        W38478  15.348  18.235  11.128  0.0709  0.2004 -0.2857
23348W        W38479   4.862   7.986  11.178  0.4527  0.2074 -0.2190
23349W        W38480  13.345   0.815   2.129 -0.2317  0.1755 -0.0641
23350W        W38481  10.635   9.303  14.903  0.0238  0.0025  0.0602
23351W        W38482   6.249  12.050  12.272  0.1220 -0.0776 -0.4720
23352W        W38483   9.003   6.933  11.000 -0.2297  0.0578  0.0071
23353W        W38484   2.803  12.039  15.101 -0.0607 -0.0915 -0.2023
23354W        W38485  11.819  11.513   5.199 -0.2273  0.3199 -0.0120
23355W        W38486   8.141   1.012   4.360 -0.1521 -0.2253 -0.2244
23356W        W38487  13.106  14.529   3.936 -0.0303 -0.0507 -0.0832
23357W        W38488   0.434  15.323   4.302 -0.3534  0.1729  0.4497
23358W        W38489  14.507   6.374  12.355  0.1528  0.2058 -0.2117
23359W        W38490   2.230  16.660  15.552 -0.0508 -0.0275 -0.1275
23360W        W38491  18.317   8.397  12.669  0.0316  0.1085 -0.2088
23361W        W38492   8.408   0.420   2.221  0.2210  0.1343  0.2253
23362W        W38493   9.221   7.498   2.479 -0.0583  0.2227 -0.1350
23363W        W38494  15.254   4.006  15.062  0.0078 -0.1976  0.0309
23364W        W38495  14.746   2.332  14.207  0.0071 -0.1328  0.0601
23365W        W38496  17.887   3.137   1.059  0.1951 -0.1741 -0.5946
23366W        W38497   8.433  15.677  12.395  0.3103 -0.4236 -0.2150
23367W        W38498  12.120   6.183   4.342  0.1986  0.1052  0.1774
23368W        W38499   0.570   6.035  14.346  0.0357  0.0063  0.0432
23369W        W38500  17.046  14.637   1.135  0.1618 -0.1221  0.0118
23370W        W38501   9.033   0.006   2.744 -0.0617 -0.0170 -0.2722
23371W        W38502  12.927   0.453   0.950  0.1058 -0.1165 -0.1211
23372W        W38503  14.941   3.493   0.859 -0.0775  0.0255  0.1398
23373W        W38504   9.292   8.628  15.124  0.0272  0.0919  0.3019
23374W        W38505   8.073  13.203   2.567 -0.3260  0.1212  0.0405
23375W        W38506  12.759  14.513   9.609 -0.3385  0.0559  0.1722
23376W        W38507  17.553  10.409   1.531 -0.1007 -0.1140 -0.2716
23377W        W38508   0.841  15.690   0.614 -0.4987 -0.0017 -0.1157
23378W        W38509  14.198  10.028  12.583  0.0463 -0.1455 -0.2233
23379W        W38510   9.524   4.448  12.003  0.0765  0.2913  0.0424
23380W        W38511   4.018   1.228  11.401  0.2944 -0.0715  0.0124
23381W        W38512  10.589  11.179   2.896 -0.4431  0.2373  0.1589
23382W        W38513   9.888  11.607  13.801  0.1157  0.0648  0.1036
23383W        W38514   9.433  16.771   0.639 -0.0205 -0.3655 -0.0416
23384W        W38515   2.152  17.137  15.395 -0.2509 -0.2127  0.0588
23385W        W38516  17.337   3.650  11.545  0.0073 -0.1485 -0.4170
23386W        W38517   4.091  17.156   1.008 -0.1489 -0.0201  0.1809
23387W        W38518  14.185  14.508  12.207 -0.0561 -0.1945 -0.0956
23388W        W38519  14.152   1.477  13.611  0.1527  0.0364  0.0604
23389W        W38520  17.878   1.701   0.161 -0.1278  0.1009 -0.0292
23390W        W38521  13.803  10.952   1.254 -0.4462  0.0716  0.3651
23391W        W38522   3.668  16.613   0.495  0.1680  0.2059  0.3987
23392W        W38523   6.730   1.650   5.311 -0.0901  0.1925  0.0027
23393W        W38524   4.298   7.958  15.610 -0.2350 -0.1559 -0.0728
23394W        W38525  12.380   0.441   2.275  0.0895 -0.0687 -0.4655
23395W        W38526  16.229   7.868  15.643  0.2549  0.1147 -0.0667
23396W        W38527  16.718   5.089  11.661  0.0465 -0.0089 -0.0115
23397W        W38528  10.226  10.267  14.954 -0.0087  0.3865 -0.0743
23398W        W38529  17.416   2.857   2.112  0.0297  0.4026  0.1451
23399W        W38530  12.933  12.698   3.065 -0.0894  0.1102  0.0242
23400W        W38531   7.679   1.929   5.626 -0.0027  0.3797  0.0117
23401W        W38532   2.235  15.060   0.866  0.1903  0.1882  0.1933
23402W        W38533   7.500  11.653   3.233  0.1739  0.0485 -0.0434
23403W        W38534   8.568   1.233   1.125  0.2059 -0.1845  0.0527
23404W        W38535  15.789   7.047   2.885 -0.1043 -0.0489 -0.0868
23405W        W38536   7.103  18.232   3.565 -0.0241  0.0846 -0.1165
23406W        W38537  13.195  14.779   0.575 -0.0690 -0.0695  0.0615
23407W        W38538  17.850   8.744  13.188  0.2388  0.1050  0.1323
23408W        W38539   5.982  16.153  12.827  0.2754  0.0800  0.3555
23409W        W38540   1.046  14.774  12.260  0.1043 -0.2207 -0.1951
23410W        W38541  13.261  10.322  13.866  0.0410 -0.0124 -0.5122
23411W        W38542  11.621   8.709   4.280  0.3166  0.0933  0.1705
23412W        W38543  15.359  17.300  13.941  0.3788  0.1750 -0.1634
23413W        W38544  16.271  16.228  15.385  0.2022  0.0536  0.0765
23414W        W38545  12.031   2.554  14.538  0.1377  0.3209  0.1216
23415W        W38546   9.585   6.545   0.916 -0.0008 -0.0767  0.1420
23416W        W38547   2.525  11.025  15.274 -0.2389 -0.1322  0.2129
23417W        W38548   0.373  15.948   0.867  0.0251  0.0130 -0.0308
23418W        W38549   2.589   2.423   0.681  0.2797  0.1782  0.1755
23419W        W38550  11.561   2.901   2.166  0.1722  0.3142 -0.0682
23420W        W38551   2.800   8.377  12.859  0.1903  0.1566 -0.0616
23421W        W38552  14.467   1.038  14.514  0.0097 -0.0213 -0.0931
23422W        W38553   2.744   3.444  13.497  0.4902 -0.5367  0.0245
23423W        W38554   3.263  16.990   4.746  0.2387  0.2360  0.0885
23424W        W38555  12.561  13.893  15.186  0.1486  0.2064  0.1397
23425W        W38556  16.043   4.405   0.780  0.2975 -0.1078 -0.0130
23426W        W38557   6.009  12.140   4.334 -0.0408 -0.2280  0.3827
23427W        W38558   0.521   5.144  13.980  0.1245 -0.1157 -0.3308
23428W        W38559  17.862   1.165   0.079 -0.2150  0.1936  0.1415
23429W        W38560  10.617  13.200  10.401  0.2907  0.0014  0.2361
23430W        W38561   1.451   8.055   4.001 -0.1423 -0.0933 -0.0224
23431W        W38562  17.983  13.622   1.203  0.1724  0.2620 -0.3188
23432W        W38563  17.171   8.211   2.141 -0.2580  0.0828 -0.3759
23433W        W38564   7.090  12.853   5.079 -0.0636  0.1006 -0.0035
23434W        W38565  14.087   8.427   2.349  0.0469 -0.2414  0.4584
23435W        W38566   2.894  16.757  13.157 -0.2952  0.0905  0.0516
23436W        W38567   9.509   0.269  12.175  0.1360 -0.1035 -0.0810
23437W        W38568   7.305  17.746   4.995 -0.0233  0.2277 -0.1315
23438W        W38569  14.490  16.468   5.368 -0.0107  0.1646 -0.1544
23439W        W38570   0.882  16.952  13.113 -0.2285  0.0704 -0.3739
23440W        W38571  10.766  13.978  13.424  0.2639  0.0409 -0.0715
23441W        W38572   9.164   5.809  14.564  0.0538  0.0571  0.0414
23442W        W38573  12.823   2.077  15.466 -0.2751  0.3193 -0.0317
23443W        W38574  10.527  10.041   4.767  0.0473  0.1622 -0.1730
23444W        W38575   0.844  11.170   1.417 -0.0957  0.1378 -0.1464
23445W        W38576   9.000   1.234   2.286  0.1414 -0.1904  0.2127
23446W        W38577  10.991  14.393  13.579 -0.0383 -0.0243  0.0610
23447W        W38578  15.228  15.675   4.930  0.0019  0.1334 -0.0444
23448W        W38579   3.256   1.910  15.588  0.3048 -0.0352 -0.0278
23449W        W38580   2.867   2.316   6.542 -0.2355  0.1882  0.0015
23450W        W38581  16.060  16.046   2.204  0.0984  0.1516 -0.2544
23451W        W38582  13.552   9.634   0.996 -0.1213  0.0113  0.2063
23452W        W38583   4.411   3.187   1.738  0.0680 -0.0837  0.1014
23453W        W38584   0.177   2.461   5.226 -0.3132 -0.0120 -0.0465
23454W        W38585  13.408  11.685   4.533 -0.2369 -0.2157  0.0431
23455W        W38586  17.078   6.348  15.983 -0.1107  0.1040  0.1277
23456W        W38587  10.370  16.323  15.370  0.0835  0.0381  0.1724
23457W        W38588   0.313   2.065   2.976 -0.3101 -0.1276  0.0198
23458W        W38589   6.732  10.521  10.545 -0.1170 -0.1911 -0.2164
23459W        W38590  10.084  16.264  10.515  0.5639 -0.2836 -0.2999
23460W        W38591   7.053   7.143   2.151 -0.1228  0.1793 -0.1074
23461W        W38592  14.825   0.582  11.926 -0.0493  0.0457 -0.3364
23462W        W38593   4.769  13.468   4.229 -0.4483  0.1689  0.4161
23463W        W38594   8.302  11.143  11.747  0.0145 -0.2583 -0.1654
23464W        W38595  14.350   2.875  15.669  0.2319 -0.0768 -0.0834
23465W        W38596  13.849   0.306   3.736  0.0657  0.1122 -0.1271
23466W        W38597   6.641   2.448  13.480  0.0859  0.0285  0.1071
23467W        W38598   5.921   6.649  15.391  0.1562 -0.1440  0.1495
23468W        W38599   4.975   9.230   0.268 -0.0513  0.0279  0.1347
23469W        W38600   6.133  12.073   2.897  0.1299  0.2460 -0.3279
23470W        W38601   4.700   4.878   2.927  0.3010 -0.1435  0.0430
23471W        W38602   6.327  13.211  15.146 -0.0058  0.0162 -0.0702
23472W        W38603   5.802  17.860  15.507  0.4327 -0.2014 -0.0323
23473W        W38604   4.432   0.299   5.584  0.1161  0.3166  0.1002
23474W        W38605   5.867   1.053   2.799 -0.2264 -0.0317  0.0033
23475W        W38606   0.168   8.999  12.513  0.0163 -0.1035  0.2178
23476W        W38607   4.720   7.882   5.110  0.2084 -0.0486 -0.3349
23477W        W38608   0.709   9.330   0.706  0.1387 -0.1335 -0.0256
23478W        W38609  11.938   1.634  14.835  0.0895 -0.2410 -0.0539
23479W        W38610  13.013  17.877  11.144 -0.0098  0.2066  0.1698
23480W        W38611  11.494  16.173  11.470 -0.0894 -0.0167  0.0277
23481W        W38612  15.200  13.346   1.612 -0.0837  0.0494  0.1636
23482W        W38613  18.288  15.569   6.029 -0.0474  0.1618  0.1143
23483W        W38614   7.623   5.907   3.823 -0.1882 -0.2454 -0.2403
23484W        W38615  14.943   4.786  16.073 -0.2829  0.0571 -0.2117
23485W        W38616  14.662  15.092  15.631  0.1476 -0.0169  0.0095
23486W        W38617   0.192   8.379   1.006 -0.1371  0.2272  0.0268
23487W        W38618  14.954   0.390   9.980  0.0844 -0.1271 -0.4511
23488W        W38619   1.796  13.969   2.544  0.1681 -0.0807  0.1920
23489W        W38620   8.294   2.189  11.930 -0.0003 -0.0149  0.2388
23490W        W38621  13.920  15.346   5.420 -0.3732  0.1995  0.0765
23491W        W38622   5.489  11.510  15.085 -0.4251 -0.1880 -0.2918
23492W        W38623   0.023  14.244  13.296 -0.0984  0.1244  0.2835
23493W        W38624   1.355   2.948   2.251 -0.2678 -0.2888  0.1103
23494W        W38625  12.595  10.591   5.210 -0.2162 -0.0238  0.1900
23495W        W38626   4.007   6.241   4.036 -0.1003  0.0233 -0.0431
23496W        W38627   4.906  18.127  13.983  0.2461  0.2092 -0.1102
23497W        W38628  16.620   4.631   9.983  0.0330 -0.1754  0.2155
23498W        W38629   2.688   8.711   4.445  0.0849  0.0056 -0.1623
23499W        W38630  14.373   3.898  15.090 -0.1929  0.0865  0.0632
23500W        W38631  17.623  14.655  13.257  0.3161 -0.1656  0.1787
23501W        W38632   7.658   9.937  11.798  0.0648  0.2031 -0.3336
23502W        W38633   7.317   9.102   2.050 -0.0529  0.0124  0.0711
23503W        W38634  13.157  16.059  10.557 -0.0876 -0.1240 -0.1537
23504W        W38635  14.584   4.609   1.755 -0.0108 -0.2306 -0.1023
23505W        W38636  16.409   7.262  15.844  0.0846 -0.2857 -0.1333
23506W        W38637   3.576  15.399   2.601  0.0397  0.1879 -0.1834
23507W        W38638  12.654   6.155   4.794  0.1918  0.3079 -0.0214
23508W        W38639   2.960   8.362   3.993  0.1494 -0.1720  0.2403
23509W        W38640   6.625  15.061   2.916  0.0545 -0.0361 -0.2311
23510W        W38641   9.818  18.247   2.150 -0.1064  0.2119 -0.1497
23511W        W38642  15.109  10.809   1.326  0.0750 -0.2864 -0.3005
23512W        W38643  17.409  17.612  14.885  0.2767  0.2362 -0.2855
23513W        W38644   1.103  17.952   1.649  0.1827  0.2105  0.3329
23514W        W38645   1.157   2.621  13.861 -0.1869  0.2639 -0.0157
23515W        W38646   4.122  17.519  13.977  0.1926  0.0136 -0.1372
23516W        W38647  14.238   5.049  11.570  0.4002  0.1181 -0.1867
23517W        W38648   8.197   7.704  12.596 -0.1224 -0.3652  0.2916
23518W        W38649   3.567  12.556  11.492  0.1877  0.1946  0.0943
23519W        W38650   4.227   7.901   1.581  0.1355  0.3887 -0.1739
23520W        W38651   1.770   3.375  12.460  0.0597 -0.1084  0.0142
23521W        W38652   8.513  17.723   3.045  0.1768  0.1445  0.0406
23522W        W38653   3.395   2.337  12.045  0.0413 -0.2869 -0.0259
23523W        W38654  16.350   0.389   3.569 -0.2630  0.1381  0.0161
23524W        W38655  10.337  15.554  12.367  0.3233  0.4712 -0.0475
23525W        W38656   9.434   6.238  12.872  0.0014  0.3656  0.0289
23526W        W38657   9.435  16.616  13.346 -0.0254  0.0185 -0.3375
23527W        W38658  17.471  12.279   2.790  0.1479 -0.0664 -0.0265
23528W        W38659  10.286   7.730   2.141  0.0886  0.1638 -0.3902
23529W        W38660   4.569   8.728   4.806  0.0390 -0.3169 -0.1493
23530W        W38661  15.637   4.688  13.804 -0.2428  0.2613  0.2558
23531W        W38662   1.533   7.335   2.586 -0.1802  0.0489 -0.0442
23532W        W38663  10.150   0.415  13.542 -0.0751 -0.0458 -0.1540
23533W        W38664   6.632  12.297  11.878  0.3559  0.1003 -0.1199
23534W        W38665   3.386  15.703  12.733 -0.0336  0.3225 -0.2757
23535W        W38666   5.660   6.468  11.156  0.1121 -0.2025 -0.0433
23536W        W38667   4.185   6.662  15.049  0.0879  0.0749 -0.2180
23537W        W38668  15.857  14.944   2.582  0.2364  0.1589  0.5250
23538W        W38669   1.872  11.638   2.287  0.0877  0.2836 -0.0949
23539W        W38670  16.586  15.425  12.566 -0.3357  0.0479 -0.1503
23540W        W38671  10.704  14.946  15.280  0.1044 -0.1084  0.1087
23541W        W38672   9.501  16.600  11.345  0.1566 -0.1179  0.0877
23542W        W38673  16.901   8.320  13.956  0.2820 -0.6705  0.2633
23543W        W38674   6.354  14.959  11.229 -0.3959  0.0526 -0.0030
23544W        W38675   7.942   4.318   5.293 -0.3018  0.4431 -0.0607
23545W        W38676   3.155   4.898  11.383 -0.1623 -0.3180 -0.1217
23546W        W38677   9.977   5.061  14.421  0.2307  0.2288 -0.1131
23547W        W38678   0.904   1.196  14.733  0.4796  0.4459  0.1561
23548W        W38679  13.859  12.088   3.287 -0.3103  0.1750  0.0196
23549W        W38680   3.486  17.345   5.018  0.0323 -0.0753 -0.1049
23550W        W38681   2.003  11.764   4.712 -0.1742  0.1023  0.1334
23551W        W38682   3.926  14.658  13.128 -0.0486  0.1921 -0.0233
23552W        W38683   4.829   8.244   0.455 -0.0063 -0.2015  0.1564
23553W        W38684   5.719   8.942   1.236  0.1925 -0.4040  0.1529
23554W        W38685   2.907  12.114   3.309  0.0175 -0.0444 -0.2215
23555W        W38686   5.730   3.444   2.709 -0.0525 -0.0586 -0.0957
23556W        W38687  12.436  15.457   4.979  0.1709  0.0460 -0.0682
23557W        W38688   0.456  12.041  12.523  0.3249 -0.0546  0.3171
23558W        W38689  11.995  14.044  15.828  0.0809 -0.0393  0.1447
23559W        W38690   3.065   1.325   1.116  0.3256 -0.0661  0.2281
23560W        W38691   3.355   4.379  12.812 -0.0496  0.0275  0.3361
23561W        W38692   2.630   4.035  10.950 -0.1678  0.3527  0.2926
23562W        W38693  14.505   7.674  16.018 -0.0406 -0.2569  0.2395
23563W        W38694   4.384   3.231   1.191 -0.2675 -0.1721  0.0718
23564W        W38695   5.284   7.464   1.281 -0.1278 -0.0696 -0.1769
23565W        W38696   2.556  14.124   4.386  0.2814 -0.0315  0.0530
23566W        W38697  17.558   0.741   0.707 -0.0822  0.1166 -0.2046
23567W        W38698   9.392   1.016  13.582  0.4880  0.0407 -0.0270
23568W        W38699   2.657   5.190  15.420  0.2689 -0.1368  0.4016
23569W        W38700  11.454  11.939  15.239 -0.1536 -0.0094 -0.2144
23570W        W38701   5.091   7.055   3.253 -0.1513  0.1385  0.1178
23571W        W38702   0.167  17.155   2.695 -0.1886  0.2915  0.0607
23572W        W38703   7.145  17.708   2.672 -0.0966  0.2023  0.0331
23573W        W38704  14.887  14.496  13.949  0.1963  0.0551  0.0806
23574W        W38705  13.676  15.349  13.524  0.2339  0.3104 -0.1435
23575W        W38706  14.654   4.644  14.158 -0.2318 -0.1228  0.0006
23576W        W38707   4.697  12.726  12.757  0.0588 -0.0855 -0.1169
23577W        W38708   0.943  17.901   3.507  0.3287 -0.0051 -0.0125
23578W        W38709   0.822   0.448  14.365  0.3177  0.0374  0.1116
23579W        W38710   4.573  14.491  16.004 -0.0192  0.2176 -0.1087
23580W        W38711   5.791   4.663   2.122  0.1860 -0.2566  0.1087
23581W        W38712  10.714  13.302   1.274  0.0604  0.0608  0.2706
23582W        W38713   4.963   5.247   4.708 -0.1435  0.1912 -0.2633
23583W        W38714   0.347  17.010  13.037  0.0758  0.2518  0.0436
23584W        W38715   7.206   5.846  12.184  0.2053  0.1425  0.2520
23585W        W38716  11.646  15.988   3.309 -0.2893 -0.2554  0.0067
23586W        W38717   2.774  16.526  15.859  0.1299  0.0893 -0.1248
23587W        W38718  10.879   5.735  14.474  0.0574  0.0236  0.3109
23588W        W38719   5.491   1.867   6.138  0.0748  0.1499 -0.0688
23589W        W38720   6.189  14.663  11.918  0.0887  0.0556  0.1618
23590W        W38721  16.663  11.438  15.545 -0.1093  0.0513  0.0213
23591W        W38722   4.738   4.425   6.560 -0.0682  0.0343  0.1998
23592W        W38723   5.538   0.511   4.357 -0.1909  0.0564 -0.3904
23593W        W38724  13.377  11.162   0.691  0.3394  0.3568  0.0508
23594W        W38725  13.654  13.311   3.937  0.1094 -0.0972  0.0253
23595W        W38726   3.006  17.255  11.429 -0.1249 -0.1254 -0.3887
23596W        W38727   6.124   2.462   2.871 -0.1042  0.2686  0.1694
23597W        W38728   8.067  15.461   1.883 -0.2165 -0.1347 -0.0150
23598W        W38729   6.203  12.830   5.133 -0.3083 -0.0531 -0.2518
23599W        W38730   4.737   5.942   5.069  0.0341 -0.2376 -0.3763
23600W        W38731  10.473  17.897  14.600  0.2977 -0.2184 -0.0092
23601W        W38732   6.639   5.287   4.986 -0.0426 -0.1188 -0.0859
23602W        W38733  16.166   5.924  10.642 -0.1430 -0.1916  0.1089
23603W        W38734   0.177   3.983   1.329  0.0188 -0.2279  0.1106
23604W        W38735  17.173   1.415   2.134 -0.1429 -0.0285 -0.0448
23605W        W38736  14.244  13.860   4.450 -0.0469  0.2126  0.0688
23606W        W38737   7.494   7.236   2.371  0.0296 -0.1498  0.0170
23607W        W38738  12.215   8.760  12.366 -0.2050  0.0926  0.2181
23608W        W38739  10.011   5.840   1.272 -0.0814  0.0228 -0.3346
23609W        W38740  14.094  12.732   5.373  0.0148  0.1908  0.1592
23610W        W38741   6.375   4.119   3.069  0.0925 -0.1743  0.0331
23611W        W38742  12.884  18.187  14.754  0.2672 -0.0105  0.0302
23612W        W38743  11.243  15.703   3.434 -0.1272 -0.0751  0.0318
23613W        W38744  14.210  16.685   4.038 -0.2631  0.1895 -0.0165
23614W        W38745  17.887   3.306   3.707 -0.1809 -0.1173  0.1472
23615W        W38746   9.045   9.474   1.492  0.1705  0.3736  0.1732
23616W        W38747  14.384   7.182   2.678  0.1504  0.0324 -0.0764
23617W        W38748  16.152   5.117  13.088  0.1402  0.0164  0.2084
23618W        W38749   9.223   4.133  15.677 -0.1203 -0.0983 -0.2247
23619W        W38750  16.512   3.275  11.233 -0.1802 -0.0149  0.1706
23620W        W38751   5.900  12.940   4.669  0.0117 -0.1863 -0.2158
23621W        W38752   6.118   3.267  14.326 -0.2646 -0.1665  0.2283
23622W        W38753   5.249  10.248   4.277  0.0933 -0.0119  0.1617
23623W        W38754  10.104   0.820   1.673 -0.0595  0.0804 -0.1421
23624W        W38755  15.700   9.324  13.360  0.0139  0.0671 -0.4391
23625W        W38756  10.023   2.365  12.649 -0.1041  0.1256 -0.0240
23626W        W38757   9.113   7.563  13.239  0.2240 -0.1085  0.0434
23627W        W38758   3.934  10.268  13.046  0.0783  0.4123  0.0424
23628W        W38759   1.128   9.452   2.434 -0.0161  0.0862  0.1582
23629W        W38760   7.114   2.860   1.212 -0.1084  0.1078 -0.1371
23630W        W38761   5.279  11.234   3.267  0.0554 -0.2921 -0.4291
23631W        W38762   6.278   2.802   2.310  0.1076 -0.0864 -0.1812
23632W        W38763  10.605  14.815   5.178 -0.1305 -0.1190  0.0468
23633W        W38764   4.299  16.445  11.984  0.0023 -0.2231  0.1759
23634W        W38765  12.432   0.914   3.866  0.1212 -0.0191 -0.0732
23635W        W38766  12.210  17.428  14.696  0.3034 -0.0807 -0.2140
23636W        W38767   8.276   6.727   2.175 -0.0988 -0.0472  0.1157
23637W        W38768   1.424  16.172   6.022  0.0070 -0.3901  0.1209
23638W        W38769   3.574  15.319   5.869 -0.0946  0.1271  0.1884
23639W        W38770  15.159   4.550   4.949  0.3681 -0.0321  0.1240
23640W        W38771  11.405   1.220   2.995 -0.0115  0.0318  0.0274
23641W        W38772   9.749  11.508   0.883 -0.3706  0.1203  0.2202
23642W        W38773   3.983   7.203  12.502  0.2285 -0.0611 -0.3286
23643W        W38774   1.267  16.169   5.479 -0.5615  0.0686  0.1425
23644W        W38775   7.241  15.870  15.272 -0.0570  0.0995  0.0539
23645W        W38776   9.114  13.225  11.738  0.0245 -0.0273 -0.1257
23646W        W38777   1.880   5.037   2.358  0.0384 -0.1400 -0.1924
23647W        W38778  16.561  14.298   4.276  0.0109 -0.2436  0.0664
23648W        W38779  14.803   8.875   1.385 -0.1269 -0.0857 -0.2092
23649W        W38780  13.528  10.517  16.074  0.3110 -0.0690  0.1475
23650W        W38781   3.270  11.952   5.073  0.0124 -0.3051 -0.4273
23651W        W38782  17.732   5.161   3.074 -0.1923  0.0770  0.0131
23652W        W38783   2.788   0.819   5.315 -0.0624  0.0810 -0.3100
23653W        W38784   0.383  14.011   3.917  0.0729  0.2445 -0.2391
23654W        W38785  16.391  17.236   4.571  0.1609 -0.0444 -0.0325
23655W        W38786   1.898  13.792  12.198 -0.0205 -0.1963  0.2467
23656W        W38787   4.312   6.862   4.643 -0.1545  0.1219 -0.0168
23657W        W38788   7.620  13.931  13.510  0.1355 -0.0220 -0.0027
23658W        W38789   0.348   0.088   3.041 -0.0398  0.2296  0.0696
23659W        W38790  15.771  10.194   4.553 -0.0826 -0.0529 -0.0461
23660W        W38791  12.523   6.142   5.570  0.2039 -0.0739 -0.0389
23661W        W38792   5.379  17.947   3.556  0.0277  0.1106  0.1310
23662W        W38793   1.820   5.115  13.400  0.0711 -0.1929 -0.0247
23663W        W38794   3.642  16.680   5.538 -0.1101  0.0134 -0.2500
23664W        W38795   5.505   0.501   0.961  0.2609 -0.2799 -0.0647
23665W        W38796  14.736  14.924   0.855 -0.1974  0.1425  0.1447
23666W        W38797   4.405   2.371  12.211 -0.2727  0.2682 -0.0286
23667W        W38798   0.252  16.706  14.368  0.3660 -0.2781 -0.1925
23668W        W38799   4.985  16.632   6.084  0.1090  0.0577 -0.2444
23669W        W38800   2.925  17.610  14.944  0.1834  0.3432  0.3536
23670W        W38801   6.391  14.160  11.949 -0.0685  0.3313  0.3653
23671W        W38802  16.329   9.820  13.978 -0.0893  0.1128 -0.1651
23672W        W38803   0.421   8.238   3.174 -0.0207 -0.2287 -0.0071
23673W        W38804   5.489   5.443  12.183 -0.3456  0.0007 -0.0504
23674W        W38805   7.950  16.834  13.305  0.2046  0.2762  0.3506
23675W        W38806   3.825   5.703   3.427 -0.2589 -0.1829  0.0279
23676W        W38807   0.856   1.853   4.294 -0.2802 -0.3442 -0.2363
23677W        W38808  13.577  13.210  13.088  0.1589  0.1265 -0.4392
23678W        W38809  17.157   9.520  15.533  0.0210  0.0722  0.0847
23679W        W38810  17.227   2.993  15.177 -0.1339  0.1035 -0.0352
23680W        W38811   5.883  14.685  14.843  0.0857 -0.0217  0.1351
23681W        W38812  16.709   9.507   5.401 -0.2069  0.1145 -0.3347
23682W        W38813   7.484   1.673   0.524 -0.0095  0.0419 -0.2644
23683W        W38814   2.688  15.102   0.484 -0.0824  0.1541 -0.2543
23684W        W38815  12.645   8.309  11.273  0.2832  0.0272  0.1036
23685W        W38816   5.111  12.338  11.441  0.0405  0.0382  0.0587
23686W        W38817   1.385  12.866   0.301 -0.0348 -0.3657 -0.0556
23687W        W38818   8.643  13.413  11.668  0.2947 -0.0211 -0.0278
23688W        W38819  15.036   4.938  11.644 -0.2235 -0.3047  0.2412
23689W        W38820  14.807  16.186   3.150  0.0277 -0.1058  0.1494
23690W        W38821  16.335   2.552   4.980 -0.2105 -0.2132  0.0587
23691W        W38822   6.520   8.263   1.241 -0.1003 -0.0767  0.0796
23692W        W38823  16.587  11.694   9.765  0.1365  0.0988 -0.0266
23693W        W38824   0.690   4.119   4.361  0.0393 -0.3410  0.0348
23694W        W38825  14.515   1.634   5.049  0.2392 -0.1236  0.1271
23695W        W38826   1.992  18.018   1.724 -0.0783  0.0624  0.2494
23696W        W38827  15.527  16.012  13.956 -0.1909  0.1630  0.0443
23697W        W38828   7.811   2.365  14.048 -0.1350 -0.4530  0.2770
23698W        W38829  11.072   9.805   2.344  0.2586 -0.1213 -0.4468
23699W        W38830  12.220  10.952   3.846  0.0190  0.0387  0.2087
23700W        W38831  16.864   8.623  13.514  0.1781 -0.0933 -0.0850
23701W        W38832  13.949   9.559  14.721  0.2563  0.1646 -0.1581
23702W        W38833   9.156   8.587  12.499  0.2278 -0.0077 -0.2780
23703W        W38834   9.018   5.475   0.987  0.1723  0.1359  0.3358
23704W        W38835   1.925  15.119   3.092  0.1814 -0.1849  0.1970
23705W        W38836  17.148  11.647  14.351  0.0510 -0.0666 -0.0237
23706W        W38837   1.849   1.078  12.000 -0.4824 -0.0488 -0.1233
23707W        W38838   4.446  15.537   6.623 -0.0400  0.1336 -0.0709
23708W        W38839   3.948  17.325   3.684 -0.1243  0.1126 -0.0916
23709W        W38840   3.713   8.976   3.745 -0.1254 -0.4373  0.2702
23710W        W38841  11.804   7.236   3.236  0.2717  0.0463  0.0297
23711W        W38842  11.411   2.139   2.675  0.2346  0.1515 -0.0643
23712W        W38843  10.383   8.416   3.072 -0.0570 -0.0991  0.1910
23713W        W38844  11.897  15.037  11.358 -0.0319  0.0092  0.1106
23714W        W38845  12.509  12.514   1.330  0.2182 -0.0789 -0.0370
23715W        W38846   2.045   7.365  15.676 -0.0461 -0.0822  0.2504
23716W        W38847   1.487  14.768   3.611 -0.0133  0.0967 -0.4229
23717W        W38848  13.985  11.025   4.284  0.1812  0.1812 -0.1352
23718W        W38849   9.985  11.262  12.455  0.0716  0.1668 -0.1570
23719W        W38850  17.481  15.693  14.685 -0.2337  0.0100  0.0914
23720W        W38851   2.307  13.253  10.273  0.0138 -0.0665  0.0739
23721W        W38852   2.422  17.161   5.833  0.3602  0.1971  0.0600
23722W        W38853  11.156  12.640   5.242  0.1403 -0.1570  0.2383
23723W        W38854  14.832  13.485  11.458  0.1756  0.1280  0.3419
23724W        W38855  13.265  11.095  15.348  0.0676  0.0584 -0.0994
23725W        W38856  12.444   9.910   4.621  0.2534  0.1637 -0.2796
23726W        W38857   0.673   7.782  12.405 -0.2639 -0.2136  0.0005
23727W        W38858  14.121   2.110   0.126  0.0098  0.0309 -0.4512
23728W        W38859   2.784  10.578   0.379 -0.2988  0.1874  0.0261
23729W        W38860   7.778   8.039  13.898  0.0846  0.0312 -0.1168
23730W        W38861  10.114   6.158  15.714  0.0860 -0.0276  0.1634
23731W        W38862  15.793   3.172  14.857  0.0406  0.2061 -0.0751
23732W        W38863  16.143  11.670  11.590 -0.1148 -0.0224 -0.1889
23733W        W38864  12.585  15.916  14.563 -0.0378  0.1522 -0.1069
23734W        W38865   6.267  13.342   3.448 -0.0057 -0.0580 -0.1089
23735W        W38866   8.324  14.969  14.480  0.0447 -0.0714  0.1114
23736W        W38867  17.220   9.970  11.953 -0.2388  0.0837 -0.3395
23737W        W38868  13.862   3.505   5.971 -0.1782  0.0247  0.2179
23738W        W38869   3.711   3.416   0.370  0.1050 -0.0877  0.0546
23739W        W38870   9.167  16.364  12.522  0.3228  0.1299 -0.1572
23740W        W38871   0.359   9.612  11.380 -0.0191  0.1167 -0.0145
23741W        W38872  16.003   4.047   0.358  0.1289  0.0231 -0.1263
23742W        W38873   1.833   8.705   4.755  0.0775 -0.0308 -0.0295
23743W        W38874   4.056  15.997  12.110 -0.0802 -0.1833 -0.1643
23744W        W38875   6.598   9.619  12.103 -0.0075  0.1238 -0.0806
23745W        W38876   3.417   9.121   2.686 -0.0654 -0.0624 -0.3178
23746W        W38877  14.984   0.884  11.358 -0.2944  0.0685  0.1137
23747W        W38878   7.219  13.899   2.180  0.2835  0.3832  0.0040
23748W        W38879   4.532  15.526  15.778  0.3223 -0.2472 -0.0810
23749W        W38880  17.008  18.282   0.340 -0.1843  0.2776  0.2360
23750W        W38881  13.342   5.474   0.929 -0.1765  0.2380 -0.0222
23751W        W38882   7.831   5.653  10.924 -0.1949 -0.2738  0.2486
23752W        W38883  16.984   5.460   1.540  0.3730  0.3768 -0.1174
23753W        W38884  16.005  15.561   4.944  0.0171 -0.0106 -0.2181
23754W        W38885  13.417  11.605   5.353 -0.0330  0.3117 -0.4340
23755W        W38886  10.999   6.705   5.081 -0.1375  0.0608 -0.0224
23756W        W38887  17.167  13.051  13.035 -0.0721  0.0139 -0.1911
23757W        W38888   6.469   6.837  11.723  0.0132 -0.2634 -0.0151
23758W        W38889   9.991  14.920   1.374 -0.1990 -0.0642 -0.1341
23759W        W38890   9.568  14.905   4.735 -0.0010 -0.4059  0.0860
23760W        W38891   5.487   3.397  13.230  0.1783  0.0802  0.0806
23761W        W38892   0.120  13.004  11.388 -0.2031 -0.1542 -0.0150
23762W        W38893   9.212  18.307   3.228  0.0849 -0.0391  0.1440
23763W        W38894  16.001   7.137  15.153  0.1419 -0.0558  0.1959
23764W        W38895   4.593   7.806   1.864 -0.3617 -0.0567  0.2893
23765W        W38896   7.344   7.102  13.161 -0.1675 -0.2634  0.3628
23766W        W38897   3.278  17.056   1.511  0.0403  0.0168  0.2335
23767W        W38898   6.052  16.190  15.567  0.3158  0.0563 -0.1049
23768W        W38899   2.099   8.635   2.836 -0.1088  0.0666 -0.1597
23769W        W38900  16.725   4.231   4.440  0.3299 -0.0641 -0.0803
23770W        W38901   5.150  16.853   0.320 -0.1621 -0.2186 -0.2767
23771W        W38902   5.646  11.795   4.429  0.1250  0.0963  0.2820
23772W        W38903  10.677   5.385  14.827  0.2982  0.1190  0.0909
23773W        W38904  16.839  17.316   5.558  0.3243 -0.0693 -0.0297
23774W        W38905   7.717  14.618   4.304 -0.0649 -0.1137  0.0420
23775W        W38906   2.500  12.444  11.165 -0.2067 -0.2319  0.3031
23776W        W38907   0.772   6.579   3.929 -0.1536 -0.0665  0.0953
23777W        W38908   7.933  14.177   4.470  0.0640  0.0299  0.1546
23778W        W38909  11.890   9.868  11.379  0.0497  0.2150 -0.2338
23779W        W38910   6.613  18.110  15.248 -0.0410 -0.0891 -0.2221
23780W        W38911  14.398   0.648   2.870  0.0802  0.0679  0.0493
23781W        W38912  14.915   2.941   4.484  0.0445 -0.2972  0.1196
23782W        W38913  15.627   0.063  14.934  0.1968  0.1094  0.0185
23783W        W38914   8.132   7.713  15.614 -0.0391 -0.0671  0.1558
23784W        W38915   3.202   8.888   1.912  0.1833 -0.4647  0.1220
23785W        W38916   5.671  15.284  12.483  0.0734 -0.0229  0.1131
23786W        W38917   8.763   5.210   3.418 -0.0307 -0.2505 -0.0999
23787W        W38918   8.883   4.475  13.885 -0.2444 -0.2253  0.0793
23788W        W38919   7.240   9.039  13.523  0.0975 -0.0421  0.2906
23789W        W38920  14.164   3.828  14.667  0.1441 -0.0256 -0.2736
23790W        W38921  18.270   5.503   4.540  0.1672  0.1963  0.1875
23791W        W38922  10.926  16.575   5.286  0.0416  0.1752  0.0736
23792W        W38923  13.565   5.343  11.788  0.0926  0.1229  0.0156
23793W        W38924  10.427   5.235  12.976  0.1844  0.2112 -0.2111
23794W        W38925  12.881  10.173  12.510  0.2208  0.3084 -0.1324
23795W        W38926   1.619  14.690   0.869  0.2735 -0.2283  0.0711
23796W        W38927  12.664   0.514   2.807 -0.0733 -0.1485 -0.0783
23797W        W38928  15.187   5.679  14.949 -0.0153 -0.0469  0.0849
23798W        W38929  13.589  14.774   2.977  0.0350  0.1497  0.0733
23799W        W38930   2.207   3.479   0.031  0.2586  0.2573  0.1880
23800W        W38931  16.669  10.964   3.192  0.2576  0.2696 -0.0309
23801W        W38932   8.823   7.778   5.161 -0.1045 -0.1964 -0.1209
23802W        W38933  11.937  14.615   4.839  0.3590 -0.0085 -0.4975
23803W        W38934   2.429   3.832   4.742  0.3900 -0.1813  0.4555
23804W        W38935  13.874  15.471   4.804 -0.2236 -0.1381 -0.1848
23805W        W38936   9.767   6.326  12.509  0.1791  0.2492 -0.1058
23806W        W38937  13.441  18.057  13.890  0.2264 -0.2669 -0.1900
23807W        W38938  18.177  15.411  11.944  0.0782 -0.1309 -0.0953
23808W        W38939  17.585   2.301   2.213 -0.2439 -0.2264 -0.1015
23809W        W38940   0.689  15.300  15.911 -0.2064 -0.1456 -0.2740
23810W        W38941   9.091   5.074  10.934 -0.0588 -0.2035 -0.3309
23811W        W38942  17.638   8.576  14.455  0.1717 -0.1391  0.0101
23812W        W38943   8.763  16.005  12.224 -0.2265 -0.1829  0.0273
23813W        W38944  11.786   5.351  11.949  0.1186 -0.1132  0.0829
23814W        W38945   6.954   4.473   3.331  0.0306  0.2799  0.3629
23815W        W38946  11.226   5.902   1.926 -0.2892  0.0713  0.2152
23816W        W38947  17.080   2.805  13.939  0.1125 -0.1765 -0.2457
23817W        W38948   7.365  17.040  10.917  0.0649  0.0135 -0.3568
23818W        W38949  13.095   5.190   4.579  0.2096  0.1716  0.0232
23819W        W38950  13.504  13.157   0.880  0.3178 -0.0065  0.0930
23820W        W38951  10.872   6.107   5.628 -0.1158  0.0505 -0.1626
23821W        W38952   9.139   6.966   4.704 -0.0270 -0.2218 -0.0682
23822W        W38953   8.867   4.409   2.588  0.0408  0.1605  0.0190
23823W        W38954  17.294  12.952   0.984  0.0923  0.0816  0.0304
23824W        W38955  10.999   8.433  11.816 -0.0084  0.0078 -0.2937
23825W        W38956   2.071   7.856  12.670  0.0129 -0.0178 -0.0054
23826W        W38957  11.257   0.824  15.535 -0.0892  0.0494 -0.3723
23827W        W38958  18.147   4.630   4.366  0.3771  0.3990 -0.0118
23828W        W38959   7.833  14.409   0.068 -0.0870 -0.3991 -0.0714
23829W        W38960   4.026   4.476  11.395 -0.0586  0.2057 -0.1228
23830W        W38961  14.007  16.072  14.109  0.0272  0.0663 -0.2477
23831W        W38962   8.572   2.290   0.796  0.0322  0.0375 -0.0170
23832W        W38963   4.105  12.669   2.949 -0.0440 -0.1838  0.0075
23833W        W38964  13.222   0.533  12.875  0.2231 -0.3073  0.0242
23834W        W38965   5.582  14.227  15.726  0.0326 -0.1800  0.1549
23835W        W38966   4.197  16.468  11.429 -0.0820  0.1159  0.1543
23836W        W38967   2.792   7.124   0.501 -0.4205  0.0023  0.1397
23837W        W38968  11.127  11.180  15.346 -0.6415  0.0961 -0.3289
23838W        W38969   1.549   6.917   1.102 -0.3491 -0.1862 -0.1153
23839W        W38970  10.003  12.446  13.776  0.1965  0.0290  0.3603
23840W        W38971   8.452  15.389   9.743 -0.0423  0.0499 -0.1374
23841W        W38972   9.143   7.800  15.686 -0.1518  0.0372 -0.3511
23842W        W38973  16.333   9.621   5.057  0.0509  0.0942  0.2679
23843W        W38974   0.456  17.716  14.281  0.2446  0.0116 -0.2540
23844W        W38975   8.768  12.667   3.539  0.2825  0.1025 -0.2784
23845W        W38976   3.511   0.759  13.698 -0.0428 -0.0834 -0.0412
23846W        W38977  12.605   8.753   0.077  0.0906  0.0893  0.0670
23847W        W38978  13.594  12.015  16.086 -0.4137 -0.2647  0.0138
23848W        W38979  10.293   0.175   2.330 -0.0800 -0.2091 -0.1869
23849W        W38980   4.112   3.260   5.984 -0.2089 -0.2706  0.0126
23850W        W38981   2.555  15.199   0.016  0.4869 -0.2010  0.0341
23851W        W38982  14.558  14.813   3.380 -0.1638  0.0983 -0.2462
23852W        W38983  12.099   2.106   1.026 -0.0598  0.0610 -0.0291
23853W        W38984  11.412   1.818   3.830 -0.2110  0.2363 -0.0565
23854W        W38985  16.701   6.596  15.241 -0.1056 -0.2371  0.1547
23855W        W38986   2.328   4.053  15.946 -0.2747 -0.3900  0.1475
23856W        W38987   0.121   6.553  10.068  0.1380  0.0333  0.0531
23857W        W38988  16.288  16.241   0.378  0.0336 -0.3424 -0.2005
23858W        W38989   5.762  10.768   0.466  0.0324 -0.1361 -0.3529
23859W        W38990   4.972   6.778  12.397 -0.1375 -0.0319 -0.0117
23860W        W38991   7.609   1.227  11.250  0.2162  0.0881 -0.0187
23861W        W38992  14.502  10.468  12.639  0.0979  0.4507  0.0804
23862W        W38993   0.936   7.996   5.852  0.1070  0.0307 -0.1939
23863W        W38994  10.591   9.770  10.300 -0.1914 -0.1495  0.1232
23864W        W38995  17.204  15.119   3.640 -0.0320  0.1599  0.0321
23865W        W38996  10.201  12.632   1.004 -0.1589  0.0801 -0.2456
23866W        W38997   3.758  11.107   1.088 -0.3669  0.4228 -0.0766
23867W        W38998   5.623   6.374   1.216 -0.1954  0.0401 -0.1593
23868W        W38999   6.065  15.914   0.947  0.0752 -0.2533  0.2752
23869W        W39000   0.746   5.331  15.254  0.0476 -0.0960 -0.4668
23870W        W39001  13.641   9.472   2.270 -0.0968  0.0194 -0.0205
23871W        W39002  18.236  12.914  12.220  0.2108 -0.1511  0.0829
23872W        W39003   5.748   9.480  14.549  0.1956  0.2027 -0.2745
23873W        W39004   3.695   0.280   3.188 -0.0685  0.0187 -0.0574
23874W        W39005   6.244   0.036   2.034  0.0496 -0.0341 -0.0504
23875W        W39006  12.042   5.711  10.073  0.1249  0.0749 -0.0751
23876W        W39007   1.818   1.369   1.296  0.0913  0.2892  0.0979
23877W        W39008   6.793  13.580   4.750  0.1304 -0.1676  0.2151
23878W        W39009  18.114  10.785   2.284 -0.1176 -0.0710  0.4216
23879W        W39010   6.442   4.389  13.348 -0.0669  0.0532 -0.3010
23880W        W39011   5.515   9.116  12.048  0.1124  0.0568 -0.1499
23881W        W39012   8.798  11.967  13.559 -0.0659 -0.1564 -0.1023
23882W        W39013   8.071   0.061   1.407  0.0583  0.1191 -0.0612
23883W        W39014  17.691   3.185   0.146 -0.0542  0.1323  0.2848
23884W        W39015   5.041   3.327   3.218  0.0180 -0.1003 -0.1823
23885W        W39016   3.366  11.396   1.158  0.1418 -0.1231 -0.1408
23886W        W39017   0.682  17.727  13.470  0.0775 -0.2875  0.0796
23887W        W39018  10.625   1.318   3.023  0.0193  0.2776 -0.0688
23888W        W39019   2.579   9.604  14.789  0.2419 -0.0497  0.0372
23889W        W39020   9.260   0.673  13.204 -0.1550  0.1270 -0.0317
23890W        W39021  13.845   2.852   3.707  0.0476 -0.1130 -0.2886
23891W        W39022   9.301  11.378   5.323  0.1239  0.1625 -0.1791
23892W        W39023   2.794   5.456   1.117 -0.3408  0.0908 -0.3535
23893W        W39024   1.527  10.567   3.134  0.0082 -0.1045  0.0421
23894W        W39025  10.438  10.420   0.486  0.0033  0.1903  0.3128
23895W        W39026  10.712  11.630  14.859 -0.0784 -0.0768  0.0251
23896W        W39027   9.341   3.992  10.607 -0.0092 -0.1105  0.3049
23897W        W39028   8.997   0.116  15.714 -0.1865 -0.0344 -0.0526
23898W        W39029  16.145   6.240   1.540  0.3748  0.2009  0.2383
23899W        W39030   6.521   7.573  15.187 -0.0327 -0.4712  0.4007
23900W        W39031  16.423  15.617  15.588 -0.0027 -0.1844  0.1761
23901W        W39032  18.128   6.221  15.033  0.2197 -0.4626  0.1207
23902W        W39033   4.978  13.845   4.456 -0.2431  0.1234  0.0447
23903W        W39034   6.213   4.937  15.759  0.0394  0.2439  0.0796
23904W        W39035   1.938   1.765   2.350  0.3090  0.1151  0.0643
23905W        W39036  13.248   2.456  14.291  0.2131  0.1778  0.4527
23906W        W39037  11.327  15.995   2.201  0.0856 -0.3586  0.0783
23907W        W39038  11.647   0.526   3.717 -0.0990  0.2480  0.1270
23908W        W39039   3.821  11.265   5.262  0.2898 -0.1443 -0.2467
23909W        W39040  14.259  11.066   5.134  0.1016 -0.0328  0.1866
23910W        W39041  14.723   4.871   4.125  0.2237  0.0334 -0.0468
23911W        W39042   5.488   2.483   4.640  0.5077  0.1437 -0.0295
23912W        W39043   7.839  14.531   5.124  0.0643  0.1160 -0.2073
23913W        W39044   4.528   9.126   3.471 -0.2249  0.0177  0.0598
23914W        W39045   8.096  11.075   1.209  0.4623 -0.1841 -0.0233
23915W        W39046   5.122   8.230   1.213 -0.2306 -0.1477  0.0174
23916W        W39047  14.226   2.001   2.294 -0.2929  0.1592 -0.0177
23917W        W39048   4.490   7.429  10.582  0.0162  0.0848  0.0061
23918W        W39049   7.783  15.139  11.268 -0.0078 -0.1532  0.0981
23919W        W39050   7.406   1.437   1.758  0.0270 -0.1060  0.2242
23920W        W39051  13.395  12.922  14.864  0.0365 -0.0967 -0.0363
23921W        W39052   1.639   8.410   3.755  0.0390 -0.3158 -0.0179
23922W        W39053   6.102  10.489   4.530 -0.1047  0.0326 -0.0054
23923W        W39054  15.575  15.556  14.310 -0.0394  0.1845  0.0818
23924W        W39055   8.135  14.691   0.749 -0.4367 -0.2234  0.0453
23925W        W39056   8.705   8.688  12.942 -0.0195  0.2317  0.2629
23926W        W39057  12.133   9.839  12.247 -0.1319  0.2102  0.1907
23927W        W39058  16.844  14.620   5.169  0.1660  0.2335  0.0451
23928W        W39059   3.905  17.553   0.255  0.1470 -0.0134 -0.1405
23929W        W39060   6.241   7.696  15.616 -0.0458 -0.1739  0.0895
23930W        W39061   4.960  13.547  11.825 -0.0268 -0.2286  0.0659
23931W        W39062  11.650  11.909  12.970 -0.3951 -0.2019  0.0155
23932W        W39063   4.019  16.905  11.166 -0.0547  0.1736 -0.0991
23933W        W39064  13.721  15.936   4.769 -0.2252  0.0248  0.3685
23934W        W39065   1.344   3.950   4.949 -0.1638 -0.0995  0.0896
23935W        W39066   0.915   4.578  13.293  0.0294 -0.3583 -0.2937
23936W        W39067   4.312   3.047  13.590  0.3969 -0.1409  0.0458
23937W        W39068  11.530   4.068   0.576  0.0685 -0.1088  0.0623
23938W        W39069  10.683   5.364  12.572 -0.3263 -0.2197 -0.0143
23939W        W39070  10.016  17.208  14.451  0.0087 -0.3288 -0.3730
23940W        W39071   1.341   8.976   4.894  0.1180 -0.0266 -0.2848
23941W        W39072   3.581  11.809  15.173  0.3296  0.2131  0.0349
23942W        W39073  17.674  11.940  14.184 -0.1139  0.2300 -0.1230
23943W        W39074  11.108  15.962   1.224 -0.3258 -0.0692 -0.1250
23944W        W39075  11.672   0.278  13.009  0.0118  0.1236 -0.2164
23945W        W39076  16.937   7.289  14.767  0.1893  0.0410  0.2085
23946W        W39077  16.488  15.842   0.071 -0.0553 -0.0838 -0.1054
23947W        W39078  12.612   0.583   4.752  0.3125  0.2993 -0.1981
23948W        W39079   4.114  15.393  12.252 -0.4325 -0.1368  0.1539
23949W        W39080  14.793   5.702   1.566 -0.0323  0.3351 -0.1283
23950W        W39081  16.334   7.032   2.812 -0.0174 -0.0435  0.1078
23951W        W39082  11.511  15.699   1.129 -0.2117 -0.1921  0.0830
23952W        W39083   7.694  17.193   0.883 -0.0274  0.0993 -0.1785
23953W        W39084   7.923   4.264  12.764 -0.0150 -0.3907  0.4610
23954W        W39085   9.898   2.967   2.850 -0.1538  0.2091 -0.2964
23955W        W39086   1.616   0.490  12.703  0.0379  0.0310  0.0111
23956W        W39087  11.767  14.446   0.028  0.0974  0.0408 -0.1066
23957W        W39088  14.417  14.779  15.251 -0.0161  0.1327  0.2110
23958W        W39089   6.251   5.196   0.453 -0.1759 -0.1799  0.1456
23959W        W39090   7.652  17.170  14.159 -0.1861 -0.0938 -0.0441
23960W        W39091  12.468  15.973  12.602 -0.1727 -0.0908  0.2154
23961W        W39092  10.501  14.384   5.545 -0.3866  0.1849  0.0538
23962W        W39093   4.921  15.633  16.085  0.2934  0.0772  0.0601
23963W        W39094   3.855   3.522   4.580  0.0892  0.4248 -0.1013
23964W        W39095   8.956   1.517   1.332 -0.1832  0.1519  0.2710
23965W        W39096   3.566   0.063   2.770 -0.0802 -0.0008  0.0257
23966W        W39097  10.339  14.645  14.802  0.0656 -0.2817 -0.2163
23967W        W39098   3.645   3.311   3.268 -0.3196 -0.1969 -0.2228
23968W        W39099   8.532   4.420  12.780 -0.1434 -0.2210 -0.1090
23969W        W39100   4.551   1.564   5.509 -0.1229 -0.2274  0.1138
23970W        W39101  12.323  14.595   1.624  0.1176  0.0314  0.1001
23971W        W39102   6.051   7.731  12.788  0.0438 -0.5124 -0.3370
23972W        W39103  16.581  15.826   4.399 -0.1061  0.0797  0.0220
23973W        W39104   2.084   4.602  12.273 -0.0828 -0.1359 -0.0323
23974W        W39105   1.322  15.233   5.646 -0.2742  0.0249  0.0771
23975W        W39106  12.786   3.930  11.706  0.1822  0.1957  0.2309
23976W        W39107   4.524   4.151  14.156 -0.0041 -0.2732  0.0284
23977W        W39108  14.018  16.620  15.046  0.2464  0.1471  0.0371
23978W        W39109  10.538   0.395  11.302 -0.1745  0.0209 -0.0111
23979W        W39110  14.501   8.180   0.787 -0.2882  0.1082  0.3407
23980W        W39111   4.098   7.975  13.463  0.0164  0.3012 -0.1405
23981W        W39112   9.817   3.006  14.862 -0.0708  0.0137  0.3058
23982W        W39113   6.619   1.655   1.208  0.2909  0.1918  0.0479
23983W        W39114   4.902  10.536  10.218  0.0472  0.1019  0.1162
23984W        W39115   3.428   6.301   3.110 -0.1424  0.0183  0.2473
23985W        W39116   0.049  16.137  10.866  0.4960 -0.1343  0.0663
23986W        W39117   0.694   2.523  15.697  0.1825  0.2317  0.0827
23987W        W39118   8.451   8.103  12.823  0.1386 -0.0626 -0.0038
23988W        W39119  11.259   3.732  15.358  0.0431 -0.0584  0.3431
23989W        W39120   7.085   3.501  14.804  0.2052 -0.0457  0.0093
23990W        W39121   8.292   0.590  16.057  0.1444 -0.0310  0.1086
23991W        W39122  14.903  16.425   0.939 -0.0561  0.0313 -0.2435
23992W        W39123  13.692   1.526  14.883 -0.1194  0.1669 -0.1436
23993W        W39124  15.932   3.249  12.010  0.0577 -0.2490  0.1259
23994W        W39125  17.850   0.144   3.007  0.0641  0.0640  0.0709
23995W        W39126   6.189  16.677  11.512  0.0661 -0.0939 -0.1128
23996W        W39127   8.469   0.415   5.726 -0.1441 -0.1409  0.2875
23997W        W39128   4.133  11.696  13.182  0.1821  0.0416  0.1284
23998W        W39129  10.292   7.853  15.358  0.3791  0.2581 -0.1313
23999W        W39130  10.261   7.304  15.639  0.0225  0.1939 -0.3810
24000W        W39131  17.120  14.335   4.230 -0.3145  0.1526 -0.0031
24001W        W39132   5.515   9.122  14.015  0.1551 -0.1719  0.2189
24002W        W39133   3.313   1.569   0.048 -0.0601 -0.3106  0.2353
24003W        W39134   6.018   8.098  15.790 -0.1113 -0.0403  0.0943
24004W        W39135   6.546   4.744   5.110  0.1597  0.0760 -0.1675
24005W        W39136   8.886   8.998   1.427  0.0177  0.2743  0.1644
24006W        W39137  11.013   1.657   4.660  0.3288  0.2485  0.4294
24007W        W39138  11.153  10.489   1.651 -0.0053 -0.3352 -0.2326
24008W        W39139   3.478  13.786  15.875 -0.3790 -0.3327 -0.1423
24009W        W39140   3.227   5.871   1.191 -0.0413  0.2334  0.0989
24010W        W39141  15.027  12.510   1.342 -0.2116  0.1781  0.1254
24011W        W39142  16.409   8.010   0.772  0.1104  0.2338 -0.0422
24012W        W39143  11.324   8.197   5.127  0.1375 -0.1032 -0.2436
24013W        W39144   2.915  10.628   5.031 -0.2346  0.1894  0.0971
24014W        W39145  16.858   7.941   4.940 -0.1797 -0.1319 -0.1294
24015W        W39146  11.774   7.259   0.555 -0.0072  0.1057  0.1797
24016W        W39147  16.005  12.532   2.716  0.0052 -0.1547  0.1675
24017W        W39148  13.093  10.565  15.055 -0.0354  0.0021 -0.0255
24018W        W39149  11.875  17.502  10.632 -0.1293 -0.1108 -0.1442
24019W        W39150  12.479  17.143   1.375 -0.1465 -0.0615 -0.0861
24020W        W39151   9.132  11.795   3.826 -0.3128  0.0750  0.0277
24021W        W39152   0.226  15.594   4.661 -0.1206  0.1837 -0.0262
24022W        W39153   3.045   9.833   4.670  0.2041  0.1274  0.0362
24023W        W39154  17.003  17.970   4.326  0.2421 -0.0533  0.0717
24024W        W39155   6.648  12.976  12.072 -0.2707  0.3685  0.1749
24025W        W39156  13.403   9.683   4.611 -0.0677 -0.1444  0.2135
24026W        W39157  12.884  13.715   5.590  0.1341  0.0373 -0.0073
24027W        W39158  15.668   6.605  15.740 -0.0647 -0.2013 -0.1862
24028W        W39159   7.970   4.915   0.464  0.0239  0.0200 -0.0160
24029W        W39160   5.038  16.309   3.443 -0.2439 -0.0877  0.1092
24030W        W39161  12.957  10.629  12.852  0.0241 -0.0685 -0.0509
24031W        W39162  11.360   8.210   2.204  0.0338  0.1780  0.3509
24032W        W39163  16.380   4.262  14.400  0.0927  0.4596  0.0994
24033W        W39164   9.192   3.175  12.587  0.2702  0.1558 -0.1069
24034W        W39165  12.041   8.359   3.618  0.2715 -0.1292 -0.2330
24035W        W39166  11.287   4.819   2.899  0.0258 -0.3364 -0.0237
24036W        W39167   2.856  13.036  15.072 -0.2424  0.0922  0.0501
24037W        W39168  16.515   2.816   0.180  0.2381 -0.0375 -0.0729
24038W        W39169  14.888  17.462  12.199  0.1847  0.1053 -0.4045
24039W        W39170   4.668   9.659  15.435 -0.2289 -0.3117 -0.0828
24040W        W39171  10.633   8.390   2.595  0.0927 -0.1643  0.2634
24041W        W39172  10.834   7.609  12.356  0.2724  0.2529 -0.0590
24042W        W39173   0.544   1.691   2.546 -0.0140 -0.0575 -0.0392
24043W        W39174   3.432   9.880  11.427 -0.0301  0.4624 -0.1093
24044W        W39175  13.434   3.910   4.127 -0.0685  0.1705 -0.3209
24045W        W39176  16.670  14.872  13.811 -0.2016  0.1667  0.1240
24046W        W39177   5.609  13.668  14.876 -0.0849  0.0028  0.1880
24047W        W39178   0.257   3.882  14.122  0.2997 -0.4733 -0.3550
24048W        W39179   1.622   8.615   5.765 -0.0490 -0.0256  0.0675
24049W        W39180   5.325   9.286   4.153 -0.4387 -0.1790 -0.0474
24050W        W39181   8.702   0.594   4.986 -0.1349  0.5057  0.1828
24051W        W39182  10.582   1.115   1.593  0.0562 -0.4829  0.2668
24052W        W39183   1.018  17.467  15.849  0.0759 -0.1274  0.4722
24053W        W39184   0.310   4.698  11.679  0.1201  0.1436  0.1658
24054W        W39185   3.042  17.773  12.965 -0.0859 -0.0793  0.2124
24055W        W39186  18.182   6.366   4.889 -0.0990  0.0000 -0.0325
24056W        W39187  13.618   9.472  10.536 -0.2153 -0.0190 -0.0762
24057W        W39188   6.654  16.171   4.300 -0.5687 -0.1335  0.0574
24058W        W39189   1.079   0.731  12.076 -0.5084  0.2331  0.0423
24059W        W39190  17.259   6.708  12.672  0.0264  0.0212 -0.0071
24060W        W39191   6.795   6.157  12.054  0.1128 -0.0606 -0.0109
24061W        W39192   6.157  14.235   0.402 -0.1202  0.1467  0.1502
24062W        W39193   3.581   7.142  11.796 -0.0767  0.1151  0.2706
24063W        W39194  11.044  17.841  11.094 -0.1839 -0.0876  0.4602
24064W        W39195   3.193   1.761  15.087 -0.0115  0.2161  0.1728
24065W        W39196  13.812  15.643   4.359 -0.0995  0.0502  0.3186
24066W        W39197   8.475   4.779   6.014  0.1151  0.4440  0.0035
24067W        W39198   9.015   3.789   4.294  0.2363  0.1679  0.1418
24068W        W39199   9.730   2.676   3.257  0.1201  0.0467 -0.0474
24069W        W39200   2.368   7.560   0.494 -0.0804 -0.1406  0.0033
24070W        W39201   5.922   1.929   3.768  0.2207  0.0112  0.0298
24071W        W39202   7.231   1.551   3.160  0.0672  0.1827  0.1999
24072W        W39203   5.350  10.818  13.459  0.2222 -0.2669 -0.1042
24073W        W39204  15.590  12.352   5.125  0.0580  0.3209  0.1687
24074W        W39205  11.436   8.901   0.883  0.2181 -0.1028  0.2615
24075W        W39206   3.377   5.628   3.753  0.1010 -0.4247  0.1355
24076W        W39207   0.437   2.759  13.534  0.0482 -0.0885  0.1838
24077W        W39208   9.688   9.541   4.576  0.1210  0.2565 -0.1134
24078W        W39209  17.932   0.743   1.287 -0.3252 -0.0756  0.4456
24079W        W39210   2.019   1.065  14.878  0.0831  0.2335 -0.1447
24080W        W39211   0.945  14.158   4.048 -0.3708  0.0068 -0.1223
24081W        W39212   3.649   9.278  12.344  0.0818  0.1015  0.1443
24082W        W39213   5.608   4.343   4.622  0.0674  0.0931 -0.1683
24083W        W39214  18.242  10.967  11.375 -0.1106  0.1426  0.0680
24084W        W39215   2.997   0.015   0.735  0.2982 -0.0290  0.1156
24085W        W39216  12.717   0.148  10.596  0.1524  0.3427  0.0345
24086W        W39217  13.432   5.290   5.586 -0.1727  0.0241 -0.0417
24087W        W39218   5.779   2.408   3.853 -0.2716  0.0316 -0.2764
24088W        W39219  14.204   4.607   0.295  0.0376 -0.0178 -0.0564
24089W        W39220   0.189  16.609  12.787  0.0214 -0.0445  0.1155
24090W        W39221   0.283  11.027   4.991 -0.0382 -0.1205 -0.4528
24091W        W39222  14.376  18.327  13.704  0.2632  0.0902 -0.4124
24092W        W39223   8.485   3.211  14.726 -0.0664  0.1872  0.3602
24093W        W39224  14.266  11.941  12.553  0.1427  0.2756  0.1662
24094W        W39225   1.181  15.961   4.995  0.1308 -0.0073  0.1166
24095W        W39226  10.177  13.266  14.250 -0.3913  0.0908 -0.0368
24096W        W39227  17.173  14.666  11.892 -0.1608 -0.1918 -0.1099
24097W        W39228   3.661   0.897   2.765  0.1801 -0.0382 -0.1645
24098W        W39229   1.407   9.995   0.295 -0.2893 -0.2239  0.1152
24099W        W39230   0.549   3.720  10.645 -0.1289 -0.1100  0.0744
24100W        W39231  18.064   8.984  12.811  0.0143 -0.2609 -0.1236
24101W        W39232  18.182  17.158   5.025  0.4324  0.0431  0.1438
24102W        W39233  14.868  13.886  10.685 -0.0450  0.1462 -0.2115
24103W        W39234  18.007   9.994  11.233 -0.0760 -0.1023 -0.0203
24104W        W39235  13.189   7.990   0.399  0.1648  0.1140  0.2544
24105W        W39236   6.023  11.684  10.406 -0.1520  0.0603  0.1125
24106W        W39237  13.836   0.757  12.263  0.0420 -0.0920 -0.0003
24107W        W39238   3.351  13.468   2.658  0.0528  0.0012 -0.0299
24108W        W39239   5.714   4.826   4.805 -0.2405 -0.0543  0.1713
24109W        W39240  13.572  16.206   2.698 -0.2059  0.1712  0.2574
24110W        W39241  17.159  16.357   5.498  0.1497 -0.1371  0.0441
24111W        W39242   7.283   4.123   0.341  0.0596  0.1032  0.4116
24112W        W39243   3.100  11.044  12.231 -0.0654  0.0579  0.2408
24113W        W39244   9.839   5.310   3.836 -0.0142 -0.0320  0.0240
24114W        W39245   7.795  17.652   1.960  0.1737  0.0612 -0.2060
24115W        W39246  11.173  17.809   5.247 -0.2190 -0.1706 -0.0217
24116W        W39247   8.178  10.159  13.954  0.0747  0.1016 -0.1656
24117W        W39248  12.983   0.994  12.802 -0.1210 -0.1481  0.1758
24118W        W39249  10.389   7.913  12.889  0.0044  0.0937 -0.1819
24119W        W39250   1.456  16.485  15.684 -0.0831  0.1411  0.0083
24120W        W39251  13.910  18.151   2.792  0.2818  0.1683  0.0779
24121W        W39252   1.317   8.099   2.955 -0.0243 -0.0886  0.2292
24122W        W39253   0.648  15.303  15.412 -0.0756 -0.0523  0.0074
24123W        W39254   1.346   8.272  15.606 -0.1198  0.0648  0.0330
24124W        W39255   1.172   9.494   2.942  0.0666 -0.0323  0.1571
24125W        W39256  15.060  13.745  15.142  0.0506  0.2932 -0.3946
24126W        W39257  10.931  10.521   3.173 -0.0141  0.0844  0.0978
24127W        W39258   9.322   8.154  14.910 -0.1716  0.2238 -0.4801
24128W        W39259   1.204   0.605   4.540  0.0936  0.0830  0.0109
24129W        W39260  11.596  16.295  14.960 -0.1889 -0.4413 -0.0743
24130W        W39261   8.506  11.253  12.228 -0.1170 -0.0659 -0.0066
24131W        W39262   0.475   8.908   1.002 -0.0961  0.0233 -0.2225
24132W        W39263   7.094   8.945   0.868 -0.2855  0.1618  0.0117
24133W        W39264  17.174   7.947  13.018 -0.2016 -0.0555  0.1272
24134W        W39265   3.512  10.581  10.925  0.0649  0.1428  0.0193
24135W        W39266   0.599  13.619   0.939 -0.2274 -0.1471 -0.2794
24136W        W39267  17.159  10.054  10.187  0.1642 -0.2586 -0.0251
24137W        W39268  18.118  11.741  11.909 -0.1592  0.0136  0.0678
24138W        W39269   6.947  17.876  12.486  0.0217 -0.2911 -0.1104
24139W        W39270  17.455   0.344   2.731 -0.0418  0.3638 -0.4167
24140W        W39271  17.906   8.852  13.784 -0.0858 -0.1718  0.0550
24141W        W39272  11.215   3.944   1.615 -0.1496  0.2322 -0.1089
24142W        W39273   4.542   2.758   1.347 -0.2245  0.0803  0.0578
24143W        W39274   2.906  15.320  15.245 -0.2608  0.0832 -0.1584
24144W        W39275   9.361  13.471   1.669  0.0137 -0.1603 -0.2120
24145W        W39276   8.158   5.161  10.898 -0.1981  0.2628 -0.2137
24146W        W39277   3.395  15.027   2.265 -0.2357 -0.0984  0.0555
24147W        W39278  12.935   1.588  14.188  0.6152  0.2454  0.0409
24148W        W39279  10.979  12.907  15.706 -0.3246 -0.0269 -0.3115
24149W        W39280   1.244   8.076  10.796 -0.3855 -0.0106 -0.3790
24150W        W39281  12.032  12.788   2.045 -0.0564 -0.0170 -0.0024
24151W        W39282  12.895   6.417  12.377  0.1417  0.1184  0.3786
24152W        W39283   7.248  16.031   4.794  0.0328 -0.0830  0.0287
24153W        W39284   4.191  17.480  14.447 -0.0545 -0.0366 -0.0315
24154W        W39285  14.859  14.625   3.699 -0.4045  0.1481  0.2520
24155W        W39286  13.205  18.065  14.339 -0.1541  0.0353  0.2040
24156W        W39287  14.145   8.942   4.352 -0.4380  0.1026 -0.0180
24157W        W39288   4.469  12.598  15.694 -0.1619  0.0488  0.3504
24158W        W39289   5.809   9.327   0.384 -0.0822  0.1083  0.1642
24159W        W39290   0.899   8.402  13.035 -0.0041 -0.1986  0.0001
24160W        W39291   2.320   5.978   5.677 -0.1489  0.1619  0.1737
24161W        W39292  16.056   6.828   4.238 -0.1188 -0.1474  0.2788
24162W        W39293  10.280  10.199   0.885 -0.1811 -0.1740  0.0372
24163W        W39294  11.335  16.617   0.511 -0.0667  0.1967 -0.0455
24164W        W39295   1.096  11.196   4.614 -0.1128 -0.1554 -0.3422
24165W        W39296   2.271   5.911   3.508 -0.0479 -0.3998 -0.0218
24166W        W39297  10.221   4.794   2.634 -0.1688  0.1429 -0.1925
24167W        W39298   7.072   5.099  13.195 -0.2031  0.2135  0.0613
24168W        W39299  10.264  10.008  15.466  0.2306  0.2208 -0.1579
24169W        W39300  10.525  15.775  15.602 -0.1285  0.0336 -0.0203
24170W        W39301   6.700  13.241  15.746 -0.3206 -0.4325  0.0398
24171W        W39302   0.109   9.721   2.955  0.0620  0.4258  0.2794
24172W        W39303   5.207  15.122  11.355  0.0061  0.0884 -0.0448
24173W        W39304  17.971  17.618   3.103  0.0093 -0.2511  0.0020
24174W        W39305  17.256   8.108   2.687 -0.1343  0.1650  0.2797
24175W        W39306   8.774   8.600   3.031  0.4146 -0.1318 -0.1083
24176W        W39307  15.970   0.671   1.857 -0.0610  0.0118 -0.2054
24177W        W39308   1.436  15.811  16.111  0.1635 -0.1890  0.0045
24178W        W39309  12.128  10.569   0.161  0.1919 -0.0439  0.1465
24179W        W39310  12.728  11.897   3.599 -0.2195  0.2736  0.1408
24180W        W39311  12.460  10.430  12.737 -0.2491 -0.0548  0.2791
24181W        W39312   1.866  15.403  13.097 -0.3500  0.1412  0.3170
24182W        W39313  12.100  16.957   4.354 -0.0068  0.1826  0.2317
24183W        W39314  18.162  11.300  12.113  0.1373  0.0841 -0.1666
24184W        W39315   3.981  10.894   4.004 -0.0882 -0.0482 -0.0387
24185W        W39316   7.537  10.026   4.430 -0.1278 -0.1601  0.2771
24186W        W39317   8.531  14.552   2.991  0.2731 -0.0684  0.1264
24187W        W39318  10.511   2.313   5.547  0.0197 -0.1284 -0.0630
24188W        W39319   3.139  14.909  15.645 -0.0413 -0.0246 -0.2654
24189W        W39320  14.003  14.882   3.770 -0.0144 -0.0822  0.0910
24190W        W39321  12.895   1.841   4.014  0.4224  0.1250 -0.0673
24191W        W39322   9.158   5.634  12.393  0.0115 -0.4115  0.0760
24192W        W39323   5.328   9.574  12.399  0.0735  0.1442  0.0055
24193W        W39324   0.806  16.166   5.252  0.1792 -0.3790 -0.0810
24194W        W39325  16.735  11.840  12.216  0.0096 -0.0431  0.0750
24195W        W39326   3.717  10.556  12.045 -0.0481 -0.0074 -0.2580
24196W        W39327   7.836   4.786  16.018 -0.1402 -0.0071 -0.1379
24197W        W39328   3.134   3.274   2.502 -0.2111  0.0707 -0.0514
24198W        W39329   0.156   6.472  11.546 -0.1705  0.0380 -0.1887
24199W        W39330  17.183  15.809  13.834 -0.0291  0.0048 -0.1939
24200W        W39331   9.170   3.079   5.019 -0.1079 -0.1734  0.3597
24201W        W39332  10.898   9.382  11.590 -0.1358  0.2721 -0.0892
24202W        W39333  13.870   5.156  11.172 -0.0547  0.1218 -0.0446
24203W        W39334   8.858  13.580   0.746 -0.0696  0.4809 -0.2512
24204W        W39335   1.793  11.253  15.937  0.1347  0.1391 -0.1461
24205W        W39336  17.085   9.176  12.699  0.0535 -0.0035 -0.1636
24206W        W39337   9.640  15.325  15.949  0.0443  0.0427  0.1676
24207W        W39338   5.060   0.700   1.126 -0.1406 -0.0415  0.0353
24208W        W39339   3.265   8.050  11.385  0.1030  0.0595  0.1091
24209W        W39340   0.741   2.424  11.267  0.0106 -0.1257 -0.1392
24210W        W39341   3.305   9.048   5.277 -0.1549 -0.0502  0.1191
24211W        W39342   9.332   3.488  11.228  0.2717 -0.0249  0.1387
24212W        W39343  11.267  15.028  15.099 -0.0766 -0.3191 -0.3218
24213W        W39344   4.133   7.468  10.909  0.0050  0.0410 -0.0371
24214W        W39345   9.650  17.059   1.511 -0.1103  0.0934 -0.0590
24215W        W39346  12.501  18.092   1.078  0.0930  0.2981 -0.1504
24216W        W39347  15.503  15.760  13.181 -0.0805 -0.1568  0.2981
24217W        W39348  14.507  16.383   2.084  0.1171  0.3156  0.2103
24218W        W39349  13.965   0.866  12.967 -0.1618 -0.0285  0.1654
24219W        W39350  17.832   1.089   3.949  0.2223 -0.1455  0.0960
24220W        W39351   0.097   0.773  15.524  0.1138 -0.0303  0.1112
24221W        W39352   7.476  13.803  15.547 -0.1620 -0.1445 -0.0895
24222W        W39353   1.175   9.301   4.525  0.0885  0.0225 -0.1523
24223W        W39354   8.695   3.954   2.255 -0.0334  0.0575  0.0494
24224W        W39355  13.719   8.790   1.129 -0.0279 -0.1853  0.0320
24225W        W39356  18.285  12.084  12.345 -0.0221 -0.0625 -0.1714
24226W        W39357  10.629  12.511   5.379 -0.0527 -0.1066  0.0791
24227W        W39358   9.927  10.540   3.733 -0.5384 -0.1682  0.1568
24228W        W39359   2.818   3.576   1.462  0.1851  0.0523 -0.0692
24229W        W39360  15.961   5.183   1.772 -0.1734  0.2175  0.2603
24230W        W39361  14.648  10.789   2.633 -0.0071  0.0361  0.1930
24231W        W39362  16.777   0.258   1.416 -0.0980 -0.1810  0.1599
24232W        W39363  13.943  16.151   3.512  0.4336  0.3140  0.0008
24233W        W39364   6.925  14.613  15.420 -0.0311  0.1253 -0.0586
24234W        W39365   3.932   0.495   2.673 -0.1378  0.0780 -0.1626
24235W        W39366   6.541  11.584   1.056 -0.1206 -0.4082  0.0179
24236W        W39367   1.348   3.227   3.984  0.3068 -0.0398  0.1319
24237W        W39368  12.866  10.844   0.580 -0.1140 -0.1491  0.2183
24238W        W39369   0.986   7.405  15.622  0.3399  0.1521 -0.3471
24239W        W39370  13.433  11.705  11.275  0.0786  0.1649 -0.4347
24240W        W39371   4.944   5.990   3.992 -0.0293 -0.2648  0.2660
24241W        W39372   2.000  10.824   4.437  0.0741 -0.0907  0.0506
24242W        W39373  11.827   0.254   4.315 -0.0434 -0.1158  0.0256
24243W        W39374   5.163  17.827   5.689 -0.0833 -0.0412  0.0021
24244W        W39375  13.368  15.764  13.521 -0.0178 -0.0953  0.0982
24245W        W39376  15.713   3.597  15.791 -0.3928  0.0017  0.0795
24246W        W39377   1.260   7.836  15.780  0.0044  0.1369  0.1447
24247W        W39378   1.779  13.941  14.617 -0.1726  0.1494 -0.0874
24248W        W39379   5.565  14.229   3.401  0.0461  0.0766  0.1984
24249W        W39380  17.113  16.829  11.572  0.1019  0.0422 -0.1938
24250W        W39381   4.141  12.087   1.174  0.1513  0.2947  0.0895
24251W        W39382  17.579  17.816  14.406  0.3235 -0.2994 -0.0045
24252W        W39383   5.928  17.617   2.198  0.2250  0.1894  0.0393
24253W        W39384   5.566   4.833  15.835  0.2202 -0.1138 -0.0365
24254W        W39385   7.504  17.094  12.492  0.4115 -0.0480 -0.0770
24255W        W39386  10.091   0.486   5.033  0.0292  0.3049 -0.3611
24256W        W39387   0.840   8.246  14.826 -0.1344  0.0957  0.0450
24257W        W39388  17.338  12.532   0.710 -0.2142  0.3025  0.1274
24258W        W39389   7.939   4.521  11.968 -0.1767  0.0802 -0.0690
24259W        W39390   9.039   9.807  10.910  0.3658 -0.1604 -0.3050
24260W        W39391   9.702  11.215  14.064 -0.1854 -0.0806  0.1958
24261W        W39392   3.270  16.904   0.939  0.2014  0.0726 -0.0169
24262W        W39393   0.191   0.885   5.642 -0.3214  0.1231 -0.3014
24263W        W39394   3.876   8.625   4.967  0.1260 -0.2098  0.1692
24264W        W39395  14.458   3.702   0.828  0.2960 -0.2450  0.2883
24265W        W39396  17.324  14.951  13.513 -0.1327  0.0793 -0.1898
24266W        W39397   1.844   9.809  12.060 -0.0015 -0.1383  0.2491
24267W        W39398  10.178  12.881  15.582 -0.1693  0.3891  0.1613
24268W        W39399   0.273  15.072  15.685 -0.1887  0.1765  0.1590
24269W        W39400   2.305   9.733  15.241  0.0397 -0.0593  0.0266
24270W        W39401  16.082  17.944   0.578  0.3031 -0.1827 -0.2149
24271W        W39402  14.241  10.298   3.852 -0.1676  0.3420 -0.1291
24272W        W39403  15.556  11.923   3.889 -0.1685 -0.2241 -0.2764
24273W        W39404   2.053  17.158  13.620  0.0153  0.0842  0.0789
24274W        W39405   6.604   6.763  10.746  0.2781  0.3173  0.0037
24275W        W39406  10.859  17.474  14.658  0.2477 -0.0212  0.1153
24276W        W39407   7.679  16.372  12.269 -0.0322 -0.2016 -0.2337
24277W        W39408   4.890   5.659  15.799  0.1036  0.0394 -0.1207
24278W        W39409   7.096  13.374   1.931 -0.0395  0.4508  0.3946
24279W        W39410  11.571  10.436  12.434 -0.0532 -0.1833 -0.1557
24280W        W39411   8.996  14.416   4.658  0.3309 -0.1573  0.1457
24281W        W39412  17.180  13.119   2.635  0.3472  0.0677  0.0128
24282W        W39413  11.991   3.196  13.746 -0.2374  0.3111  0.2005
24283W        W39414  18.251  11.703  11.317 -0.2343  0.2599 -0.1239
24284W        W39415   4.547   7.760  12.540 -0.0723 -0.1219  0.0691
24285W        W39416  13.121  13.136   4.857 -0.2988  0.1373 -0.2119
24286W        W39417   5.906  16.062   0.097  0.0771  0.0122  0.0329
24287W        W39418   9.507   9.019  15.378 -0.2083  0.1415  0.0806
24288W        W39419   5.750   6.208   4.225 -0.0379 -0.1483  0.0818
24289W        W39420  13.636   3.885  15.982 -0.2144  0.1832 -0.0227
24290W        W39421  17.344   0.175   5.917 -0.1339  0.0701 -0.0514
24291W        W39422  11.801   9.357  10.624 -0.1626  0.0612 -0.0798
24292W        W39423   3.745   2.759   4.101  0.1685 -0.2485  0.0234
24293W        W39424   0.075   3.583   3.595 -0.0522  0.0390  0.1174
24294W        W39425   6.833   1.314  14.049 -0.2469 -0.1984  0.2069
24295W        W39426  12.980   9.648   4.328  0.1257 -0.2504  0.0719
24296W        W39427  14.575  17.045  12.597  0.1492  0.0883 -0.1438
24297W        W39428  18.152   6.254  16.091  0.0854 -0.0658 -0.0868
24298W        W39429  16.092  10.354   5.032  0.5187  0.1109  0.0830
24299W        W39430  16.805   3.030  14.676 -0.2715  0.1349  0.2326
24300W        W39431  12.958  11.823   0.242  0.0249  0.0183 -0.0301
24301W        W39432   5.595  16.433  14.496  0.3495  0.1657  0.0423
24302W        W39433   8.039   1.598  12.677  0.2646 -0.0437  0.0565
24303W        W39434  16.810   6.634   3.647  0.1225  0.1719  0.0949
24304W        W39435  14.355  13.119  10.775  0.1934 -0.2791  0.2578
24305W        W39436   8.699  12.138   0.783 -0.1409 -0.0465 -0.1623
24306W        W39437   8.083   9.826  10.929  0.1892  0.1055  0.0889
24307W        W39438  13.508  11.161   3.628 -0.3147 -0.0907 -0.0936
24308W        W39439  17.129   3.683   3.177 -0.0339 -0.2568  0.2212
24309W        W39440   3.020   3.685  14.707  0.0206 -0.0376 -0.0330
24310W        W39441  18.028   8.368  15.771 -0.1360  0.0720 -0.0365
24311W        W39442  11.338   4.391   2.254  0.1689 -0.1197  0.2727
24312W        W39443   9.208  11.276   3.819  0.0149  0.3345  0.2330
24313W        W39444  15.972   3.091   5.641 -0.2345 -0.1961 -0.1207
24314W        W39445   6.193   5.752   0.145 -0.3722  0.2389 -0.0447
24315W        W39446   2.180  10.488  14.054 -0.1658 -0.0213 -0.2423
24316W        W39447   1.588  17.239  12.642  0.0769 -0.2366 -0.0955
24317W        W39448  14.494   1.019   5.341 -0.1725 -0.1792 -0.0563
24318W        W39449   4.403  18.225  12.434 -0.0950  0.4189  0.1341
24319W        W39450  11.912  10.239   2.290 -0.3555 -0.1499 -0.0795
24320W        W39451   4.324   9.634  11.470 -0.2111 -0.1322  0.3390
24321W        W39452   9.543   0.761  14.522 -0.1380 -0.1615  0.0552
24322W        W39453   2.795   5.352  10.824 -0.1290 -0.4777  0.1096
24323W        W39454   9.032  12.766   0.233  0.0183 -0.2991  0.1657
24324W        W39455   7.515   5.074  11.690 -0.0368 -0.1761  0.4479
24325W        W39456   1.420   5.966  14.061 -0.0531  0.2505  0.0089
24326W        W39457   2.637   0.011   3.232  0.0547 -0.0585 -0.0960
24327W        W39458  15.589  11.237   0.376  0.2650  0.0597 -0.0584
24328W        W39459  10.786   0.909   1.182  0.1817 -0.2830 -0.0194
24329W        W39460  15.917  15.583   2.934 -0.0998  0.0813  0.0912
24330W        W39461   6.198  16.515   4.273 -0.1629  0.2888  0.2523
24331W        W39462  15.701  15.066  15.000 -0.1111 -0.1988 -0.0617
24332W        W39463  17.806   2.162  15.709 -0.1110 -0.1860 -0.2834
24333W        W39464   6.247   4.473  15.402 -0.3541 -0.1150  0.1313
24334W        W39465   5.337  15.970  14.302 -0.1307 -0.1464  0.3427
24335W        W39466  11.913  16.296  16.012 -0.3214  0.1743 -0.0547
24336W        W39467  14.765   8.821  15.341  0.1985  0.3318  0.1640
24337W        W39468  11.921  11.367   3.650  0.2363  0.0487 -0.2151
24338W        W39469  16.808   6.602  13.018 -0.3947 -0.1226  0.0118
24339W        W39470   2.950  14.056  15.945  0.1520 -0.1959  0.1639
24340W        W39471   8.844  15.329   2.760 -0.0060  0.0882  0.0474
24341W        W39472   2.042  13.014   3.857 -0.0749 -0.3702  0.1963
24342W        W39473   2.434   4.962  15.043 -0.3976  0.3710  0.0372
24343W        W39474   6.450  18.201  14.692 -0.1347 -0.1150 -0.2911
24344W        W39475   8.963   9.893  14.266  0.2437 -0.0964 -0.1369
24345W        W39476  17.523   6.575  10.882  0.2073  0.1758  0.2169
24346W        W39477   3.203   3.564   4.030  0.0033 -0.2550  0.0878
24347W        W39478  16.535   2.123   4.762 -0.2299 -0.2206 -0.1333
24348W        W39479   7.121  11.886   2.024  0.1051  0.1460  0.0251
24349W        W39480   2.412   7.635  14.748  0.2402  0.0436  0.0021
24350W        W39481   7.819  14.923   1.742 -0.0448  0.0438  0.1607
24351W        W39482  14.372   6.116  14.165 -0.0668  0.1107  0.1791
24352W        W39483   1.029   1.659   5.776  0.0305 -0.2449 -0.2022
24353W        W39484   8.351   8.002  11.324 -0.0064  0.2394 -0.1733
24354W        W39485  16.679   2.250  15.163 -0.3515 -0.2121  0.1351
24355W        W39486  16.798   2.755  15.112  0.2313  0.2820  0.0797
24356W        W39487  10.447   5.377   4.365 -0.1122  0.0971 -0.0574
24357W        W39488   8.450  16.549  15.740 -0.3048 -0.2138  0.0690
24358W        W39489   1.558   9.433   1.220  0.0367  0.1644 -0.1129
24359W        W39490  17.296  17.231  12.422  0.2323  0.1584 -0.0629
24360W        W39491   7.513  12.334  11.775 -0.1584 -0.3427  0.4183
24361W        W39492  10.236   4.749  12.062 -0.0325 -0.0130  0.2064
24362W        W39493  14.724  12.780  13.995  0.1875  0.0129  0.1589
24363W        W39494   9.711   3.899  10.984 -0.0328 -0.3326  0.0455
24364W        W39495   0.133   4.861   0.812 -0.1023  0.1593  0.0747
24365W        W39496  16.148  16.037   5.157 -0.0308 -0.1679  0.1978
24366W        W39497   1.595  14.337   6.005 -0.0808 -0.2898  0.1286
24367W        W39498   5.807  13.231  14.204  0.1082  0.0343  0.1959
24368W        W39499   9.559   3.319   1.994  0.0725  0.0557  0.1576
24369W        W39500   7.871   8.521   5.029 -0.0015 -0.2550  0.1616
24370W        W39501   4.419   5.485  13.835 -0.0178  0.0288  0.0663
24371W        W39502  13.033   7.620   2.923 -0.2179  0.2338 -0.2957
24372W        W39503   2.377   1.543  14.904  0.0801  0.0001 -0.0133
24373W        W39504   2.040  11.208  10.838  0.3686  0.0990  0.0097
24374W        W39505  18.224  15.000  15.264 -0.2463  0.0325 -0.1201
24375W        W39506   9.250   2.804   5.867  0.3568  0.0885  0.3675
24376W        W39507   4.729   1.083  10.760 -0.0295 -0.1747 -0.4442
24377W        W39508  17.144   6.300  10.106 -0.0978 -0.2233 -0.0404
24378W        W39509  14.302   2.609   2.845  0.0531  0.1095 -0.0275
24379W        W39510  15.078  15.810   2.522  0.1505  0.1169 -0.0913
24380W        W39511  10.478  11.030  15.001  0.0729 -0.2358 -0.0253
24381W        W39512  12.256  13.016  15.328  0.1577  0.0936 -0.1232
24382W        W39513   5.498  15.853  12.883 -0.0285  0.0786 -0.1800
24383W        W39514   5.753   1.509  11.229  0.1938  0.0775 -0.2693
24384W        W39515   1.226   7.164  13.526 -0.0107 -0.0854 -0.1016
24385W        W39516   6.810   1.306  13.488  0.2653  0.0912 -0.0472
24386W        W39517   7.579   2.587   3.407 -0.0524  0.0135 -0.1512
24387W        W39518  13.537  17.905   4.009 -0.2101  0.0841  0.1561
24388W        W39519  16.236   5.355   0.869 -0.1494 -0.1561  0.0835
24389W        W39520  12.425  12.960  14.815  0.0321 -0.0409 -0.1697
24390W        W39521  10.551   7.560  11.005  0.3521 -0.1371 -0.1373
24391W        W39522   0.445   7.860   4.899 -0.2365 -0.0253 -0.1378
24392W        W39523   4.422   4.642  12.679 -0.2260 -0.0310 -0.1921
24393W        W39524   5.345  16.915  14.051  0.1082 -0.0256  0.0177
24394W        W39525  15.631   0.975  14.801 -0.4542  0.2336 -0.1425
24395W        W39526  17.835   2.539  13.615 -0.1082  0.1226  0.1946
24396W        W39527  15.658   2.616  15.451  0.1507  0.2960 -0.0963
24397W        W39528  14.758   5.183   1.576 -0.1765 -0.1239  0.1721
24398W        W39529  15.691  14.924  12.831  0.2394 -0.0817  0.1787
24399W        W39530   9.816  14.629   3.956 -0.0471  0.0178  0.0584
24400W        W39531   0.129   6.801  13.203 -0.2781  0.0689  0.0576
24401W        W39532  14.682  17.276   2.398  0.4456  0.2785 -0.0085
24402W        W39533   2.051   4.122  12.219 -0.2443 -0.1649  0.3706
24403W        W39534  17.634   9.405  14.714  0.0581  0.0168 -0.0281
24404W        W39535   1.989   9.094   0.920  0.0470 -0.0889  0.1958
24405W        W39536  16.809   1.464  14.483  0.1243 -0.1079 -0.1690
24406W        W39537  11.233   1.890   0.332 -0.0039 -0.0575 -0.1847
24407W        W39538   5.033   1.711   4.287 -0.0028  0.1091  0.0725
24408W        W39539  12.572   6.978   2.395  0.2365 -0.1357 -0.1543
24409W        W39540   2.785   9.663  13.716 -0.0622  0.0248 -0.0633
24410W        W39541   3.599   3.237   5.830 -0.1335  0.0392  0.3245
24411W        W39542   4.582  15.976   1.359 -0.1348 -0.1161  0.0830
24412W        W39543  11.855   9.434  12.132  0.0811 -0.1604 -0.2047
24413W        W39544  14.683  14.693  16.049 -0.1061 -0.0484  0.0661
24414W        W39545  10.624   2.014  11.691  0.0283 -0.0573  0.1879
24415W        W39546   1.149  14.233   3.444 -0.0913  0.0258  0.1440
24416W        W39547  18.315  16.152   1.134 -0.1510 -0.1769 -0.3167
24417W        W39548   6.975  17.790  13.501 -0.0376  0.4975 -0.2046
24418W        W39549   3.316   3.503  11.748 -0.2541  0.2184  0.0506
24419W        W39550  10.188  11.264   1.551  0.0248 -0.0687 -0.2399
24420W        W39551   9.005  17.885  12.774  0.2528  0.0890  0.1755
24421W        W39552   3.997   5.705   2.631  0.0660  0.1300 -0.0052
24422W        W39553   5.881  17.245  10.690  0.0683 -0.1297  0.3022
24423W        W39554   0.632  12.880  13.657 -0.2388 -0.0768 -0.0180
24424W        W39555   2.471   5.637  11.152 -0.0214 -0.2371 -0.2114
24425W        W39556  12.172  13.707  12.387 -0.0057  0.1937  0.2656
24426W        W39557   3.870   7.024  15.928 -0.0202  0.1028 -0.1282
24427W        W39558   3.086  15.581   5.911 -0.2299  0.1394 -0.4048
24428W        W39559  13.858   2.994  14.885 -0.1435 -0.0015 -0.1855
24429W        W39560   2.322   9.034   1.247 -0.3279 -0.0265 -0.2729
24430W        W39561   1.850   5.174  16.023 -0.0608  0.0034  0.2925
24431W        W39562  12.973   8.036  11.530 -0.1515  0.1936  0.0505
24432W        W39563   6.899   8.769  13.962 -0.0986  0.3406 -0.2670
24433W        W39564   4.451  11.431  12.292 -0.0715  0.1280  0.2311
24434W        W39565   3.407  17.508   0.380 -0.2001  0.2489  0.1810
24435W        W39566  11.842   9.748   3.946 -0.1834  0.2363  0.2795
24436W        W39567   3.234   0.522   0.892  0.0938 -0.3012  0.0493
24437W        W39568   2.067   1.546   2.726 -0.0287  0.1922 -0.1617
24438W        W39569  16.812   9.964   1.513  0.0541  0.0573  0.0821
24439W        W39570   9.460   9.562  10.937 -0.0964 -0.0443  0.1067
24440W        W39571   8.879  13.834  14.008  0.1945  0.2307 -0.2819
24441W        W39572  11.321   3.618  11.131 -0.4534 -0.0597  0.5559
24442W        W39573  17.514   1.030   5.312  0.1199  0.1507  0.0526
24443W        W39574   9.471   6.073  15.477 -0.0753 -0.0672 -0.1500
24444W        W39575  17.646   6.881  13.528 -0.1778 -0.2026 -0.0332
24445W        W39576  13.133  14.924   2.893  0.1428 -0.2325  0.0708
24446W        W39577   2.586   0.178  11.291  0.0347 -0.2828  0.1613
24447W        W39578  11.887   9.313  14.688 -0.1490  0.0603 -0.0075
24448W        W39579   6.028   0.163  11.311  0.1695 -0.3217  0.1630
24449W        W39580  14.404  10.995   3.039  0.2889 -0.2773 -0.0173
24450W        W39581   4.119  13.311  12.408  0.3600 -0.1877  0.0706
24451W        W39582  10.769  15.726  13.170  0.2293 -0.2380  0.1249
24452W        W39583   3.836   6.180   2.664  0.0107 -0.0723 -0.1527
24453W        W39584   1.897   4.881   5.243 -0.1367 -0.0177  0.0921
24454W        W39585  16.114   3.425  14.525 -0.1179 -0.2330 -0.2575
24455W        W39586  15.645   3.770   2.116 -0.0303 -0.0978 -0.0122
24456W        W39587  16.467  13.329   0.936 -0.0515  0.1807  0.2478
24457W        W39588  14.368  11.335   4.650  0.1747  0.2349 -0.2992
24458W        W39589  11.454  11.201   2.760  0.1430  0.3534  0.0935
24459W        W39590   8.309  15.951   3.630 -0.0265 -0.2024 -0.0449
24460W        W39591   2.500  17.028  13.359  0.1395  0.1117  0.1337
24461W        W39592   0.845   9.942   4.292  0.1305 -0.2037 -0.0079
24462W        W39593  17.296  16.773   3.011 -0.3137  0.0056 -0.1853
24463W        W39594   8.019   2.539   3.646 -0.1377  0.2910 -0.0941
24464W        W39595  16.737  15.976  15.730  0.0876  0.3648  0.0380
24465W        W39596  10.059  11.049  11.086  0.2114  0.0592 -0.1969
24466W        W39597  15.704   7.834  15.618  0.0485  0.2389  0.3980
24467W        W39598   4.595   4.002   1.889  0.2378  0.0264 -0.0282
24468W        W39599  10.503  13.857  15.853 -0.3209  0.0564 -0.0076
24469W        W39600  11.864   2.588  11.638 -0.1745  0.1054  0.0910
24470W        W39601  15.693  14.171  10.988  0.1310  0.0116 -0.0485
24471W        W39602  12.730   8.535  13.392  0.0512  0.2854  0.0701
24472W        W39603  16.841   8.622  10.288  0.0044 -0.1069 -0.2351
24473W        W39604  17.739  10.898  11.531  0.2428  0.0009 -0.2352
24474W        W39605  18.065   6.605   3.019 -0.0001 -0.0938  0.1647
24475W        W39606   7.495  16.299   0.655 -0.0313 -0.1585  0.3482
24476W        W39607  11.145  13.287   1.563  0.0287  0.2611 -0.1743
24477W        W39608  15.244   2.455   3.649 -0.0690 -0.0438 -0.0525
24478W        W39609   4.131   0.892   2.418  0.1913 -0.2522  0.0618
24479W        W39610   7.751  10.948  12.591 -0.3112  0.3234 -0.0207
24480W        W39611  16.531  11.314  12.218 -0.0341 -0.1777 -0.0590
24481W        W39612   8.798   0.474  13.965 -0.2117  0.0411  0.3451
24482W        W39613  16.155   1.569  12.394  0.1747 -0.1237  0.2264
24483W        W39614   8.816  13.266  13.282  0.0586 -0.1459 -0.1688
24484W        W39615   5.606  14.754   4.664 -0.0164  0.0433 -0.2786
24485W        W39616  15.084   7.425  15.238 -0.0301 -0.3870 -0.0304
24486W        W39617   7.178  16.805  11.629  0.2318 -0.0695  0.1923
24487W        W39618   1.760   5.727   1.005  0.0648  0.0985 -0.2274
24488W        W39619   2.601  10.284   3.829 -0.0069 -0.0367  0.2300
24489W        W39620  10.229  11.304  11.605  0.0600 -0.3842 -0.1323
24490W        W39621  17.891   5.306   3.620  0.0524 -0.0021  0.0687
24491W        W39622   0.299  11.203  12.279  0.2232 -0.0937  0.0625
24492W        W39623  16.191   3.586  11.073 -0.1833 -0.0089  0.0246
24493W        W39624   7.420   1.858   3.602 -0.3902  0.0439  0.0510
24494W        W39625   7.700  12.045  12.200  0.0982  0.0396  0.0462
24495W        W39626   3.865   0.981   1.124  0.1001  0.3063  0.0843
24496W        W39627  12.485   3.433   1.831  0.0668 -0.0669 -0.0260
24497W        W39628   7.354   4.390  14.326 -0.2606 -0.1079  0.1248
24498W        W39629  13.502  13.950  13.756  0.1034 -0.0595  0.0958
24499W        W39630  11.805  13.460   4.491 -0.2132  0.0205  0.1756
24500W        W39631  15.717   2.367  14.908 -0.1974  0.2927 -0.1239
24501W        W39632  13.714  15.953  14.532 -0.2192 -0.0993 -0.1068
24502W        W39633   2.169  16.448   3.092 -0.3459 -0.0417  0.0605
24503W        W39634  10.282  11.761   5.495  0.0795 -0.1336  0.2431
24504W        W39635  15.297  11.148  11.783  0.1086  0.0062  0.3317
24505W        W39636   9.811  13.618   5.654  0.2153 -0.1809  0.1087
24506W        W39637  15.452  17.418   1.615 -0.2866 -0.1944  0.2149
24507W        W39638  17.537  14.738   4.912  0.0414 -0.0202 -0.2706
24508W        W39639   1.464  15.060   6.166  0.0541 -0.0716 -0.0557
24509W        W39640   4.599  15.803  12.981 -0.1429  0.0270 -0.2222
24510W        W39641  18.247  12.814   1.829  0.0742  0.2331 -0.2054
24511W        W39642   7.067  12.672   4.632 -0.3874 -0.2652  0.4003
24512W        W39643  14.253   4.554   2.244  0.1167  0.0838  0.0465
24513W        W39644   5.847   3.567  12.029  0.1106 -0.1146  0.0906
24514W        W39645  16.847   6.036   3.552 -0.3036 -0.0002 -0.0909
24515W        W39646   8.631   3.281   4.014 -0.1860  0.0290  0.1665
24516W        W39647   2.025  11.419  12.914  0.3742  0.1349 -0.1015
24517W        W39648  10.370   7.303  14.616  0.4843 -0.0058 -0.2268
24518W        W39649   7.803   1.892  15.590  0.0385  0.0427 -0.0940
24519W        W39650   6.782   2.860   3.661 -0.2454  0.1473 -0.1957
24520W        W39651  15.597   0.351  12.479 -0.0376 -0.1167 -0.3124
24521W        W39652   1.579   1.194   6.092  0.0445  0.2390  0.1717
24522W        W39653  17.509  16.438   4.596  0.0820 -0.1553  0.4425
24523W        W39654   9.483  15.084  13.229  0.1228 -0.0426 -0.0511
24524W        W39655  13.713  11.364   1.512 -0.1965 -0.3855 -0.0491
24525W        W39656   9.169  10.596   2.104 -0.3277  0.0322 -0.1621
24526W        W39657  10.247   3.405   5.827 -0.1124 -0.0410  0.2903
24527W        W39658  17.849  13.153   4.028  0.2404  0.0692 -0.0381
24528W        W39659   4.012   3.591  15.805 -0.3805  0.3273  0.0443
24529W        W39660   3.050   5.469   3.342  0.4368 -0.1732  0.1360
24530W        W39661  14.662   4.236  13.642  0.0161  0.0873  0.3128
24531W        W39662   1.442  17.041   0.708  0.0988 -0.0056  0.1761
24532W        W39663   5.303   6.362   4.041 -0.0626  0.2078  0.3147
24533W        W39664  13.837  13.360  14.900  0.1042 -0.2382 -0.0076
24534W        W39665  18.238   8.741   4.034  0.0728  0.2406 -0.0318
24535W        W39666  13.237  10.917  12.523 -0.3072 -0.0790  0.1295
24536W        W39667   3.158  10.475  14.750 -0.0141  0.1468  0.4236
24537W        W39668   9.325   6.738   0.534 -0.1637 -0.1994  0.1493
24538W        W39669  11.459   9.440   3.697  0.3639  0.0152 -0.1448
24539W        W39670  14.824   6.452   1.980 -0.1465  0.0419 -0.1158
24540W        W39671   2.076  17.554   6.127  0.0253  0.2507  0.1276
24541W        W39672  12.129  17.958  15.331 -0.1277 -0.3317 -0.0646
24542W        W39673  15.544   5.883  13.403 -0.1449  0.1590  0.1135
24543W        W39674   3.376  10.129  12.265 -0.0346 -0.1931 -0.1110
24544W        W39675   0.573  12.279   2.266  0.1903  0.0726  0.3250
24545W        W39676   9.102  15.167   5.471 -0.1080  0.0855  0.0911
24546W        W39677   7.744  12.669  15.736 -0.1847  0.3288  0.2334
24547W        W39678   0.867  10.313   3.158 -0.0738  0.1147  0.1066
24548W        W39679   7.490   5.119  14.715 -0.1398 -0.2402 -0.1971
24549W        W39680   1.152  10.061   0.883 -0.0890  0.0758 -0.0912
24550W        W39681   9.548   4.719   2.631  0.2192 -0.2736  0.1072
24551W        W39682   3.788   5.377  11.961  0.1406 -0.0171 -0.0806
24552W        W39683  13.668   1.540   0.413  0.0272 -0.0010  0.2807
24553W        W39684   1.842  13.975  14.026 -0.0480  0.2591  0.4988
24554W        W39685  16.022   8.915  10.639 -0.2099  0.1043 -0.3484
24555W        W39686  18.040   0.143  11.463 -0.1638  0.3317 -0.2549
24556W        W39687  11.173  14.366   1.394  0.2958 -0.0236 -0.1307
24557W        W39688  15.879   8.120   3.497  0.1439  0.1941  0.1620
24558W        W39689   1.073  12.666   4.238 -0.3457 -0.1986 -0.2187
24559W        W39690   8.548  14.285  14.095 -0.3068 -0.0532  0.0947
24560W        W39691   6.578  11.064   9.763 -0.1368  0.0199 -0.1609
24561W        W39692  18.183   0.824  11.854 -0.1433  0.0390  0.1375
24562W        W39693   7.957   3.993  15.500  0.0360  0.0496 -0.0114
24563W        W39694   8.708  16.613  14.860 -0.3323 -0.2049 -0.1211
24564W        W39695   8.334  12.999  11.672  0.0579 -0.1306  0.3125
24565W        W39696   1.669  14.802  14.533  0.4021 -0.1807 -0.0429
24566W        W39697  14.163   6.683  12.691 -0.0180 -0.1317  0.3445
24567W        W39698   4.106   0.168  13.711  0.3402  0.0979  0.1824
24568W        W39699   7.272   4.028   3.388 -0.0366  0.1449 -0.1985
24569W        W39700   5.605  17.914  14.271 -0.1420  0.0566  0.2768
24570W        W39701  13.656  17.918  13.022 -0.0296 -0.0318 -0.0541
24571W        W39702  10.399   8.938  14.647  0.1278 -0.3146  0.5979
24572W        W39703  14.775   9.118  14.185 -0.1365 -0.0357 -0.0992
24573W        W39704   2.710  15.843   5.626 -0.1071 -0.2305 -0.0264
24574W        W39705   0.284  11.339  10.370 -0.0158  0.0928  0.1779
24575W        W39706   1.913   4.194  15.653  0.0033  0.1784  0.2922
24576W        W39707  13.784   8.301   1.319 -0.0583  0.2794 -0.2098
24577W        W39708  13.971  17.906  12.407 -0.0538 -0.1819  0.3308
24578W        W39709   3.746  14.173   0.525 -0.2730 -0.0446  0.0368
24579W        W39710  10.175   2.370   3.566 -0.1434 -0.1783  0.1264
24580W        W39711   5.165   4.632  15.556 -0.2849 -0.0254  0.1783
24581W        W39712   7.391   8.749   1.251 -0.1967 -0.2178  0.0228
24582W        W39713  14.973   1.644  10.403 -0.0676 -0.4671 -0.0750
24583W        W39714   1.606  16.831   5.533 -0.1956 -0.3064 -0.0030
24584W        W39715  16.347   0.377   4.669  0.1448  0.2114  0.2658
24585W        W39716  13.903   7.129   1.225  0.0553  0.0936  0.0182
24586W        W39717   0.863  16.438  11.063 -0.0693 -0.0502 -0.1909
24587W        W39718   5.056   9.313  15.749 -0.2586 -0.0527 -0.1980
24588W        W39719  13.410   2.161   0.481  0.0419  0.1608 -0.1631
24589W        W39720   4.738   9.197  11.618  0.1662  0.0575  0.2155
24590W        W39721  18.105  17.952  14.591  0.0046  0.1902 -0.2802
24591W        W39722   3.147  13.333  14.084 -0.0706  0.2725  0.0325
24592W        W39723   9.883  14.697  13.335 -0.1577 -0.0656 -0.2878
24593W        W39724   8.729  16.873   5.063  0.0737 -0.0297  0.0416
24594W        W39725  11.819  12.760  15.387 -0.0218 -0.5243  0.2261
24595W        W39726  14.580  10.631  15.240  0.0021 -0.2581  0.1436
24596W        W39727  14.080   0.162   5.457  0.3062  0.2162 -0.0483
24597W        W39728   4.105  15.282   3.967  0.0704  0.1911 -0.3207
24598W        W39729   9.228   0.668  12.177 -0.4359  0.0069  0.0445
24599W        W39730   4.894  16.414   4.507  0.0038 -0.0098  0.0916
24600W        W39731   8.554   9.888   4.199  0.0221 -0.3196  0.0642
24601W        W39732   4.912   3.049  11.136 -0.1426 -0.4230  0.0623
24602W        W39733  15.317  14.910  10.556  0.0285 -0.0653  0.0352
24603W        W39734  10.478   4.184  11.790 -0.4209 -0.0084 -0.0965
24604W        W39735   1.185   4.359  11.326 -0.0703  0.0268 -0.0594
24605W        W39736   8.921   9.710   1.935 -0.2563 -0.1461 -0.1319
24606W        W39737   8.575   9.677  14.549  0.0629 -0.1230 -0.2581
24607W        W39738   5.671  12.678  13.028 -0.5232 -0.0954  0.0769
24608W        W39739   4.906   6.451   5.219  0.1620  0.1411  0.2422
24609W        W39740   7.033  11.669  10.567  0.0913  0.2908  0.1665
24610W        W39741  12.902  14.384  14.646  0.0614 -0.0685  0.3356
24611W        W39742   5.032   0.608  15.888 -0.2875 -0.0139 -0.4533
24612W        W39743  18.298   0.697  14.463 -0.0343  0.1967  0.0129
24613W        W39744  10.528   2.793  13.894 -0.0111  0.1129  0.0126
24614W        W39745   9.733   0.305  13.156 -0.1642 -0.1041 -0.0076
24615W        W39746   6.583   6.198  14.841 -0.0077 -0.0937 -0.0864
24616W        W39747   0.403  15.861  12.623 -0.3338 -0.3052 -0.2740
24617W        W39748  18.314   3.492  16.062 -0.0574 -0.1964  0.1281
24618W        W39749  11.258   0.824  12.250  0.0475 -0.1230  0.1587
24619W        W39750   6.090   7.130  10.813  0.0276  0.1386  0.0680
24620W        W39751  16.151   9.224  13.717  0.2905  0.3322  0.0494
24621W        W39752   2.593  17.335   0.122  0.1377  0.0929 -0.0039
24622W        W39753   6.933   8.378  15.000  0.2811 -0.1673  0.0248
24623W        W39754  18.043  12.022  14.557  0.1949  0.1420 -0.0814
24624W        W39755  15.789   3.880  13.706 -0.2711  0.1453  0.3258
24625W        W39756  16.679   3.085   0.537  0.2074  0.0250  0.1240
24626W        W39757  15.553  14.388  14.568  0.1336 -0.0188 -0.2054
24627W        W39758  15.614  12.372   4.112  0.2865  0.2747 -0.2451
24628W        W39759  13.209   2.346  14.777  0.1128 -0.0432  0.2974
24629W        W39760   8.490   5.601  15.672 -0.1171 -0.2126 -0.1447
24630W        W39761   9.598   3.623  12.473  0.1822 -0.2235 -0.2615
24631W        W39762   3.374   5.532  12.942 -0.3172  0.4194  0.2072
24632W        W39763  11.474  13.480   1.165  0.0766 -0.1523  0.0457
24633W        W39764  17.962   4.976   2.596  0.2028  0.2140  0.1968
24634W        W39765  14.261   0.353   0.379 -0.1134 -0.1343 -0.3884
24635W        W39766   5.923   8.727   0.808 -0.0107 -0.0379 -0.2036
24636W        W39767   0.159   7.674  15.405 -0.0039 -0.2102 -0.1483
24637W        W39768   9.705   0.455   3.708  0.1484 -0.4114 -0.0088
24638W        W39769  14.569   6.062  11.185 -0.0581 -0.1215  0.1206
24639W        W39770   5.267   7.281  14.404  0.4069 -0.0871 -0.3668
24640W        W39771  10.696  10.289   5.369 -0.0739 -0.0523 -0.0605
24641W        W39772   6.109   4.746   2.532 -0.0100  0.0621  0.1810
24642W        W39773  15.197  11.517  11.360  0.2116 -0.1430 -0.0849
24643W        W39774   4.791  12.475   3.461  0.0839  0.1445  0.2717
24644W        W39775   5.818   3.774   2.297  0.2372  0.2887  0.0255
24645W        W39776   0.068   8.684  13.884 -0.0644 -0.1761 -0.0239
24646W        W39777   6.186  17.193   5.315 -0.3578 -0.2332  0.2662
24647W        W39778   5.983  16.622   1.276 -0.2073 -0.1029  0.1469
24648W        W39779  15.061  12.786   1.826 -0.1165 -0.2298 -0.1599
24649W        W39780   8.229  16.404  11.592  0.2354  0.0912  0.0018
24650W        W39781  14.280   1.485   5.553 -0.0128 -0.2343 -0.0409
24651W        W39782   3.240  11.543  11.313 -0.1167  0.1111 -0.0135
24652W        W39783  17.999  13.280   2.045 -0.0088 -0.3606 -0.3118
24653W        W39784   4.084  15.003  13.853 -0.1516 -0.0930 -0.2523
24654W        W39785   8.837  14.737  12.041  0.1205  0.0569  0.1269
24655W        W39786  12.056   4.119  16.046 -0.0286 -0.0113  0.0845
24656W        W39787   0.359   4.982  15.409 -0.3640 -0.1851  0.0808
24657W        W39788  12.117  11.524   2.638  0.0085 -0.0041  0.1541
24658W        W39789   8.808  16.697   0.690  0.3059  0.0519  0.3343
24659W        W39790   5.317  14.518  14.588 -0.2272 -0.1406 -0.1028
24660W        W39791   7.199   3.314  12.609 -0.2175 -0.1138  0.2223
24661W        W39792  14.102  16.682   1.155  0.2508 -0.0216 -0.6250
24662W        W39793   5.634   2.262  12.747  0.3344 -0.2686  0.1590
24663W        W39794  12.375   5.387  13.202 -0.0511 -0.1065  0.0390
24664W        W39795  18.321  18.286   4.430 -0.0018  0.2412 -0.1215
24665W        W39796  15.281  10.335  11.146 -0.0805  0.1747 -0.1520
24666W        W39797  12.372  11.964   3.243 -0.0740 -0.0270  0.0322
24667W        W39798   9.419   9.148   1.564 -0.0692  0.0435  0.3189
24668W        W39799  13.771   7.080   3.437  0.0594  0.0777 -0.1072
24669W        W39800   8.977   1.097  13.272 -0.2228 -0.0569 -0.1340
24670W        W39801   6.454   3.404   1.873 -0.3000  0.1390  0.2252
24671W        W39802   3.089  11.610   0.563  0.1739  0.1057  0.0498
24672W        W39803   6.992   3.158  13.594 -0.0641 -0.2220 -0.2585
24673W        W39804  16.067  10.478  14.476 -0.2266 -0.0062  0.3825
24674W        W39805  12.637   4.759   3.464 -0.4492 -0.1074 -0.1820
24675W        W39806   3.330   8.149   4.235 -0.0555  0.0154 -0.0894
24676W        W39807  13.261   8.052  15.017 -0.0483 -0.0889  0.1339
24677W        W39808   5.502   7.928   3.440 -0.3017 -0.2162  0.0544
24678W        W39809   2.666   0.924   3.192  0.0003  0.0187  0.0856
24679W        W39810  13.738   4.454   0.235 -0.1231  0.2181 -0.0349
24680W        W39811   3.875  14.047  14.926  0.1280 -0.1008  0.0767
24681W        W39812   5.802  11.384  10.748  0.2729 -0.1944 -0.1268
24682W        W39813  16.319  13.282  11.571 -0.0779  0.0132 -0.1709
24683W        W39814   8.968   2.478   3.053  0.0552  0.1923 -0.2020
24684W        W39815   5.234  13.660   3.951 -0.0362 -0.0164  0.1609
24685W        W39816   3.294   5.891   3.366 -0.1032 -0.0470 -0.3071
24686W        W39817   3.695  11.293  15.910  0.1906 -0.4089 -0.5227
24687W        W39818   4.614  15.008  15.938 -0.3244 -0.1436 -0.1060
24688W        W39819   8.673   8.437   2.558 -0.1353  0.1189  0.2144
24689W        W39820   6.668  10.185  14.064 -0.1187 -0.2182  0.1533
24690W        W39821  10.555  16.391   1.732 -0.1693  0.2895 -0.1256
24691W        W39822   4.168  17.080   1.663 -0.3259 -0.0830  0.0698
24692W        W39823   6.196   2.232   0.801  0.5399  0.1262  0.1856
24693W        W39824   0.539  14.140   3.008 -0.0821 -0.2054  0.0272
24694W        W39825   3.653   3.557  13.708  0.0422 -0.1427  0.0608
24695W        W39826  10.031   4.326  11.045  0.3085 -0.1194 -0.1099
24696W        W39827  16.872  13.615  14.706  0.1080 -0.0739  0.2041
24697W        W39828  10.765  11.708   1.005 -0.0848 -0.1336 -0.4341
24698W        W39829   6.920  17.615  11.452  0.1728 -0.0873  0.2945
24699W        W39830   4.638  12.540   1.086 -0.0994 -0.0460  0.2354
24700W        W39831   6.819   6.013   0.670  0.0408 -0.0130  0.1758
24701W        W39832   7.983   0.180  10.929  0.0760 -0.1003  0.0644
24702W        W39833   1.099   9.282  15.168 -0.1896  0.1608 -0.3243
24703W        W39834  16.203  14.523   3.872 -0.2348 -0.1303  0.1773
24704W        W39835  12.950   4.203  12.111  0.1843 -0.0158  0.0551
24705W        W39836   1.138   1.885   0.019 -0.1634 -0.1043 -0.0250
24706W        W39837   7.902   6.909   2.495 -0.1765 -0.2286 -0.1271
24707W        W39838   4.441  12.166   0.758  0.1806 -0.1707  0.1504
24708W        W39839   9.579  10.374  13.750  0.0041  0.1490 -0.1359
24709W        W39840  10.327   0.734  12.117  0.0970 -0.0004 -0.3543
24710W        W39841   1.796  15.922  13.968 -0.0804  0.0883  0.1054
24711W        W39842  14.908   1.902  12.314  0.0810 -0.2562 -0.0955
24712W        W39843  10.845  14.776  15.747 -0.0664  0.0991 -0.0809
24713W        W39844   2.789  17.673  11.541  0.2183  0.1044 -0.1787
24714W        W39845   7.643  14.855   2.333 -0.0991  0.0687  0.1758
24715W        W39846   2.836   0.008  12.200  0.0748 -0.0696 -0.2206
24716W        W39847   4.539   4.312  11.208  0.1060  0.2611 -0.2181
24717W        W39848   9.813   3.982   2.859  0.0047  0.2906  0.1484
24718W        W39849   3.664   8.224  12.828  0.0344  0.0451  0.0430
24719W        W39850  12.228  10.261   1.498 -0.0224 -0.2666 -0.2676
24720W        W39851   9.740  18.224  11.010  0.1623  0.2223  0.0321
24721W        W39852  13.620   8.336   2.647  0.0005 -0.2317  0.0765
24722W        W39853  11.176  10.535   2.449  0.0621 -0.1465 -0.0716
24723W        W39854   7.500  11.993  14.599 -0.1979  0.2893 -0.0579
24724W        W39855  12.041   5.434  13.628  0.3480 -0.2129 -0.0154
24725W        W39856   7.867   4.298   3.020 -0.1504  0.2725 -0.2478
24726W        W39857  15.489  12.901   1.467 -0.0557 -0.0869 -0.1045
24727W        W39858  12.303  11.646  14.816  0.1401 -0.3361  0.5657
24728W        W39859  11.312   4.733  14.465 -0.1216 -0.0309  0.0465
24729W        W39860  12.538  12.204  12.295  0.5208 -0.0732  0.0796
24730W        W39861   2.818  16.026   0.915 -0.2924  0.2779  0.1527
24731W        W39862  14.088   3.758   1.424 -0.2821 -0.0212  0.1990
24732W        W39863   2.328   0.178  12.190 -0.0668  0.0055 -0.2072
24733W        W39864   2.732   8.205  15.959 -0.2143 -0.0662  0.0925
24734W        W39865  18.010  11.912   1.970 -0.1697 -0.0567 -0.0338
24735W        W39866   2.087  14.902  13.655 -0.1775  0.1371 -0.2438
24736W        W39867  15.613   9.918   1.980 -0.0430  0.1358 -0.1316
24737W        W39868  13.250   9.215   4.228  0.2949 -0.0300 -0.5250
24738W        W39869  10.553  16.835   2.425  0.1289 -0.0387 -0.0114
24739W        W39870  12.773  10.104  15.031 -0.1270 -0.0942 -0.1663
24740W        W39871   9.356  15.575  14.977  0.0551  0.1035 -0.1668
24741W        W39872  17.539  15.643   2.095 -0.3856 -0.1852  0.1153
24742W        W39873  11.645   7.789   0.607 -0.0418  0.2485 -0.0120
24743W        W39874   6.020  14.111   5.096 -0.0037  0.0749  0.2370
24744W        W39875   2.724   7.488   4.216  0.0906  0.0032  0.2032
24745W        W39876   3.212   5.013   4.177  0.1572 -0.1771 -0.0617
24746W        W39877  10.969   9.296   2.264 -0.1019 -0.1423  0.0973
24747W        W39878   9.716  16.464  12.279 -0.1248  0.0204 -0.1317
24748W        W39879   4.387  10.473   1.021 -0.1766 -0.0317 -0.3118
24749W        W39880  15.328   6.720   4.657  0.1279 -0.1910  0.1113
24750W        W39881   9.472   5.409   4.158  0.0766 -0.3656 -0.2493
24751W        W39882  15.948  15.058  13.254 -0.0558 -0.2987 -0.0258
24752W        W39883  14.468   9.340  13.839  0.2919 -0.1184 -0.0786
24753W        W39884  11.310   7.508  15.889 -0.0831 -0.0296 -0.1225
24754W        W39885  14.112  14.063   5.776 -0.0017  0.0193 -0.1416
24755W        W39886   6.221   0.646  11.346  0.4196 -0.1680  0.2164
24756W        W39887  14.669   7.311  15.604 -0.2298 -0.3821  0.2291
24757W        W39888   7.666   8.988  15.386  0.0652 -0.0956 -0.0465
24758W        W39889  14.372   7.742  12.751  0.0484  0.4358 -0.0797
24759W        W39890   9.539   6.727  13.336 -0.1121  0.2923  0.0214
24760W        W39891  17.461   8.830  15.230 -0.4344  0.1649 -0.2302
24761W        W39892  18.083  15.909   3.937 -0.1799  0.0153 -0.0038
24762W        W39893  11.900   1.263   5.012 -0.1779 -0.0619  0.0722
24763W        W39894   1.853   3.219  11.860 -0.0299  0.0109  0.0375
24764W        W39895   2.354  12.818   0.595  0.0867  0.0393 -0.1841
24765W        W39896  10.664   2.097  14.440  0.0019  0.4396 -0.2372
24766W        W39897  14.204   8.836   2.069  0.0660  0.0560 -0.1668
24767W        W39898   3.344   6.562   0.122 -0.0369 -0.0834 -0.0755
24768W        W39899   3.608  17.506   4.083  0.1485  0.1467  0.3248
24769W        W39900  16.826   1.126  14.049  0.0662  0.0900  0.0350
24770W        W39901  17.148   3.385   1.339  0.1311 -0.1415  0.0149
24771W        W39902  16.126   0.229   2.724  0.1711 -0.0390 -0.0899
24772W        W39903   8.035   3.277  12.869 -0.1258  0.2608 -0.0902
24773W        W39904   5.422   0.764  14.228  0.1657 -0.1952  0.0714
24774W        W39905   7.861  11.792   3.624 -0.1583 -0.1662 -0.0042
24775W        W39906  13.164   1.102  13.644 -0.3232  0.1139  0.2124
24776W        W39907   6.001   1.719  12.008 -0.0798 -0.1537  0.0312
24777W        W39908  13.779   3.705   5.125  0.0178 -0.1135  0.3240
24778W        W39909   0.955   9.466   3.620 -0.2841 -0.1348 -0.1114
24779W        W39910   2.998  15.903  15.063 -0.2033 -0.0176 -0.1759
24780W        W39911   7.412   7.089  13.634  0.2363  0.0215  0.0001
24781W        W39912  16.355  14.503   1.922 -0.0744  0.2361 -0.0565
24782W        W39913   1.857   2.330   1.333 -0.0774  0.1703 -0.0998
24783W        W39914  17.632   3.358   2.922  0.0169 -0.0009  0.0832
24784W        W39915  15.590   1.837   2.030  0.0189 -0.2085 -0.4095
24785W        W39916   2.917  10.182  12.489  0.1055  0.1990  0.1380
24786W        W39917  12.340  12.137  16.059 -0.1996  0.0654 -0.1918
24787W        W39918   0.052   5.752   1.477  0.2529 -0.0989  0.1706
24788W        W39919   8.552   0.428  12.455 -0.0966 -0.0932 -0.1289
24789W        W39920   3.615  10.424   2.198 -0.2534 -0.0540 -0.1655
24790W        W39921   7.308   9.854   0.289 -0.0435  0.0273 -0.0210
24791W        W39922   7.685   2.757   2.707  0.0826 -0.2315  0.0378
24792W        W39923  17.934  18.007  12.600 -0.0241 -0.1169 -0.0334
24793W        W39924  11.607   7.496  14.016  0.2785 -0.3799 -0.1119
24794W        W39925   9.988  11.958   4.053  0.1174  0.1204 -0.0876
24795W        W39926  16.292  13.273   3.505 -0.0497 -0.1977 -0.0478
24796W        W39927  12.314  15.334  15.808 -0.1480 -0.0310  0.0757
24797W        W39928   3.991   7.885  14.388 -0.3223 -0.0598 -0.1012
24798W        W39929   2.870   3.106   2.891 -0.1876 -0.0358 -0.1259
24799W        W39930   3.001   6.498  15.879 -0.1870  0.0240  0.1198
24800W        W39931  14.417  11.597   6.058  0.0331  0.1124 -0.3097
24801W        W39932   5.723   0.953   1.287 -0.2765  0.2314 -0.2798
24802W        W39933  17.988   3.909   5.844 -0.0525 -0.1879  0.2332
24803W        W39934  17.765   8.501  10.923  0.0516 -0.2909 -0.0968
24804W        W39935   0.136  16.662   3.845 -0.1159  0.1599  0.1752
24805W        W39936  11.026  17.561   2.740 -0.0758  0.0832  0.2335
24806W        W39937  16.108  12.374   4.347  0.0149 -0.2538 -0.6544
24807W        W39938  12.010  16.698  10.812 -0.2587  0.1708 -0.2081
24808W        W39939   2.263  17.515  13.846 -0.1506 -0.0127  0.1640
24809W        W39940  10.351   1.052   0.932  0.1212  0.1359 -0.0062
24810W        W39941  16.930   3.229  14.227 -0.4124 -0.2373 -0.0473
24811W        W39942  16.522   8.380   1.403 -0.1281  0.2250 -0.1115
24812W        W39943  11.218  12.172  12.028  0.0642 -0.1339  0.2426
24813W        W39944  13.281  15.158  13.262 -0.3378  0.0654  0.1495
24814W        W39945   8.768   1.066   4.604  0.1105 -0.0291  0.2898
24815W        W39946   3.541   0.188   1.808 -0.0269 -0.5177  0.0180
24816W        W39947   1.546   7.872  12.725  0.0060  0.0968 -0.0629
24817W        W39948  11.808  14.347   3.041 -0.0525  0.0533  0.1891
24818W        W39949  12.946  12.638   1.837 -0.2072  0.1184 -0.0136
24819W        W39950   6.102   1.363   3.725 -0.0214  0.0805  0.1390
24820W        W39951   1.414  15.070  15.887  0.1995 -0.0450  0.3327
24821W        W39952   4.368  12.754   3.329  0.0500  0.1216  0.2466
24822W        W39953  14.680   9.009   0.720 -0.0278  0.2683  0.2114
24823W        W39954   5.603   3.358   3.545 -0.0060  0.3337  0.0079
24824W        W39955   0.614  14.834  12.612  0.1629  0.1639 -0.0365
24825W        W39956   4.289   6.306   0.122  0.0391  0.1515 -0.1452
24826W        W39957  11.435  14.761  12.678  0.2425 -0.0232 -0.0738
24827W        W39958  10.505   5.146   2.252  0.3279  0.0165  0.1341
24828W        W39959   5.703  15.649  14.471 -0.0214  0.0385  0.2416
24829W        W39960   6.832   4.255   4.424 -0.0601 -0.0914  0.2163
24830W        W39961   7.040   4.767   2.048 -0.1228 -0.0939  0.1578
24831W        W39962  16.097   6.137  10.101 -0.2341 -0.0885  0.2349
24832W        W39963  13.954  10.991  11.834  0.0991  0.0785  0.2705
24833W        W39964  16.621   6.123   1.691 -0.0014 -0.1830  0.0525
24834W        W39965   0.039   3.883   9.762 -0.2163  0.0567 -0.2323
24835W        W39966   8.873  17.597  16.086  0.3681  0.2343  0.0041
24836W        W39967  10.498  13.792   5.353 -0.4950  0.2575  0.0851
24837W        W39968  14.132   9.786  13.081 -0.2077  0.1896 -0.0615
24838W        W39969   3.556   0.656   3.474  0.0380 -0.1559  0.0397
24839W        W39970   8.463  11.324   0.836 -0.0767  0.3028 -0.0411
24840W        W39971   0.879   1.674   0.541  0.1599  0.3028  0.0486
24841W        W39972  13.309  13.546   1.592 -0.0226 -0.2143  0.0232
24842W        W39973   3.916  10.536   1.260 -0.2330 -0.2003 -0.0001
24843W        W39974  15.602   0.544   3.492  0.0401 -0.2068  0.3300
24844W        W39975  17.821  11.711  14.898  0.1193 -0.0640 -0.2940
24845W        W39976  17.322   8.682   0.491  0.0950 -0.1107  0.4075
24846W        W39977  12.368  14.900  15.052  0.1299  0.2081 -0.1542
24847W        W39978   7.244   7.020   0.182  0.1359  0.1170 -0.0093
24848W        W39979   3.038  15.339   2.379  0.0813 -0.1924  0.0011
24849W        W39980  10.969   6.927  13.980  0.0960 -0.0418  0.2023
24850W        W39981   9.564   5.396  12.264 -0.1347 -0.1078 -0.4735
24851W        W39982  15.640  13.327   0.689  0.2047 -0.0397 -0.0782
24852W        W39983  14.112   9.871   0.202 -0.1797  0.1640  0.0098
24853W        W39984   2.327   5.009  12.463 -0.2068 -0.0379  0.0614
24854W        W39985  11.821   5.147   2.899  0.5906 -0.1163 -0.0682
24855W        W39986   8.518  11.681  11.948 -0.4629  0.0812 -0.2730
24856W        W39987   4.700   8.845  13.663  0.0387  0.4037  0.0523
24857W        W39988  14.904  16.242  15.487  0.0811 -0.0219  0.0517
24858W        W39989  13.887  17.142  12.842  0.1920  0.2293  0.2181
24859W        W39990   5.648  13.461  13.389 -0.1895  0.2014 -0.0311
24860W        W39991  11.959  16.685   3.800 -0.0081  0.0050 -0.1126
24861W        W39992  16.934   7.851  14.115  0.0481  0.0530 -0.0490
24862W        W39993   0.168   9.828  13.745  0.0392  0.0885 -0.0372
24863W        W39994  14.858  11.312   2.077 -0.0124 -0.1083  0.0267
24864W        W39995  12.743   4.766  14.098 -0.0640 -0.1461  0.1718
24865W        W39996  14.690  14.515   0.383  0.0895  0.1232 -0.0297
24866W        W39997  12.116  14.012   3.330 -0.0724 -0.0093  0.0733
24867W        W39998   3.470   6.515  12.807  0.1590 -0.1422 -0.1310
24868W        W39999   6.777   6.543   5.009  0.0484  0.1262  0.0501
24869W        W40000   3.221  18.025  11.330 -0.2208 -0.1696 -0.0595
24870W        W40001  13.009  13.077   0.647 -0.0603  0.1120 -0.2006
24871W        W40002   8.480  10.285   1.147 -0.1484 -0.0520  0.0541
24872W        W40003  13.666   0.312  11.436 -0.1318 -0.0062 -0.0135
24873W        W40004  12.941  12.249  15.185 -0.0889  0.1593  0.0468
24874W        W40005  17.082   8.548   1.284 -0.1245 -0.0424  0.2335
24875W        W40006   7.059  17.860  12.991 -0.0405 -0.0855 -0.1486
24876W        W40007  13.922  12.470   4.042 -0.0890  0.2288 -0.1525
24877W        W40008  14.863  17.785   4.662 -0.1707  0.0138  0.0830
24878W        W40009   3.368  15.938   0.704 -0.1458 -0.0470  0.5000
24879W        W40010   4.594  18.236   1.522  0.1201 -0.0678 -0.0942
24880W        W40011  11.073  16.057  14.741  0.1736  0.0478 -0.1951
24881W        W40012  13.325  12.405  12.702 -0.2237 -0.0517 -0.0739
24882W        W40013  10.922   0.373   0.462 -0.1043 -0.0686  0.3031
24883W        W40014  16.439   5.320   1.624  0.3012  0.2909 -0.5026
24884W        W40015   3.448  10.669  12.941 -0.1687 -0.1085 -0.1194
24885W        W40016   9.528  14.392  14.102 -0.1866 -0.1309 -0.1185
24886W        W40017  12.158  15.910   1.178 -0.2036 -0.0070 -0.4727
24887W        W40018  11.900   3.955   2.839 -0.2375  0.0796 -0.1813
24888W        W40019  16.022   2.090   5.808 -0.2126 -0.1608  0.0417
24889W        W40020  17.864   8.760   5.384  0.4075 -0.0347  0.3078
24890W        W40021   1.768   6.990  15.476  0.1958  0.0706  0.1992
24891W        W40022  10.686  10.503   0.959 -0.2166 -0.5808  0.1795
24892W        W40023   2.290   3.115  12.688 -0.1343 -0.2351 -0.1488
24893W        W40024  12.637   5.360   4.386 -0.1032  0.2311  0.1742
24894W        W40025   6.129   7.307   3.584  0.1117  0.2215 -0.0009
24895W        W40026  17.815  16.723   0.851 -0.2684 -0.3548 -0.2701
24896W        W40027   4.052  15.466  14.178  0.0061  0.3027  0.1878
24897W        W40028  16.336  14.215  12.907 -0.1299  0.0688 -0.1114
24898W        W40029  17.754   2.191   0.096  0.0914 -0.0884  0.1798
24899W        W40030   0.231   3.591   2.632  0.1826  0.1711  0.0980
24900W        W40031   4.986   9.803   0.018  0.0716  0.2313 -0.3320
24901W        W40032   1.185  12.063   5.531  0.2057  0.2161  0.6339
24902W        W40033   7.301  10.435  10.687  0.0547  0.0982  0.1331
24903W        W40034   2.221   8.189  14.543 -0.0429 -0.1064  0.0538
24904W        W40035   8.641   5.151  10.818  0.0035 -0.1504 -0.1790
24905W        W40036   8.908  10.138  12.869  0.0230  0.2646  0.0116
24906W        W40037  17.810   2.017  11.280 -0.3246 -0.2300 -0.0180
24907W        W40038   8.668   7.380  15.037 -0.0509  0.0584 -0.1320
24908W        W40039  11.599   7.794  13.651 -0.0847 -0.1346  0.0068
24909W        W40040   8.165  13.306   1.920 -0.0540 -0.2997 -0.0293
24910W        W40041   8.835   5.963  10.584 -0.1732  0.0658  0.1291
24911W        W40042  13.301  11.936  14.941 -0.1308 -0.0703 -0.2790
24912W        W40043   3.567   6.215   1.048 -0.1513 -0.3429  0.0285
24913W        W40044  10.580  10.975  15.517  0.1067  0.2264  0.0114
24914W        W40045   7.039   4.605   2.582  0.0215 -0.3039  0.0823
24915W        W40046  17.411  11.556  15.835  0.1379 -0.0298  0.1242
24916W        W40047   5.423   5.357   5.881 -0.0983 -0.1571  0.1119
24917W        W40048   6.005   6.507   0.810  0.1336  0.0221  0.0169
24918W        W40049  13.633   6.900  13.266  0.2338  0.0261 -0.1387
24919W        W40050   3.754  13.255   2.347  0.0182 -0.1236 -0.1451
24920W        W40051   2.081   8.695   4.291  0.2340  0.0231 -0.1448
24921W        W40052  16.404   2.446  11.235 -0.3285 -0.0291  0.0995
24922W        W40053   3.970  15.999   5.975  0.2776  0.0599  0.3088
24923W        W40054  15.818  11.442   5.192  0.1045 -0.1883  0.2095
24924W        W40055   9.988   8.008   1.450 -0.3192 -0.1116 -0.1486
24925W        W40056   4.383  16.130   4.015  0.4930  0.2154  0.2471
24926W        W40057   0.934   0.805   2.643 -0.0332  0.0460  0.0097
24927W        W40058  17.035   7.684   2.913 -0.0671  0.1333  0.0480
24928W        W40059  14.568   2.537   0.944 -0.3806 -0.0749  0.1760
24929W        W40060   0.548   9.634  10.579  0.1593  0.3039 -0.1045
24930W        W40061  18.060   8.347   5.132 -0.2298 -0.3228 -0.1633
24931W        W40062   8.126   2.747  14.397  0.0834 -0.0398 -0.2234
24932W        W40063  14.575   1.255  13.935  0.0942  0.2942  0.0711
24933W        W40064  15.776   5.790   9.741 -0.1034 -0.1984  0.1023
24934W        W40065  10.857  17.062  15.020 -0.0374  0.2352  0.0209
24935W        W40066   4.552   7.827   4.594  0.0289  0.2329 -0.0769
24936W        W40067  16.345   7.490  13.988 -0.0866 -0.0038 -0.1153
24937W        W40068  12.500   3.946   2.556 -0.1806 -0.1535 -0.1549
24938W        W40069   0.735   2.365  13.788 -0.1425  0.0071 -0.2742
24939W        W40070  14.702  11.392   5.691 -0.1087 -0.2969  0.0791
24940W        W40071  10.255   7.436  13.160  0.0190 -0.1740 -0.3205
24941W        W40072   6.981   7.643   0.813  0.0379  0.4360 -0.0695
24942W        W40073  18.281  10.552  12.874  0.3700 -0.0747  0.2783
24943W        W40074  12.894  11.171  12.832  0.1849 -0.5446  0.0287
24944W        W40075   9.264  12.328  11.034 -0.2979  0.2097  0.0721
24945W        W40076  10.052   2.460  15.115 -0.2643 -0.0593  0.0579
24946W        W40077   6.689  12.279   1.792 -0.2469 -0.2063 -0.0076
24947W        W40078  16.963   6.079  15.039 -0.0969 -0.2089 -0.0626
24948W        W40079  15.445   5.719  15.409  0.0281 -0.0470  0.2113
24949W        W40080  16.299  17.595  15.495 -0.1169 -0.1278 -0.1331
24950W        W40081  14.825  11.551  11.817  0.2401 -0.2098  0.1554
24951W        W40082   9.438   3.029  11.447  0.2422  0.0058 -0.2828
24952W        W40083  13.454  15.050   0.991 -0.0134 -0.2208 -0.1938
24953W        W40084  13.357   7.387  11.604 -0.0644 -0.0289  0.1483
24954W        W40085  13.810   3.703   0.332  0.0684 -0.5573 -0.1576
24955W        W40086   3.753  14.115   4.500  0.0540  0.3404 -0.3897
24956W        W40087  11.607  16.657  11.663 -0.0054  0.4622  0.0895
24957W        W40088  17.252  13.336  11.411  0.4708  0.0580 -0.2117
24958W        W40089  12.500   8.423  14.402  0.2508 -0.0528  0.1032
24959W        W40090   0.473  14.770   0.906  0.2111 -0.0356  0.2305
24960W        W40091  16.511  14.221  15.981  0.0460 -0.1870 -0.1528
24961W        W40092  15.154   2.603   5.541  0.1689  0.0423 -0.0658
24962W        W40093   2.736   7.407  11.201 -0.1594 -0.1112  0.2049
24963W        W40094  10.961  12.290   4.271 -0.0903  0.1998 -0.0581
24964W        W40095   0.068  10.580  15.344  0.2339  0.1780 -0.0881
24965W        W40096  11.177  15.000  14.587 -0.0389 -0.0647  0.0124
24966W        W40097   0.744  18.317  14.841 -0.2943 -0.0595 -0.0015
24967W        W40098   5.774  11.772  14.053 -0.0347  0.0481  0.1551
24968W        W40099  17.157   5.577   0.930 -0.0211  0.0868  0.1457
24969W        W40100  18.046   7.535   0.835 -0.1945  0.3114 -0.2323
24970W        W40101   0.162  10.766   5.573 -0.0403  0.1479 -0.0627
24971W        W40102  10.359   1.564   0.114  0.0556 -0.1998 -0.0097
24972W        W40103  10.520   2.630  10.788 -0.2621  0.1844  0.0291
24973W        W40104   9.388  12.405   0.101 -0.1390  0.2360 -0.1021
24974W        W40105   2.731   3.310  10.452 -0.2266 -0.2272  0.0532
24975W        W40106   5.525   3.303   2.315  0.1711 -0.0296 -0.1065
24976W        W40107  10.762   9.432  12.121 -0.0072 -0.2175  0.0994
24977W        W40108   8.184   6.241  15.591  0.1404 -0.0064 -0.0611
24978W        W40109  11.989   3.581   1.837 -0.1376 -0.0922  0.2277
24979W        W40110   8.905   0.717   2.634 -0.1949  0.0392  0.1983
24980W        W40111   6.981   7.096  12.633  0.1269 -0.0830  0.0565
24981W        W40112   0.961  11.147  14.341 -0.0131  0.1500  0.1611
24982W        W40113   6.945   8.550   0.698  0.0247 -0.0836  0.0980
24983W        W40114   9.472   8.876   2.317  0.2483  0.0723 -0.0262
24984W        W40115   2.284   7.176   2.780  0.0452 -0.2966  0.2679
24985W        W40116  14.643  11.777   4.414  0.1507  0.2134  0.1535
24986W        W40117  10.923  18.218   0.224 -0.0199  0.3665  0.0195
24987W        W40118   6.144  11.723  10.864 -0.0148 -0.1378  0.1376
24988W        W40119  16.619   9.895   2.413 -0.1212 -0.2022 -0.0386
24989W        W40120   6.929   8.326   4.400  0.0565 -0.3405  0.0772
24990W        W40121  14.250  10.215   1.283  0.0275  0.0574 -0.0826
24991W        W40122  14.833  16.209  14.046 -0.1979  0.2091  0.3262
24992W        W40123   2.613   7.690   3.751  0.1948  0.1643  0.0786
24993W        W40124  17.761   4.103  14.351  0.0673 -0.2627 -0.1586
24994W        W40125   0.490  17.326   0.395  0.2016 -0.0616  0.2222
24995W        W40126   9.571  15.042   4.158  0.2689 -0.1422 -0.0513
24996W        W40127   3.537  17.370  13.976  0.0538 -0.1321  0.0650
24997W        W40128   7.960   1.777   4.608 -0.2508  0.0582  0.1263
24998W        W40129  17.823  15.311  14.414 -0.0063  0.0889  0.0052
24999W        W40130   4.109   8.197   2.047 -0.1780 -0.0900  0.2027
25000W        W40131  11.425  14.391  12.277 -0.1411 -0.2237  0.3454
25001W        W40132   0.899   3.729  14.750 -0.2519 -0.1287  0.1002
25002W        W40133  11.163  14.707   5.009 -0.2051  0.3798 -0.2004
25003W        W40134   9.101  15.596   0.456  0.0238  0.0853 -0.0056
25004W        W40135   4.009  18.041  11.037 -0.0363 -0.0297  0.2118
25005W        W40136  16.389   4.978   4.398 -0.0851 -0.2294 -0.0084
25006W        W40137   3.192   6.844  11.951 -0.0216 -0.1420  0.0729
25007W        W40138  11.449  17.467  15.850 -0.1109 -0.0745 -0.3208
25008W        W40139  17.723  16.098  11.791  0.1924  0.2796  0.0586
25009W        W40140   0.053  16.056   3.048  0.1139  0.0070 -0.0975
25010W        W40141  12.664  17.778   3.412 -0.2279  0.0742 -0.2291
25011W        W40142   3.708   9.465   3.570  0.1502  0.1124 -0.1657
25012W        W40143  11.733  18.140  11.504 -0.1658 -0.1319  0.3101
25013W        W40144   7.582  17.452   2.850  0.1936 -0.1092  0.1920
25014W        W40145  17.499  13.125  16.083  0.0673  0.1360 -0.2232
25015W        W40146   1.111   4.941  10.693  0.0638 -0.1398 -0.0027
25016W        W40147  14.338   5.942   3.343 -0.1305 -0.2348 -0.1013
25017W        W40148  17.894   7.665   0.398  0.1120 -0.0125 -0.1230
25018W        W40149  10.996   4.929   1.627 -0.0986 -0.1084 -0.0257
25019W        W40150   7.388   9.732  13.799  0.0315  0.0058 -0.0042
25020W        W40151  10.137  11.897   2.786 -0.0844 -0.3384  0.2112
25021W        W40152   3.704   0.430  12.779 -0.1748  0.0271 -0.0735
25022W        W40153  16.463   9.813  12.452 -0.0215  0.0211 -0.2555
25023W        W40154   3.443   3.148  12.244  0.2001 -0.2540  0.0164
25024W        W40155   5.603   9.477  12.798 -0.2214 -0.0548 -0.1512
25025W        W40156   7.882   8.937   3.713 -0.2413 -0.0403  0.2540
25026W        W40157  14.686   3.355   3.001 -0.1497 -0.2225  0.1487
25027W        W40158   8.203   2.781   0.115 -0.1764 -0.0226 -0.0308
25028W        W40159  10.590   6.487   5.381 -0.0586  0.1219 -0.4306
25029W        W40160   0.568   6.613  10.270  0.3032 -0.0822 -0.0779
25030W        W40161   6.356   4.421  11.982  0.2837  0.0813 -0.0981
25031W        W40162   6.529   6.980   3.407 -0.0149 -0.1895 -0.1387
25032W        W40163  18.272  15.318  12.984 -0.0736  0.3022 -0.2192
25033W        W40164  14.041  17.449  13.613 -0.1390 -0.2807  0.0356
25034W        W40165   6.136  10.222  16.012  0.0209  0.2750  0.0753
25035W        W40166   0.013  15.381  14.530  0.0176  0.1834  0.2600
25036W        W40167   4.131  11.336  15.523 -0.1039  0.2244  0.2857
25037W        W40168  12.570  10.459  11.513  0.3022 -0.2964  0.3413
25038W        W40169   9.506   8.301   3.256 -0.1039 -0.3192  0.0265
25039W        W40170  14.419  17.038   1.500 -0.1851  0.0117 -0.2142
25040W        W40171   3.651   8.869   1.008  0.0677  0.2220 -0.0036
25041W        W40172   8.123   5.912  13.114 -0.1173 -0.2507  0.4547
25042W        W40173   5.495   4.170   2.720 -0.2263 -0.1792  0.1844
25043W        W40174   0.586   8.673  12.736  0.1216 -0.1839  0.0047
25044W        W40175  16.529   3.193  15.372 -0.1807 -0.0500  0.2596
25045W        W40176  14.232   8.007  13.492 -0.2640  0.1207  0.0207
25046W        W40177   5.202   8.682   5.645 -0.1186 -0.0658 -0.0356
25047W        W40178   6.161   7.520   5.554  0.1428  0.1588 -0.2585
25048W        W40179   2.824  13.017  12.739  0.1842 -0.0882 -0.0995
25049W        W40180  10.501   5.114   4.872  0.2651 -0.2720  0.1306
25050W        W40181   5.403   9.175  11.074 -0.0260  0.1937 -0.1179
25051W        W40182   5.786   2.021  15.597 -0.1547 -0.1954  0.1253
25052W        W40183   8.880  12.448  13.338  0.0420  0.0847 -0.2592
25053W        W40184  13.420  18.147   3.049  0.2885 -0.2114 -0.1603
25054W        W40185   1.290   4.828  11.170  0.1209  0.0031 -0.0086
25055W        W40186   8.633   2.628  14.409  0.1700 -0.2150  0.0302
25056W        W40187   5.679   1.257   1.701  0.1778 -0.2174  0.1509
25057W        W40188   2.946  17.378   5.068  0.0202 -0.0740 -0.2459
25058W        W40189   3.920   6.364  10.830  0.1448 -0.0238 -0.0145
25059W        W40190   0.048  14.876   4.204  0.0490 -0.3053 -0.0282
25060W        W40191  15.809   1.691   5.386  0.0623 -0.2209  0.0409
25061W        W40192   6.396   7.919  14.374 -0.1331  0.4051 -0.0635
25062W        W40193   2.186   9.633  11.171 -0.2800 -0.4631  0.2285
25063W        W40194   1.743   9.940   4.688  0.0160 -0.2038 -0.0266
25064W        W40195  15.926   9.537  14.751  0.0255  0.0201  0.2493
25065W        W40196  16.131   0.606   2.315 -0.1098  0.1089  0.0699
25066W        W40197  10.552   0.038  10.802 -0.0290  0.1376 -0.0463
25067W        W40198   7.475  10.116   1.218 -0.3098 -0.2858 -0.0539
25068W        W40199  14.112   4.713   5.273 -0.1769 -0.0921 -0.1686
25069W        W40200  10.267  10.871  12.403 -0.1034  0.0856 -0.0014
25070W        W40201  15.215   4.483  11.220  0.0319  0.0658  0.0762
25071W        W40202   3.653  11.317  14.325 -0.0446 -0.0027 -0.2824
25072W        W40203  12.387   7.594   0.946 -0.2032 -0.1294 -0.1383
25073W        W40204   3.751  16.347  11.895  0.0068  0.1756  0.0652
25074W        W40205   5.587   4.596  13.762  0.4027  0.0763  0.1608
25075W        W40206  11.203  18.329   0.776  0.1163  0.3147 -0.2790
25076W        W40207  14.978   9.171   1.824  0.0735  0.1544 -0.0501
25077W        W40208   7.883  12.530   2.005 -0.2763  0.0683 -0.2416
25078W        W40209   1.814  13.900   0.027  0.0785  0.3544 -0.0868
25079W        W40210   6.986  16.335  12.006  0.4074 -0.1599  0.0531
25080W        W40211  13.054  13.837   5.073 -0.0813  0.1668 -0.2849
25081W        W40212   8.446   0.808   5.400  0.0358  0.1598  0.0335
25082W        W40213  13.173  14.904   3.424  0.2417 -0.2422 -0.0186
25083W        W40214   9.841  10.193  10.798 -0.0132 -0.1188  0.0233
25084W        W40215   7.576  14.144  14.229 -0.0734  0.3351  0.2243
25085W        W40216  17.687   0.376   3.758 -0.2772 -0.0504  0.1288
25086W        W40217   1.176   0.778  14.531 -0.0892  0.2388 -0.2705
25087W        W40218  11.608   4.013  13.777 -0.0120 -0.0786  0.1654
25088W        W40219   0.340   5.267   0.975  0.0839 -0.0504  0.1800
25089W        W40220   5.787  11.502  11.768  0.1772  0.1039  0.0918
25090W        W40221   5.186   3.384  14.565 -0.1550 -0.0199  0.0112
25091W        W40222   1.399  15.468  13.014  0.0655 -0.1296  0.3553
25092W        W40223  11.214   2.753  13.865  0.0607  0.0214 -0.2391
25093W        W40224   1.540   6.681   0.637  0.3451 -0.0922  0.0055
25094W        W40225   6.543   8.394  15.404  0.1905  0.0670 -0.1183
25095W        W40226   9.599  15.838   4.533  0.0262  0.2614 -0.1488
25096W        W40227   9.891   8.716   5.146 -0.0290  0.1587  0.2166
25097W        W40228   5.744  16.765   0.329 -0.0819  0.1931  0.1891
25098W        W40229   6.446  15.936   5.182 -0.0539 -0.1418 -0.1322
25099W        W40230   0.592  11.739   2.178  0.2981 -0.1392 -0.0758
25100W        W40231  11.505   9.400  11.202  0.0564  0.0989  0.0444
25101W        W40232   0.472  13.145   5.079 -0.1444 -0.0241 -0.0065
25102W        W40233  14.377   8.919  12.981 -0.2648 -0.2196  0.1317
25103W        W40234  18.228  12.958   2.829 -0.1196  0.0488  0.2228
25104W        W40235  10.601  17.816  12.001 -0.1892 -0.1234  0.0113
25105W        W40236  15.084   0.785   4.263  0.1502 -0.1544  0.0102
25106W        W40237   8.420   3.184   4.436 -0.1760  0.2539 -0.1282
25107W        W40238   0.637   3.229  10.665 -0.0171  0.2317 -0.0781
25108W        W40239   9.707   4.278   6.083  0.2775  0.0054 -0.2450
25109W        W40240  13.989  14.667   3.244 -0.3811  0.0791 -0.0824
25110W        W40241  12.226  16.492  15.164 -0.3123 -0.4107  0.0667
25111W        W40242   5.083   8.533   0.798 -0.1148  0.1243  0.2006
25112W        W40243   7.741  15.895  14.135  0.1961 -0.0861  0.2607
25113W        W40244  15.895   3.373   3.761  0.2099  0.0141  0.0309
25114W        W40245  18.064   4.275   3.108 -0.2759 -0.1052  0.2936
25115W        W40246   1.943  15.190   6.281  0.2795 -0.1104 -0.1375
25116W        W40247  16.225   3.787   1.225  0.3090  0.1921  0.2325
25117W        W40248  14.551  18.142  14.737  0.1084  0.4024 -0.0867
25118W        W40249  16.387  10.774   1.698  0.0271 -0.0452  0.0949
25119W        W40250   3.856  11.504   4.843 -0.3200  0.3735 -0.0595
25120W        W40251   5.626   1.462   1.195 -0.0464  0.2080 -0.0523
25121W        W40252   5.737   8.767  14.286 -0.1203  0.2178 -0.1200
25122W        W40253   8.806   2.123  12.576 -0.0469 -0.0539 -0.0389
25123W        W40254  15.024  15.931   3.973  0.2314  0.1809 -0.0988
25124W        W40255   8.232   8.072   0.460  0.3271 -0.1540  0.0673
25125W        W40256  12.020   9.776   4.898  0.0318 -0.2604 -0.1269
25126W        W40257   1.805  14.409  14.865  0.3108 -0.0983  0.1288
25127W        W40258   3.846   3.472   9.760  0.4283 -0.1509 -0.2654
25128W        W40259   0.612  12.584   0.850 -0.0715 -0.4605 -0.1143
25129W        W40260   4.752   6.233  14.696  0.0676 -0.2036 -0.3230
25130W        W40261  10.604   5.940  10.840 -0.0708 -0.2396  0.0126
25131W        W40262  12.055   3.103   0.074 -0.0488 -0.1690 -0.0347
25132W        W40263  12.533   6.205  15.947 -0.2397 -0.2809  0.3401
25133W        W40264  16.465   2.881   5.379 -0.2179 -0.0055  0.3137
25134W        W40265   2.157  16.069  15.143 -0.1274  0.0858  0.2303
25135W        W40266  13.030  17.532   6.184 -0.1761 -0.1111  0.0562
25136W        W40267  15.379  16.435   5.890  0.0323 -0.1851  0.0195
25137W        W40268   5.770   1.379  11.746 -0.2963 -0.0689  0.1707
25138W        W40269   1.756  17.720  12.183 -0.1811  0.4823 -0.2076
25139W        W40270   8.184  11.602  12.386 -0.2508 -0.0120  0.1290
25140W        W40271   2.134   0.484   3.717 -0.2306 -0.0005  0.2901
25141W        W40272   5.677   4.961  11.447 -0.3131  0.0852  0.1533
25142W        W40273  10.517  10.774  11.963 -0.0024 -0.2661 -0.0775
25143W        W40274   7.551   1.056   3.129 -0.0741 -0.0716  0.1257
25144W        W40275  11.218   3.823   3.486  0.2125 -0.0046 -0.1770
25145W        W40276  11.481  10.932   1.312  0.2534 -0.1248  0.0366
25146W        W40277   2.499  13.097   0.961 -0.0249  0.0977 -0.2897
25147W        W40278   1.483  17.008   1.247  0.1009 -0.1797 -0.0535
25148W        W40279   6.747   6.385  13.546  0.1945  0.0667  0.3410
25149W        W40280   8.980   1.160  11.423  0.0750  0.0569 -0.0558
25150W        W40281  16.357   1.763  10.217  0.0305 -0.2953  0.1830
25151W        W40282   7.343   5.231   3.395 -0.0770  0.0750  0.1242
25152W        W40283   8.089   9.276  15.125 -0.0121  0.0724  0.1021
25153W        W40284   7.071   7.230  14.659 -0.0284 -0.1798 -0.1054
25154W        W40285  15.494   7.426  14.190  0.1088 -0.1584 -0.1932
25155W        W40286   1.208   2.591  14.834 -0.0276 -0.2364  0.1046
25156W        W40287   9.826  14.896  15.538  0.1083  0.0302  0.4801
25157W        W40288  13.297   2.506  13.227 -0.5604 -0.1144  0.0804
25158W        W40289  16.721   5.936  14.210  0.1460 -0.1711 -0.3708
25159W        W40290  17.714   1.594  14.790  0.0443  0.1532  0.1573
25160W        W40291  14.326   4.767   3.831  0.0041 -0.1581 -0.2635
25161W        W40292  10.719   4.781   2.527  0.1673 -0.0089  0.2651
25162W        W40293  12.964   8.161   3.114 -0.1253 -0.1014  0.3092
25163W        W40294  15.534   0.607  15.347 -0.2086 -0.0656  0.2702
25164W        W40295  11.587   4.296  10.782  0.1194  0.0631  0.4083
25165W        W40296   1.421   4.645  15.060 -0.2261 -0.2130  0.0964
25166W        W40297  14.838   0.098  13.430 -0.0847  0.3731  0.1343
25167W        W40298   9.098   5.923  14.042 -0.2425  0.1634 -0.1574
25168W        W40299  13.985   0.370  15.185  0.0716 -0.0639 -0.0564
25169W        W40300   0.640  15.226  13.553  0.2950 -0.1024 -0.4779
25170W        W40301   9.445   8.394   0.255 -0.2090  0.1213 -0.0159
25171W        W40302   7.883   9.920  13.521 -0.6323  0.1918 -0.2362
25172W        W40303  17.571   1.908   0.501  0.0985 -0.1459 -0.0238
25173W        W40304   8.218  14.775   2.625  0.1732  0.0718 -0.1805
25174W        W40305   1.591   9.829   2.411  0.4241 -0.2922 -0.3299
25175W        W40306   6.678  15.911   3.863  0.0151 -0.1414  0.1576
25176W        W40307  11.537   2.846  10.018  0.0813 -0.0532 -0.0875
25177W        W40308  13.313   7.468  10.747  0.0946 -0.0322 -0.4217
25178W        W40309   8.767  15.273   0.085  0.0062 -0.0860 -0.0783
25179W        W40310   3.000  16.634   2.550 -0.2655 -0.2149 -0.0046
25180W        W40311   4.366  14.465   1.838 -0.2298 -0.1069  0.4703
25181W        W40312  17.834   4.811   3.467 -0.1262 -0.1525 -0.0521
25182W        W40313  10.712   1.795  12.304 -0.0293  0.1351  0.0634
25183W        W40314  13.930   6.835  13.650 -0.0266  0.1031  0.0890
25184W        W40315   0.648   6.623  14.855  0.2098 -0.2190  0.0285
25185W        W40316  17.362  10.492   3.704 -0.0938  0.1441 -0.0808
25186W        W40317  10.580   4.816   4.460 -0.1126  0.1075  0.1531
25187W        W40318   2.079   6.479  15.488 -0.1715  0.0406  0.1429
25188W        W40319  16.872  13.029  13.846 -0.0403 -0.3056  0.5390
25189W        W40320   3.008   5.718  13.773 -0.1342 -0.2696  0.1129
25190W        W40321  17.756   6.783   2.064  0.0076 -0.0686  0.0749
25191W        W40322  11.392  13.210   9.372  0.1244 -0.0297 -0.1308
25192W        W40323   4.727  12.703   0.040  0.0123  0.1953 -0.0010
25193W        W40324   4.662  15.852   5.283 -0.1761 -0.1787 -0.1757
25194W        W40325  13.797  17.111   5.434  0.0677  0.0969  0.2501
25195W        W40326  15.200  17.356  14.948 -0.3384  0.2411  0.3681
25196W        W40327   1.375  14.630  16.028  0.0710 -0.1570 -0.0044
25197W        W40328   8.047  14.608   4.693 -0.1025  0.2024 -0.0526
25198W        W40329  13.335   6.347  10.904  0.2840 -0.2507 -0.2123
25199W        W40330  15.393   2.212  12.512  0.1952 -0.0542 -0.0732
25200W        W40331   3.263  11.688  14.407  0.0725 -0.1321 -0.0471
25201W        W40332  14.868  10.351  10.737 -0.1127 -0.0245 -0.0134
25202W        W40333   1.913   5.246   4.865 -0.0938  0.2880 -0.1965
25203W        W40334  14.114  12.436   3.542 -0.0659  0.0025  0.0800
25204W        W40335   8.575   0.989   3.153  0.0913 -0.0837 -0.2146
25205W        W40336   4.157   5.733   0.448  0.0099 -0.0093 -0.1470
25206W        W40337   3.874  16.773   2.750  0.3058 -0.1724 -0.2605
25207W        W40338   5.098   2.860  14.591 -0.0542  0.2518  0.0557
25208W        W40339   9.049  16.816  11.501  0.0421  0.0465  0.1422
25209W        W40340   9.037   9.195  11.760 -0.0909 -0.1752  0.0466
25210W        W40341   1.594   5.767   0.218  0.0699 -0.3913 -0.1306
25211W        W40342  15.485  14.043  11.405 -0.0620 -0.2729  0.3933
25212W        W40343  14.453  15.457   2.031  0.2437 -0.1714  0.3167
25213W        W40344  13.674   5.439   0.235  0.3161 -0.0680  0.1346
25214W        W40345  16.984  11.692  11.572 -0.0936  0.0788  0.0828
25215W        W40346  16.582   0.153   0.089  0.3048  0.1240  0.0852
25216W        W40347   9.979   0.514  11.757 -0.1291  0.0207 -0.0382
25217W        W40348   2.086  16.756  14.045 -0.0427  0.0253  0.0508
25218W        W40349  16.479  12.291  12.013 -0.1205 -0.0963  0.0867
25219W        W40350   2.412   7.404  13.881  0.1490 -0.2880 -0.0494
25220W        W40351  14.022  10.396  15.242  0.1635  0.0334  0.1489
25221W        W40352   6.514  17.332   3.967 -0.2324 -0.1295  0.3133
25222W        W40353  16.540  10.538   5.075  0.2330 -0.2650 -0.0127
25223W        W40354  12.477   6.018   6.068 -0.2815 -0.0540  0.1759
25224W        W40355   8.984  15.221   3.992  0.1879 -0.4281  0.1116
25225W        W40356  16.274  13.556   1.856 -0.0819  0.3010 -0.3025
25226W        W40357  11.756  16.045  11.899 -0.1435 -0.0299 -0.0149
25227W        W40358  13.306  15.357  11.700  0.5532 -0.3839  0.0122
25228W        W40359   2.333  14.712  13.988 -0.1356 -0.1617 -0.3018
25229W        W40360  10.446  14.284  11.270 -0.4838 -0.1251 -0.0170
25230W        W40361   0.396  11.282   2.184 -0.0738  0.1181  0.1430
25231W        W40362  13.480   3.561  12.892 -0.1874 -0.1023 -0.0794
25232W        W40363   9.959   2.954   0.239 -0.0879  0.1165  0.0193
25233W        W40364   4.009  12.623  12.839  0.1570 -0.2185  0.0896
25234W        W40365  12.127   8.285   0.524  0.0236 -0.0107  0.0136
25235W        W40366  10.304  11.638   1.230  0.0099 -0.2210  0.1201
25236W        W40367  10.106   1.839   3.549  0.0158  0.0948  0.2590
25237W        W40368  13.112   9.187  14.011  0.2152  0.0882  0.1558
25238W        W40369  10.667   0.014   1.535  0.0514 -0.0229  0.0297
25239W        W40370   8.300   7.025   5.865  0.0041 -0.1807  0.4233
25240W        W40371   9.070   6.289   2.750  0.1653 -0.2593  0.1235
25241W        W40372   1.689   5.511  15.236  0.0248  0.3707 -0.0219
25242W        W40373  15.775   5.195   4.026 -0.0660 -0.0395  0.3775
25243W        W40374  13.059  10.690  14.130 -0.2738 -0.1358 -0.2076
25244W        W40375  12.143   1.624   0.241  0.1705  0.1517 -0.0256
25245W        W40376   0.236  16.479   2.069  0.0760 -0.1952 -0.0893
25246W        W40377  16.185  14.539  11.689 -0.3883 -0.2503  0.0127
25247W        W40378   0.573  15.082  12.175 -0.1981 -0.2121  0.0611
25248W        W40379   9.649   6.331   4.666 -0.0315  0.1618  0.2984
25249W        W40380  16.224   5.341  15.975 -0.4167  0.2711  0.1805
25250W        W40381   6.751  15.011   0.788  0.2505 -0.1715 -0.0416
25251W        W40382  11.031  12.943  11.441  0.2175  0.1828  0.1775
25252W        W40383   7.494  12.228  14.168  0.1280  0.0219  0.0640
25253W        W40384  14.780   2.631  15.981 -0.0362  0.3021  0.3972
25254W        W40385  12.338  15.217  11.043  0.2598 -0.2396 -0.1026
25255W        W40386   4.792   4.028   0.060 -0.1079 -0.2124 -0.3836
25256W        W40387   5.468  15.517   2.679  0.2511 -0.1209 -0.0466
25257W        W40388   9.734   7.201  13.506  0.0199 -0.0171  0.2305
25258W        W40389  13.708  14.927   5.153  0.4000  0.2236  0.0232
25259W        W40390   6.617  12.744  11.560 -0.0852 -0.3406 -0.3123
25260W        W40391  11.094   0.759  10.995 -0.3324  0.2495 -0.0585
25261W        W40392  10.116  14.728   0.352 -0.1048  0.0359 -0.2567
25262W        W40393  11.112   1.364   3.631 -0.2449  0.0297  0.0506
25263W        W40394  12.420  17.879   1.940 -0.1977  0.0333  0.1655
25264W        W40395  16.199   8.996   1.081  0.0503 -0.0849  0.2786
25265W        W40396  12.573  15.560  10.627  0.2407 -0.2032  0.2393
25266W        W40397   1.191   9.601  12.445  0.1340  0.2117  0.1957
25267W        W40398  11.449   4.081  11.237 -0.0404 -0.1763  0.0394
25268W        W40399   5.428   9.015   0.281 -0.0346 -0.0697 -0.2340
25269W        W40400   6.377   4.178  15.032 -0.4167  0.0211 -0.2973
25270W        W40401  14.589  15.279   3.632 -0.1076  0.2020 -0.0296
25271W        W40402   6.866   8.684  10.853  0.2152  0.0721  0.0236
25272W        W40403  14.964   7.437   4.782 -0.0737 -0.0946  0.1258
25273W        W40404   2.375  15.995  14.371 -0.3260 -0.1684 -0.0337
25274W        W40405   6.229  12.216  13.837 -0.0076  0.0491 -0.1867
25275W        W40406  12.954  14.561  14.152 -0.1015  0.2342 -0.0158
25276W        W40407   9.369  12.829   5.560  0.3882  0.0444 -0.0498
25277W        W40408   0.969  10.122   0.410 -0.2157  0.0314  0.1347
25278W        W40409   8.519   3.754   3.391 -0.3865 -0.1355  0.1501
25279W        W40410  18.108   5.359   0.903  0.2962 -0.0300  0.1068
25280W        W40411   2.046  12.907   1.061 -0.0853 -0.1886  0.0266
25281W        W40412   1.153   1.692  15.686 -0.0348 -0.1021  0.0097
25282W        W40413   8.588  14.910  13.623 -0.0518 -0.0480 -0.0279
25283W        W40414   0.072  11.910   0.838  0.0775 -0.2851  0.1142
25284W        W40415   8.574   2.792   0.705  0.0432 -0.0859  0.1546
25285W        W40416   3.290  10.277  11.773  0.1554  0.3525 -0.0027
25286W        W40417  13.527  15.115  11.133 -0.0280 -0.1084 -0.0960
25287W        W40418  10.813   9.119  10.682  0.1991  0.2179 -0.1312
25288W        W40419   6.751  12.495  10.269 -0.1197  0.0507 -0.2601
25289W        W40420  16.794   9.654   2.802  0.2052  0.2383  0.2074
25290W        W40421  16.434  15.135  13.023  0.0346 -0.1508  0.1978
25291W        W40422  12.859   5.929  15.579  0.1019 -0.1713 -0.1795
25292W        W40423   3.229  18.258  15.956 -0.2120 -0.0715  0.0698
25293W        W40424   5.618   7.401   5.768 -0.2130  0.1684 -0.2293
25294W        W40425   5.430  12.194  13.224 -0.2365 -0.0844 -0.0927
25295W        W40426  13.814   9.210   5.524 -0.2180 -0.4382 -0.2659
25296W        W40427   1.904   1.581  11.678  0.1650 -0.1731  0.1306
25297W        W40428  10.368  12.457   1.997 -0.0860  0.1707 -0.0157
25298W        W40429  10.566  15.849   4.810  0.1998 -0.0952 -0.0113
25299W        W40430  16.101   0.651  12.617  0.0249  0.0638  0.1703
25300W        W40431   6.870  14.100  15.646 -0.1985  0.1614  0.0294
25301W        W40432  16.648   5.466  14.474  0.1542 -0.3169 -0.1891
25302W        W40433   7.382   6.097   3.401 -0.0393  0.0643 -0.2532
25303W        W40434  13.785  10.111  12.943  0.1526  0.0869 -0.4147
25304W        W40435   2.107  15.049  11.600  0.1383 -0.0420  0.1727
25305W        W40436   0.246   8.930  14.738  0.2592 -0.2666 -0.3113
25306W        W40437   8.097   6.006   4.878  0.1924 -0.3326  0.0295
25307W        W40438   3.911  16.824   3.795  0.2532  0.0163 -0.0499
25308W        W40439   2.878   0.366   1.188  0.2049  0.3330  0.0588
25309W        W40440  16.374  10.975   0.136  0.1936 -0.3240 -0.0739
25310W        W40441   8.394   2.370  14.062 -0.2430  0.2974 -0.0555
25311W        W40442   1.097   6.448  14.077  0.1114  0.0850 -0.1417
25312W        W40443   2.345  10.272  10.707  0.0952 -0.2527  0.2320
25313W        W40444   6.276  14.927   3.941 -0.4289 -0.1142  0.1373
25314W        W40445  10.942   9.244   3.955  0.1366  0.0974  0.0702
25315W        W40446   0.143   8.269  11.861 -0.1610 -0.1575 -0.0922
25316W        W40447  17.876   9.433   3.125  0.0947  0.1725 -0.1334
25317W        W40448  13.824  14.245   3.132 -0.0077  0.0459  0.3419
25318W        W40449   7.075  12.343   2.781  0.2156 -0.0373 -0.1631
25319W        W40450   8.036  16.744   3.171  0.1053 -0.1571 -0.1880
25320W        W40451   4.187  15.104  14.505  0.1276  0.0630 -0.4580
25321W        W40452   6.472   5.804  10.594 -0.0085  0.0990 -0.0659
25322W        W40453   6.009  12.804   1.175 -0.2812  0.0197  0.0802
25323W        W40454   1.060   4.726   1.571  0.1896 -0.1789  0.1021
25324W        W40455  14.648   0.345  13.873 -0.1125  0.1521 -0.1547
25325W        W40456   7.168   9.324  12.394  0.0927  0.1059 -0.1682
25326W        W40457   7.742   1.122   1.480  0.0244  0.1142 -0.0530
25327W        W40458  12.748  12.776   2.564  0.0243  0.2479 -0.2880
25328W        W40459   8.668   9.511  15.289 -0.1270 -0.0989  0.4282
25329W        W40460   7.411   8.562  14.602 -0.1698 -0.0470 -0.2313
25330W        W40461  12.980  11.388  12.384  0.0228 -0.0664 -0.0783
25331W        W40462   8.228   1.494   3.244  0.0951  0.2496  0.1877
25332W        W40463  14.319  18.315  12.243 -0.0322 -0.2505  0.0273
25333W        W40464   6.280  13.640   5.111 -0.0991  0.0138  0.1344
25334W        W40465   1.142   6.681  13.337  0.3085 -0.0747  0.0657
25335W        W40466   3.072  11.366   1.549 -0.0724 -0.1345  0.0207
25336W        W40467  14.393   2.965  11.593 -0.1802 -0.1496 -0.1650
25337W        W40468   5.737   5.992  10.142 -0.0728 -0.1089 -0.2544
25338W        W40469  16.830  14.078  13.343 -0.0673 -0.1167 -0.0703
25339W        W40470   0.546   1.868   0.209 -0.0909  0.2053  0.3158
25340W        W40471  11.026   1.958   4.174 -0.3272  0.2571 -0.1374
25341W        W40472   0.963  14.668   0.806 -0.0741 -0.0798 -0.2808
25342W        W40473   4.319   9.599   4.375  0.2987  0.3263  0.1622
25343W        W40474   8.249  11.680  12.846  0.1978 -0.3968 -0.3270
25344W        W40475   9.739   8.913   0.487  0.5437 -0.0229  0.1846
25345W        W40476  11.558   7.396   4.653  0.0494 -0.2743  0.0366
25346W        W40477  10.641   6.268   4.955  0.3535  0.2151 -0.1230
25347W        W40478  12.616  10.414  14.197  0.1418  0.0390  0.0526
25348W        W40479  11.339  17.899   0.221  0.0047 -0.1207 -0.1134
25349W        W40480   3.555  14.461   3.485  0.1221  0.1819 -0.0672
25350W        W40481  13.565   9.924  16.075 -0.0164  0.4082  0.0302
25351W        W40482   9.014   3.334  14.723 -0.0925  0.0879 -0.2845
25352W        W40483  11.281  17.865   1.039  0.2470  0.3338 -0.0965
25353W        W40484   7.289  16.325   2.596  0.0970  0.1834 -0.2382
25354W        W40485  10.889   5.386  10.912  0.1672  0.0802 -0.0347
25355W        W40486  13.685   2.627  11.626  0.1022  0.0203  0.0117
25356W        W40487   0.018  12.342  13.795 -0.0464  0.1358 -0.1903
25357W        W40488   4.690   2.054   5.571  0.1215 -0.1825 -0.1608
25358W        W40489   5.920  10.236  14.161  0.1185 -0.3514 -0.0452
25359W        W40490   7.627   4.299  12.350 -0.1838 -0.1980 -0.3278
25360W        W40491   3.635  12.827  13.164  0.4471  0.0934  0.0642
25361W        W40492  10.079   0.872  14.334 -0.0751  0.0243  0.1099
25362W        W40493   6.992  16.818   3.970  0.3194 -0.0552  0.0987
25363W        W40494  15.159  10.822   4.877  0.4767  0.3183  0.1118
25364W        W40495  14.711   7.525  13.710  0.0082 -0.2323  0.1377
25365W        W40496   7.850   9.937  15.821 -0.2709  0.1990  0.1647
25366W        W40497  13.577  12.702  15.592 -0.1868  0.0298 -0.0697
25367W        W40498  14.199  13.435  15.716  0.1425  0.2636  0.1781
25368W        W40499   0.205  11.935   2.417  0.1033  0.1007 -0.2839
25369W        W40500   5.860  13.295   2.599  0.1679  0.0344  0.2291
25370W        W40501  18.209   9.955   5.554  0.3269 -0.0713  0.2129
25371W        W40502   2.626   3.649  15.951 -0.1492 -0.0540 -0.1184
25372W        W40503   5.415   3.747   1.155 -0.0747 -0.0055 -0.2176
25373W        W40504  10.111  14.907  10.544 -0.4477 -0.0815  0.0918
25374W        W40505  12.378   1.268  11.253 -0.1834  0.0909 -0.1991
25375W        W40506  10.896  11.834  14.050  0.0029  0.1986  0.0077
25376W        W40507   8.484   4.674  13.214 -0.2809  0.4630 -0.1309
25377W        W40508  16.518   0.276   5.588  0.2397  0.2467 -0.1162
25378W        W40509   1.157   2.818  15.906 -0.1025 -0.0381  0.1432
25379W        W40510  15.830   1.488  14.587  0.3258  0.0926  0.1024
25380W        W40511   1.784  17.480   4.647 -0.0515 -0.0978  0.0328
25381W        W40512  14.802  17.392  14.010 -0.0358 -0.0242  0.0541
25382W        W40513   2.814  12.784   6.297 -0.0031 -0.0519 -0.1465
25383W        W40514   3.036  17.790  15.734 -0.0587 -0.0251 -0.0183
25384W        W40515  13.966   2.591   4.143 -0.0505  0.1294  0.2099
25385W        W40516  14.364   1.782   0.789 -0.2757  0.4039 -0.1480
25386W        W40517   5.357   1.791   0.370 -0.1700  0.4260  0.1035
25387W        W40518   0.436  11.129   1.123  0.0376 -0.3485 -0.1683
25388W        W40519   0.678  11.786  14.929 -0.1467  0.2530  0.0103
25389W        W40520   7.740   6.548  14.471 -0.4934  0.0259 -0.2750
25390W        W40521  11.933  11.950   5.422  0.0192  0.1885 -0.2025
25391W        W40522  14.235  13.353  12.212  0.1704 -0.0774  0.0332
25392W        W40523   0.944   7.717  11.916 -0.2505  0.0435 -0.0794
25393W        W40524   7.556  12.892  15.004  0.2057  0.2842  0.1984
25394W        W40525  10.563   6.378  11.063 -0.1272 -0.2242 -0.0557
25395W        W40526   1.483  11.249  12.258 -0.0328  0.1207 -0.0214
25396W        W40527   2.957   6.305  12.968 -0.2812 -0.1893  0.1894
25397W        W40528   6.494  16.498   5.136 -0.0433  0.0006  0.2855
25398W        W40529  16.018   3.362  12.683 -0.0272  0.1223 -0.0457
25399W        W40530   0.344  14.443  14.965 -0.0267 -0.3311 -0.5082
25400W        W40531  11.194   3.181   2.309 -0.0893 -0.0913 -0.3954
25401W        W40532  17.949   3.272  14.758 -0.0728 -0.0301 -0.1008
25402W        W40533  15.580  13.315   1.160 -0.3402 -0.2470 -0.0303
25403W        W40534  11.565  16.619   1.964  0.0600  0.0338  0.4876
25404W        W40535  18.156   3.612   1.114 -0.1056 -0.1270  0.2573
25405W        W40536  14.855  18.023  11.675  0.0352  0.0401  0.2400
25406W        W40537   4.127  13.899   4.785 -0.1478 -0.0819  0.0972
25407W        W40538  17.081  14.502  13.545  0.2638  0.1820 -0.1202
25408W        W40539   7.556   7.664  15.233  0.0972  0.3222  0.0880
25409W        W40540  16.766   5.610   5.025  0.2498 -0.0238  0.0876
25410W        W40541  13.308   8.522   0.512 -0.0915  0.0344  0.0465
25411W        W40542  16.804  12.592  15.361  0.1756  0.1601  0.0145
25412W        W40543  15.913   8.254  15.493 -0.0700 -0.1085  0.1596
25413W        W40544   4.918  17.890  14.785 -0.1150  0.0382  0.4145
25414W        W40545  14.875  11.708  12.996 -0.2899  0.2121 -0.2108
25415W        W40546   0.147  12.426   0.858  0.4040  0.2037 -0.0113
25416W        W40547   4.154  17.735   2.804 -0.3124 -0.0941  0.1044
25417W        W40548   2.333   6.580  15.091  0.3819 -0.0750  0.0983
25418W        W40549  17.560  10.047   3.852  0.0491  0.0828  0.1621
25419W        W40550   5.561   7.944  15.923  0.2750 -0.1082 -0.3075
25420W        W40551  16.930  18.197   2.586  0.1634 -0.0759 -0.1635
25421W        W40552  16.472  16.931  14.248 -0.0969  0.1830 -0.4693
25422W        W40553   9.620  11.983   4.430 -0.0853 -0.4445 -0.2467
25423W        W40554   3.270  10.925   3.467  0.1168  0.0403  0.0738
25424W        W40555   7.947   9.686   2.340  0.1176 -0.2246  0.1920
25425W        W40556   5.988   9.999   5.562  0.0013 -0.0555 -0.1818
25426W        W40557   8.034   7.584   4.566 -0.3435  0.0530  0.2451
25427W        W40558  16.591   9.214   4.977 -0.1632  0.1557  0.1756
25428W        W40559  17.234   0.834   2.122  0.2651  0.1119 -0.1320
25429W        W40560  17.464   6.748   1.672  0.0370 -0.0037 -0.0236
25430W        W40561  15.655  16.951   1.612 -0.0122 -0.0068  0.1207
25431W        W40562  14.469  10.945   5.559  0.2170  0.0670  0.1476
25432W        W40563  14.709  15.340  11.042  0.1037  0.1039  0.2433
25433W        W40564   6.583  13.831   3.285  0.3354 -0.1720  0.2728
25434W        W40565   8.216   9.827  11.422  0.2175  0.0606 -0.2270
25435W        W40566   6.609   4.647   2.269  0.1122  0.2311 -0.1286
25436W        W40567  11.065   4.187   0.761 -0.2525  0.2375 -0.6953
25437W        W40568   7.341   8.061  11.870  0.0763 -0.1328 -0.2115
25438W        W40569   7.989  10.192   4.580 -0.0755 -0.3129 -0.0458
25439W        W40570  17.524  17.796  13.553 -0.0656 -0.1753 -0.1681
25440W        W40571   9.535  14.793  16.043 -0.1803  0.0126 -0.1035
25441W        W40572   7.346  13.715  12.225  0.3051 -0.0208  0.2358
25442W        W40573   1.677  11.329   3.677  0.0170 -0.2351 -0.2843
25443W        W40574   2.190   3.617  12.618  0.1451  0.1264  0.2333
25444W        W40575   7.164   0.210  10.347  0.0831 -0.0890 -0.0935
25445W        W40576  15.204   5.795   4.326  0.0665 -0.1939 -0.1854
25446W        W40577   8.148   8.985  15.660  0.0252 -0.1356  0.1170
25447W        W40578   3.468   6.159  12.240  0.0135 -0.1154 -0.1749
25448W        W40579  14.331   4.639  12.266 -0.2651 -0.3726  0.1685
25449W        W40580   8.447   7.081   2.850  0.1466  0.3187  0.2827
25450W        W40581  11.506  15.852  15.186  0.1217  0.0440  0.1534
25451W        W40582   5.169   8.996  13.651  0.1948 -0.2373  0.0136
25452W        W40583  15.333   2.782  13.175 -0.2122 -0.0313 -0.0786
25453W        W40584  15.616   2.864   5.081  0.0205 -0.1833  0.1536
25454W        W40585   7.219   9.693   1.045 -0.2793 -0.1700  0.0971
25455W        W40586   8.636  18.231   1.394 -0.0542  0.0843  0.0854
25456W        W40587   9.908   9.142   1.429  0.2747 -0.2342 -0.2194
25457W        W40588   9.299   9.586   4.223 -0.0586  0.0814 -0.2551
25458W        W40589  17.254  16.381  15.232 -0.3003  0.0119  0.0994
25459W        W40590   6.602   4.273   1.521 -0.1695 -0.3882 -0.2337
25460W        W40591   6.065   6.052   4.936 -0.0465  0.2010 -0.1270
25461W        W40592   3.122  16.556  12.208 -0.1388  0.1376 -0.2157
25462W        W40593   5.462  16.351  13.697 -0.1800  0.2214  0.0392
25463W        W40594  10.769  15.808   3.686  0.1761  0.0314 -0.1132
25464W        W40595   1.159   1.227   2.396 -0.3624  0.2142 -0.0222
25465W        W40596   0.639   7.168   2.428  0.0208  0.0527  0.0157
25466W        W40597   5.814   8.523   2.987  0.3349 -0.0907  0.0274
25467W        W40598   0.168  10.896  10.199  0.0084 -0.1190  0.0218
25468W        W40599   4.341  15.833   1.792 -0.0762 -0.2045 -0.0389
25469W        W40600   0.577   9.867   0.249  0.2049 -0.2565  0.2325
25470W        W40601   7.859   0.553  12.291 -0.3419 -0.1273 -0.1319
25471W        W40602   0.252  15.969   2.362 -0.0171  0.0484  0.2253
25472W        W40603  10.112   0.978   5.424 -0.0876 -0.0803 -0.3093
25473W        W40604  14.367  14.444  12.672  0.1340  0.1440  0.1518
25474W        W40605  11.821  16.802  13.258  0.1750  0.0086 -0.1315
25475W        W40606  12.404  16.186  11.225  0.0893 -0.3327 -0.0161
25476W        W40607  16.657  11.213   1.938 -0.0909  0.2918  0.1445
25477W        W40608   1.794   8.224  13.137 -0.1119  0.1375  0.0446
25478W        W40609  17.893   0.919   4.838 -0.0982  0.1155  0.1570
25479W        W40610   7.493   2.268   2.265 -0.2177 -0.2721 -0.2641
25480W        W40611  17.794  17.067   4.372  0.1942 -0.0253  0.3273
25481W        W40612   3.684   0.612   5.864 -0.1592  0.0654  0.1682
25482W        W40613   6.660   1.951  13.550  0.1096  0.0740 -0.0163
25483W        W40614   8.214  12.879   0.020 -0.0453  0.0392  0.2367
25484W        W40615  16.766   0.642   3.899 -0.2077  0.0090 -0.1809
25485W        W40616   7.435  11.416  16.006  0.0724  0.0568  0.4682
25486W        W40617  16.847  18.110  11.850  0.2555 -0.1029  0.3204
25487W        W40618  13.509   2.105  12.173  0.1638 -0.0265 -0.0038
25488W        W40619   0.290  12.853   1.089  0.0236 -0.0767  0.2395
25489W        W40620  12.412   8.169   4.070  0.1337  0.1190 -0.0114
25490W        W40621  13.563  15.074   9.789 -0.0890  0.2952  0.2411
25491W        W40622   7.532   3.181   2.434  0.2012  0.0371 -0.0424
25492W        W40623   2.592   2.515  15.120 -0.0668  0.0873 -0.1893
25493W        W40624   4.018  16.129   0.219  0.1160 -0.2911 -0.0455
25494W        W40625   5.533  17.076   4.731 -0.4160  0.0974  0.0300
25495W        W40626   3.262  12.836  16.018  0.3029  0.0678 -0.0209
25496W        W40627   9.059   6.571   3.246 -0.0575 -0.1025  0.1965
25497W        W40628   8.325   7.379  13.326  0.0978  0.1981 -0.1323
25498W        W40629  10.752  17.160  13.168 -0.1375 -0.0378 -0.0073
25499W        W40630   1.665   8.771   2.899  0.1062  0.2051  0.0981
25500W        W40631  10.779   4.398  10.251 -0.3159 -0.1161  0.1061
25501W        W40632  12.277   5.695   4.246 -0.0442 -0.1786  0.0563
25502W        W40633   2.663  16.115   0.063 -0.0573  0.2175 -0.2127
25503W        W40634   4.896   2.995   5.232 -0.0783  0.0579  0.0340
25504W        W40635  18.325  15.011  12.178  0.0695 -0.0308 -0.3039
25505W        W40636   1.348   5.204  15.187  0.2860 -0.0752 -0.0555
25506W        W40637  13.158  12.681   0.893 -0.1202  0.0638  0.2547
25507W        W40638  13.057  15.300   1.836  0.0008  0.2634 -0.1810
25508W        W40639   6.734   1.040   5.506 -0.2086 -0.1143  0.3173
25509W        W40640  12.549  16.164   3.523 -0.0726  0.7184  0.0854
25510W        W40641  17.236   5.391  11.229  0.1135 -0.1913 -0.0745
25511W        W40642   7.215  11.939   5.949  0.0202  0.0160 -0.1910
25512W        W40643   2.149  17.387  15.875 -0.1002 -0.2364 -0.0671
25513W        W40644  13.472   9.297  14.793  0.0077 -0.0156 -0.2096
25514W        W40645   1.822  17.849  11.091 -0.1337  0.0564 -0.0342
25515W        W40646  13.074   0.067   3.510  0.0691 -0.0117  0.1045
25516W        W40647  10.449   7.060  11.688  0.0585  0.2252 -0.0130
25517W        W40648  17.482   5.643  13.775  0.0653  0.0992  0.0060
25518W        W40649  11.613  15.238  14.106  0.1158  0.1491  0.2623
25519W        W40650   6.531  11.985  15.846 -0.0126 -0.3347 -0.1763
25520W        W40651   3.550   1.090   4.806 -0.0176 -0.1124 -0.1235
25521W        W40652   2.975  10.563  12.934  0.1962 -0.2259 -0.0360
25522W        W40653  16.258   5.244   3.813  0.3448 -0.0431  0.2501
25523W        W40654  17.357  12.022   1.449 -0.0302  0.1647 -0.4471
25524W        W40655   8.187   0.630  15.513  0.1900  0.1008 -0.0640
25525W        W40656   9.539   7.483  10.073  0.0549 -0.2254 -0.4493
25526W        W40657  11.015   5.723  10.569 -0.1691  0.1470 -0.0309
25527W        W40658  15.482   2.447  13.507 -0.0706  0.3168  0.1472
25528W        W40659   4.832  15.436   3.456  0.0886  0.3119 -0.2459
25529W        W40660  14.774   0.694  14.760  0.1401 -0.0125 -0.1488
25530W        W40661   2.973  13.938  11.242  0.1889 -0.3558  0.2490
25531W        W40662   7.403   8.206   2.476 -0.4056  0.0503  0.0786
25532W        W40663   4.269   1.743  15.631  0.0238 -0.1691 -0.0974
25533W        W40664   8.017  15.877  13.621 -0.1259  0.1650  0.0025
25534W        W40665   1.970  12.231  15.450  0.1159  0.2069  0.0454
25535W        W40666   4.698   0.012  14.818  0.1756  0.1345  0.0388
25536W        W40667  16.763  17.606  11.872 -0.1976  0.3632 -0.0017
25537W        W40668  14.355  16.114  13.378 -0.1812 -0.2030  0.0560
25538W        W40669   3.628   2.131   2.587 -0.2442  0.4317  0.5356
25539W        W40670   9.675  14.665   1.820  0.2738 -0.0688 -0.1198
25540W        W40671   3.335   9.231  15.267 -0.0510 -0.1979 -0.0304
25541W        W40672  16.260   2.351   2.339 -0.3286  0.3195  0.2295
25542W        W40673  16.424   5.949   5.178  0.1244 -0.1811 -0.2784
25543W        W40674   2.685  15.623  14.204  0.0005  0.3154 -0.2707
25544W        W40675   0.356  12.353  16.044 -0.0919  0.0132 -0.0030
25545W        W40676   6.015   3.264  12.437 -0.0598 -0.2433 -0.0326
25546W        W40677   1.064   0.056  11.275  0.0021 -0.1742  0.1767
25547W        W40678   1.536  16.776  15.237 -0.0458  0.2599 -0.0130
25548W        W40679   9.279   3.353  14.085 -0.2424 -0.0103 -0.1264
25549W        W40680   5.699   8.110  13.722  0.1602 -0.1681  0.0296
25550W        W40681  15.702   0.549   0.360  0.2390  0.1409  0.0686
25551W        W40682   3.452   5.766  15.651 -0.1195 -0.1281  0.0209
25552W        W40683   9.098  12.010   4.634  0.0229  0.0017  0.1803
25553W        W40684   9.910  16.887  12.654 -0.0087  0.1567 -0.0148
25554W        W40685   3.573  14.618  13.951 -0.1126 -0.2023  0.0145
25555W        W40686   3.093  13.479   1.662 -0.0761 -0.2273 -0.2859
25556W        W40687   8.752   1.499  11.089  0.2124  0.0296 -0.0670
25557W        W40688   5.409   1.801  12.016 -0.1158  0.0963  0.0879
25558W        W40689   3.275  16.389   4.674 -0.1794 -0.0420  0.4431
25559W        W40690  11.325   4.245   6.160 -0.1351  0.2234  0.0938
25560W        W40691  14.283  16.852   2.120  0.0311 -0.2488 -0.0367
25561W        W40692   1.475  12.738  12.615 -0.1608  0.1378 -0.0044
25562W        W40693   5.495  16.675  13.278 -0.2572  0.3127  0.2979
25563W        W40694  10.910   8.589  15.957 -0.0396  0.0688  0.0322
25564W        W40695  17.011   5.498   0.081  0.2066  0.2757 -0.1020
25565W        W40696  11.401  11.257   3.818 -0.1987 -0.1480 -0.0026
25566W        W40697  14.460   1.358   0.052 -0.5649  0.2164 -0.1855
25567W        W40698  15.821   6.236   0.512  0.2925  0.1574  0.0008
25568W        W40699  14.309  13.688   0.049  0.1009 -0.0866  0.2541
25569W        W40700  17.854  11.143  13.261 -0.0168  0.1166 -0.4113
25570W        W40701  13.718   0.194   1.608  0.0427  0.1990  0.1926
25571W        W40702  18.175  10.062  11.847 -0.3426  0.3334 -0.2019
25572W        W40703  15.425   6.535  13.288 -0.2308 -0.1371  0.0090
25573W        W40704  12.673   4.922  14.551  0.1547 -0.3606 -0.0550
25574W        W40705  12.833   4.010  11.168  0.0803 -0.2194  0.1120
25575W        W40706  14.011   1.827  14.382  0.1455 -0.0144 -0.4101
25576W        W40707  13.513  16.771  14.574 -0.4405  0.0061  0.1826
25577W        W40708   7.916  14.955  13.540 -0.0114  0.0228  0.0927
25578W        W40709  13.414   2.976   5.184  0.0037  0.1499  0.1564
25579W        W40710   2.155  13.366  11.630  0.1049 -0.1082 -0.0212
25580W        W40711   1.268   0.216  10.726 -0.2005  0.1497  0.1211
25581W        W40712   7.667  16.844   2.224  0.0465 -0.1949 -0.1336
25582W        W40713   0.194   2.825   3.013 -0.0375 -0.1347 -0.0642
25583W        W40714  14.610  11.528   3.260 -0.1682 -0.2372  0.3298
25584W        W40715   6.169   2.958   5.690 -0.0222 -0.0179 -0.1355
25585W        W40716  15.738   8.255   1.450 -0.0249 -0.1733 -0.1994
25586W        W40717   7.094  16.856   4.773 -0.2830  0.1547 -0.0257
25587W        W40718   6.356   2.249  13.910 -0.0019  0.0939 -0.1240
25588W        W40719   9.728   3.919   0.336 -0.0872  0.1751  0.0144
25589W        W40720   6.870   2.131   5.692 -0.0691  0.2585  0.0025
25590W        W40721   7.510  13.779  13.950 -0.3361 -0.2404  0.2007
25591W        W40722   5.156  18.224  14.522 -0.0003  0.0817  0.1416
25592W        W40723   5.333   1.969  15.963  0.0359 -0.1430 -0.3995
25593W        W40724  13.932   0.869  13.967 -0.2232  0.1653  0.3901
25594W        W40725  14.800   0.889  12.752  0.0050 -0.1778 -0.1815
25595W        W40726  12.843   4.812  15.074 -0.1619 -0.1273 -0.0088
25596W        W40727   2.428   1.591   5.057 -0.0132  0.1722  0.1785
25597W        W40728   0.181  18.330   1.467 -0.1298  0.1352  0.1025
25598W        W40729   0.571   4.599   2.545  0.2907 -0.0447  0.0410
25599W        W40730  15.220  14.713  14.806  0.0781 -0.3154  0.1573
25600W        W40731  11.286  16.034  14.280 -0.0273 -0.4500  0.0970
25601W        W40732   8.838  12.953  14.060 -0.1336  0.0889 -0.1162
25602W        W40733  14.590   5.547  10.997  0.1366  0.3487 -0.1135
25603W        W40734   9.287  13.228   1.022  0.0357  0.3804 -0.0181
25604W        W40735   9.363   4.119   4.600  0.2389  0.0635  0.0158
25605W        W40736  16.572   9.370   2.391 -0.0165  0.2450 -0.0633
25606W        W40737   0.624  14.991   1.779 -0.1110 -0.2200 -0.1324
25607W        W40738   6.147  11.348   2.967 -0.2944 -0.1357 -0.2030
25608W        W40739   4.527   2.697   3.357 -0.1684 -0.1547 -0.0993
25609W        W40740  17.864   8.840  14.828  0.1199 -0.0471 -0.0971
25610W        W40741  14.879  17.069  13.623 -0.1487  0.1990  0.1791
25611W        W40742   8.583  12.322   2.726  0.0652 -0.1261 -0.0091
25612W        W40743   8.071  13.357   3.994  0.2426  0.0853 -0.0204
25613W        W40744   8.476   2.446   3.085  0.1945  0.0867 -0.3360
25614W        W40745   3.155  12.193   0.566  0.1027  0.1639  0.0756
25615W        W40746  16.909  10.918  13.408 -0.2095  0.0070 -0.3317
25616W        W40747  11.325  16.812  15.018  0.1669  0.0530 -0.2664
25617W        W40748  10.035   6.750  13.974 -0.0536  0.0681 -0.1896
25618W        W40749  15.031   8.372  15.355 -0.1204  0.1065  0.2500
25619W        W40750  14.494   0.624   1.313 -0.0223 -0.0404  0.0563
25620W        W40751   3.192   7.368  11.973 -0.1299  0.1614  0.1699
25621W        W40752  13.368  14.035  16.033 -0.2306 -0.2786 -0.0397
25622W        W40753  14.823  14.394   3.203 -0.2567  0.1601  0.4426
25623W        W40754   3.856   5.885  16.021 -0.2366 -0.0704 -0.1224
25624W        W40755  13.209   9.348   3.733  0.1115  0.2015  0.2511
25625W        W40756   8.657  13.429  14.343  0.1657 -0.2764  0.0662
25626W        W40757   3.675   6.146   3.608  0.0463  0.1818 -0.0048
25627W        W40758   9.827   7.308  12.687 -0.3528 -0.2804  0.0052
25628W        W40759   5.720  13.815  13.029  0.1079  0.1281  0.0277
25629W        W40760   3.736  10.348  12.513 -0.0640 -0.1287 -0.2816
25630W        W40761  12.323   7.380  13.619  0.0255  0.0713 -0.1017
25631W        W40762  13.567  17.826   2.715  0.3173  0.0366  0.0408
25632W        W40763  13.421   1.758   5.227  0.0219  0.3046  0.2151
25633W        W40764  11.719   0.014   3.875  0.0387 -0.1606 -0.1601
25634W        W40765   1.819   5.531   2.287  0.0493  0.2292 -0.0513
25635W        W40766   6.584   1.161   1.576  0.2457 -0.0946  0.0173
25636W        W40767  13.673  12.524   5.593  0.2255 -0.1865  0.0684
25637W        W40768   4.014   6.609  13.839  0.2742  0.2601  0.0021
25638W        W40769   2.171  14.769  14.616  0.0324 -0.1274  0.0955
25639W        W40770   1.404   3.166   1.660 -0.1781  0.1370  0.2572
25640W        W40771  14.142  14.363  11.326  0.2057 -0.0293  0.0314
25641W        W40772   0.637   7.127  10.314  0.0156 -0.2838  0.0886
25642W        W40773   4.859  14.594   0.232 -0.0779  0.0445  0.3249
25643W        W40774   8.573   0.061   5.083 -0.1678 -0.1410  0.0150
25644W        W40775  10.702   2.315   0.711 -0.2938  0.0824  0.0046
25645W        W40776  14.376  11.363  14.008  0.0430  0.1409  0.2148
25646W        W40777  15.795   8.155   4.643 -0.2226 -0.1994 -0.0753
25647W        W40778   6.643   4.738   4.473  0.1145 -0.0068 -0.7083
25648W        W40779   6.546   1.467   0.596  0.0088 -0.2934  0.1500
25649W        W40780  12.052  10.582   1.889  0.0799 -0.1258 -0.0794
25650W        W40781   0.376  14.677   2.174  0.3202  0.0042 -0.1397
25651W        W40782  12.815   5.252   2.574 -0.3141  0.1748  0.1195
25652W        W40783  10.308  15.619  10.859 -0.0152  0.0964  0.0481
25653W        W40784  10.759  13.132   0.734 -0.1160  0.0054 -0.2195
25654W        W40785   8.631   5.745  14.241 -0.0992  0.3093  0.0810
25655W        W40786   1.302  12.881  15.380  0.1141  0.2285  0.2940
25656W        W40787  17.402   8.294  14.072 -0.0890  0.1183  0.0003
25657W        W40788   0.762  10.677   3.746 -0.3538  0.0181 -0.1806
25658W        W40789   7.103   8.105   1.079  0.0993 -0.1356 -0.0631
25659W        W40790   3.497   2.549   5.753  0.3608 -0.1065 -0.2626
25660W        W40791   3.277  14.907   3.995  0.1745 -0.3000 -0.0897
25661W        W40792  14.503   6.449  11.451  0.0930 -0.4411 -0.0953
25662W        W40793   4.723   3.440  11.635  0.2212  0.0778 -0.1578
25663W        W40794   1.315   7.802  11.192 -0.0972  0.1754  0.4661
25664W        W40795  13.719   2.064   1.107  0.0316  0.1342  0.1164
25665W        W40796   3.274  12.322   0.027  0.0394  0.3058  0.0318
25666W        W40797   7.808  12.538   0.106 -0.1408 -0.0405 -0.0924
25667W        W40798   8.144  13.358   5.763 -0.3173 -0.3596 -0.1567
25668W        W40799  18.216   7.923  13.912 -0.1861 -0.4836  0.3032
25669W        W40800   6.546   3.598  13.611 -0.1773 -0.2694  0.2553
25670W        W40801  13.159  17.979   1.176  0.1334 -0.1301  0.1163
25671W        W40802  10.657   1.017  10.997  0.1756  0.1244 -0.3676
25672W        W40803   2.779   7.138  11.924  0.0415 -0.0525  0.1291
25673W        W40804  16.998  10.667   0.911  0.1993  0.3748 -0.1517
25674W        W40805   1.103  10.297  15.049  0.3172 -0.2108 -0.0459
25675W        W40806  10.635  16.389   4.291 -0.2462  0.1553  0.3781
25676W        W40807   6.244  14.033  15.536  0.2973 -0.3160  0.2931
25677W        W40808   0.892   4.886   2.150  0.2545 -0.0201  0.3063
25678W        W40809  11.367  17.080  13.170 -0.2193 -0.0809 -0.2178
25679W        W40810  11.042  14.799   3.565  0.0071  0.0204  0.0558
25680W        W40811   5.632   6.229  12.039  0.0259  0.0769 -0.0974
25681W        W40812   5.198   4.435  13.353 -0.2778  0.4614  0.0606
25682W        W40813   6.584   9.819   4.589  0.1924 -0.3345  0.4810
25683W        W40814   9.076   7.250  13.950 -0.2031  0.0127  0.0559
25684W        W40815  18.303  10.170  14.404 -0.1582 -0.1189 -0.2724
25685W        W40816  15.950   3.682  13.150 -0.1895 -0.2348  0.0455
25686W        W40817   5.445  16.350  12.858 -0.2494 -0.0713  0.1642
25687W        W40818   5.955  10.689   3.554 -0.0162 -0.5174  0.2497
25688W        W40819   9.398  13.962   1.589  0.0544 -0.0600 -0.2701
25689W        W40820   9.974  13.358   6.099  0.0549 -0.0527  0.2037
25690W        W40821  17.607   6.147   3.993 -0.1105  0.0548 -0.1908
25691W        W40822  11.756   2.902  12.858 -0.2194  0.0108  0.2241
25692W        W40823   1.286   2.543   3.639  0.1869  0.5086 -0.1133
25693W        W40824  10.959   9.855   4.614 -0.5273 -0.3763 -0.0832
25694W        W40825   8.632   4.802   3.836 -0.1496  0.0804 -0.0165
25695W        W40826  14.519  14.392   1.262 -0.1068 -0.1311  0.3876
25696W        W40827  10.154   5.401  12.363  0.0357 -0.1042  0.0678
25697W        W40828   4.036  14.471  12.599 -0.0954  0.2089  0.3097
25698W        W40829   9.137   8.586   1.819 -0.0170 -0.0417 -0.1292
25699W        W40830   0.372  10.911   3.457 -0.0106  0.0987  0.0140
25700W        W40831   9.416   3.052   5.437  0.0752  0.2243  0.0382
25701W        W40832  10.298   5.745   1.645  0.3005  0.2277 -0.2205
25702W        W40833  10.154  10.820  14.251 -0.4105 -0.2654 -0.1121
25703W        W40834   1.350   6.080  12.659 -0.1800 -0.2851  0.3827
25704W        W40835   4.457   5.964  14.404  0.0201 -0.0750  0.0138
25705W        W40836  12.263   7.864  12.323  0.1127 -0.1795 -0.0450
25706W        W40837  14.026   1.047   6.128 -0.2160  0.1719 -0.1616
25707W        W40838  13.389   0.693   5.127  0.1086  0.1836  0.0938
25708W        W40839  14.656  13.996  12.616 -0.0086  0.0122  0.1774
25709W        W40840   5.004  11.381   0.407 -0.0214 -0.1330  0.0158
25710W        W40841   2.512  15.872  12.213  0.1234  0.1148  0.2719
25711W        W40842   9.623   3.414  11.741  0.1385  0.4054  0.0164
25712W        W40843   3.530  17.523   3.470  0.0117 -0.1513 -0.1058
25713W        W40844  16.897  12.824  13.387  0.0739  0.0491 -0.1773
25714W        W40845  17.699  13.556  14.787 -0.1649 -0.2108 -0.0815
25715W        W40846  10.332  13.983  15.268  0.1162 -0.0153 -0.0053
25716W        W40847  10.787   9.594   3.500 -0.3429 -0.2069 -0.2766
25717W        W40848   7.976  16.885   1.196  0.1999  0.2807  0.1188
25718W        W40849  15.388  10.947  12.845  0.2229 -0.0319 -0.2462
25719W        W40850  13.757  10.481   1.377 -0.2827 -0.2030  0.3525
25720W        W40851   0.737   8.737   0.532 -0.0871  0.1534 -0.3206
25721W        W40852   9.689  12.249  15.309 -0.1380 -0.5239  0.1596
25722W        W40853   3.003   2.118  10.355  0.0124  0.3386  0.0028
25723W        W40854   1.420  11.570   0.908 -0.2496 -0.0356 -0.1960
25724W        W40855  13.093  11.433  13.235  0.0066 -0.0854  0.2174
25725W        W40856   8.771   5.231  13.627  0.1755 -0.1269 -0.0071
25726W        W40857   6.224   7.801  10.817  0.1747 -0.5316  0.1285
25727W        W40858  12.759  10.548   1.484  0.1558 -0.1741  0.0014
25728W        W40859  14.604   4.904   0.341 -0.0111 -0.0509  0.0429
25729W        W40860   5.756  11.446   0.674 -0.0463  0.0422  0.0727
25730W        W40861  15.984   2.657   0.906  0.1269 -0.1896 -0.1496
25731W        W40862  14.531  16.062   4.773 -0.0676 -0.2903 -0.1885
25732W        W40863   8.340  17.116  12.511  0.1223  0.0165  0.0576
25733W        W40864   0.204  14.859   3.576  0.0425  0.3326 -0.1939
25734W        W40865  14.706  17.220   3.292  0.0793 -0.1457  0.1295
25735W        W40866   0.344   5.805  12.771  0.1675 -0.0567 -0.3986
25736W        W40867  13.936  14.661   4.238 -0.1240 -0.2880 -0.1728
25737W        W40868   7.201   5.782   4.103 -0.0663 -0.1498  0.3223
25738W        W40869   5.464   4.625  12.999 -0.0626 -0.2713 -0.0284
25739W        W40870  13.879  12.288  12.592  0.0053 -0.2012 -0.0850
25740W        W40871   9.797  14.602   0.723  0.3659  0.0348  0.0326
25741W        W40872  16.927   6.690   9.813 -0.0283 -0.0485 -0.3809
25742W        W40873  13.822  11.747  15.662 -0.0692 -0.2194  0.1848
25743W        W40874   3.573  12.808   2.122 -0.1496  0.3064 -0.0408
25744W        W40875  10.773   3.830  12.736  0.0718 -0.2107  0.2011
25745W        W40876   9.755  11.745  14.834  0.2092 -0.1475 -0.1661
25746W        W40877  16.924   1.499  15.091 -0.0536 -0.0679  0.1515
25747W        W40878   4.144   9.472   3.348 -0.2665 -0.0440  0.2549
25748W        W40879   0.985   9.245  13.856  0.1727  0.0562  0.0519
25749W        W40880  11.488   4.408  11.683 -0.0727 -0.2463 -0.3463
25750W        W40881  10.335   9.918  14.507  0.0270 -0.0815 -0.1238
25751W        W40882   5.052  15.171  14.063 -0.1254  0.0233  0.0351
25752W        W40883   5.844   0.846  15.339  0.0767  0.3447 -0.2831
25753W        W40884  10.383  14.692  12.201  0.0922  0.0357  0.1520
25754W        W40885   3.090  14.271  12.522 -0.0477 -0.1970  0.1000
25755W        W40886  13.468  17.108  11.309 -0.0198  0.0848  0.0478
25756W        W40887  10.019   7.641  11.855  0.0383  0.1775  0.2302
25757W        W40888  14.994  11.683   1.744 -0.0339  0.0176  0.0246
25758W        W40889   6.492   4.223   2.055  0.1673 -0.0189  0.1959
25759W        W40890   4.818   0.613   4.161  0.0056  0.0099 -0.2190
25760W        W40891   2.611   5.085   3.525  0.0713  0.3282 -0.1222
25761W        W40892  12.412  17.762  13.187  0.0803 -0.1849  0.1152
25762W        W40893   0.922   3.418  12.971 -0.0742 -0.0540  0.0735
25763W        W40894  11.619  15.848  10.552  0.1009 -0.0878  0.0576
25764W        W40895  15.594  11.832  14.362 -0.0664  0.3449 -0.1005
25765W        W40896  13.846   5.784  15.297  0.1211  0.0873  0.1257
25766W        W40897   6.847  17.101   4.333 -0.2317  0.0437  0.1094
25767W        W40898   6.139   6.690  14.901  0.1434 -0.1005  0.1288
25768W        W40899   7.151  15.602  12.585 -0.1293  0.0378 -0.0953
25769W        W40900  11.018   2.982  11.490  0.1506 -0.1198  0.1062
25770W        W40901   0.336   6.985  12.707  0.0593 -0.1832 -0.1554
25771W        W40902  15.796  15.682   3.674  0.1670 -0.0147 -0.0587
25772W        W40903   2.310  17.603  11.909  0.0318  0.0022 -0.1216
25773W        W40904   9.325   0.542   2.264 -0.2158 -0.1532 -0.0623
25774W        W40905   3.066   7.394  15.951 -0.1752  0.2973  0.1191
25775W        W40906   1.268   3.567   1.956  0.1081  0.2655  0.0491
25776W        W40907   1.673   6.878   2.702 -0.3472 -0.0132 -0.2003
25777W        W40908   8.243  17.531   1.826 -0.0687 -0.3133  0.2551
25778W        W40909  13.735   0.025   2.140 -0.0916  0.2794 -0.1589
25779W        W40910   1.560  12.979   1.352 -0.0444  0.1237  0.3912
25780W        W40911   4.389  13.514   3.883 -0.1888 -0.0050 -0.0648
25781W        W40912   4.904   7.724  12.138  0.0228 -0.0238  0.3481
25782W        W40913  17.804  17.454  15.778  0.1465  0.1255 -0.1822
25783W        W40914   2.914   1.562   3.792 -0.1480 -0.0708  0.3264
25784W        W40915   6.929  11.263  13.253  0.2251  0.3296  0.3067
25785W        W40916   5.714   3.021  14.590  0.2390 -0.3340 -0.1369
25786W        W40917   7.399  15.138  14.015  0.2894 -0.1383 -0.2273
25787W        W40918   8.240   8.970   4.130  0.4047  0.0595 -0.0690
25788W        W40919  14.439  15.782   0.702  0.0845  0.6210  0.0477
25789W        W40920   8.266  11.147   4.287  0.1273  0.2791  0.2871
25790W        W40921   0.966  11.265   0.912 -0.0121  0.0657 -0.2864
25791W        W40922  17.364   2.681   5.470 -0.1159  0.0760  0.1784
25792W        W40923   2.305   1.316  11.879 -0.2735 -0.2940  0.0226
25793W        W40924   5.405   4.100   2.210 -0.3020  0.3022 -0.1291
25794W        W40925  15.608  14.187   1.267 -0.0060  0.1291  0.0678
25795W        W40926  14.962  14.490   5.502 -0.0026  0.1356  0.1568
25796W        W40927  10.950  11.162  15.811  0.0091 -0.0105  0.1404
25797W        W40928  14.680   0.099   2.190 -0.2647  0.2598  0.1096
25798W        W40929  10.387   5.580  15.177 -0.1107 -0.0577 -0.1424
25799W        W40930  10.317  10.665  15.799  0.0972 -0.3788  0.1186
25800W        W40931  15.717   9.628  15.185  0.0900 -0.0023  0.1513
25801W        W40932  12.632   9.462  11.851 -0.3214  0.2638  0.0815
25802W        W40933  18.041  16.339   3.280  0.0286 -0.1478 -0.0950
25803W        W40934   5.409  17.824   4.055  0.0130 -0.2118  0.0330
25804W        W40935  15.513  10.046   4.186  0.2143  0.1218  0.1807
25805W        W40936  14.972   9.504   4.636 -0.2833  0.0106 -0.0447
25806W        W40937   6.759   2.472  14.832  0.1007  0.2457  0.2496
25807W        W40938  15.468  18.240   1.475  0.0270  0.2414  0.0766
25808W        W40939   4.261   2.152   5.236  0.2253 -0.2105  0.2610
25809W        W40940  14.048   0.697   3.262  0.1168 -0.1071 -0.0044
25810W        W40941   5.410   6.944  14.832 -0.0989  0.3377  0.0876
25811W        W40942   0.966   1.517  11.431 -0.0352 -0.2400  0.0449
25812W        W40943   7.004   2.238   1.092 -0.0263 -0.1591 -0.2782
25813W        W40944  13.391   8.721   3.940  0.0341  0.0865  0.0849
25814W        W40945   6.990  10.875   2.252 -0.1242  0.1080 -0.2315
25815W        W40946   4.367   5.923   4.131  0.2407  0.0307 -0.2644
25816W        W40947   6.619  11.797  13.004 -0.2073 -0.3250  0.0210
25817W        W40948   7.179   1.873   1.463  0.0575  0.2056 -0.3876
25818W        W40949   6.233   8.077  13.872  0.0535  0.0125 -0.2003
25819W        W40950   6.898  13.756  14.637  0.0367 -0.1292  0.3605
25820W        W40951  13.461  10.149  11.786  0.2980 -0.0009  0.0947
25821W        W40952   6.503   9.790  11.229 -0.2646 -0.1077  0.0602
25822W        W40953   7.867  10.228  12.228  0.1914  0.0350 -0.0366
25823W        W40954  15.793   7.045  16.014  0.1399 -0.0881  0.2954
25824W        W40955   1.511   5.521  13.412  0.0539 -0.1945  0.0971
25825W        W40956  11.905  15.932  11.418  0.0472 -0.0965  0.0288
25826W        W40957   9.991  12.152  11.938 -0.1698  0.1542  0.3645
25827W        W40958   6.841   1.511   4.369  0.1125 -0.3011  0.1155
25828W        W40959   1.863   3.022   3.559 -0.0858 -0.0860  0.0060
25829W        W40960   0.323   7.909   6.388  0.2773 -0.1291 -0.1790
25830W        W40961   6.152  15.924   2.963  0.1319  0.1734  0.1464
25831W        W40962   2.782  14.357  12.893  0.2491  0.3370 -0.3124
25832W        W40963   3.965   7.988   5.727 -0.1318 -0.2974 -0.0592
25833W        W40964   3.500   3.210  13.312 -0.1302  0.1513 -0.0742
25834W        W40965   0.752   4.618   3.799 -0.0356 -0.0004 -0.3718
25835W        W40966   5.120  16.040  11.688  0.5044  0.0830  0.2386
25836W        W40967   3.605   2.691  12.346  0.0444  0.0074 -0.2999
25837W        W40968  16.091  13.218   5.221  0.2584 -0.0812 -0.2722
25838W        W40969   0.587   2.046   1.512 -0.2009  0.5433  0.0419
25839W        W40970   6.459  13.681  15.874  0.3781  0.0797 -0.3001
25840W        W40971  15.655  11.206  12.202 -0.0581 -0.0759  0.0319
25841W        W40972   1.043   4.283   4.705  0.0491  0.0774 -0.1017
25842W        W40973   2.053   5.243   1.890  0.0570  0.1975  0.3335
25843W        W40974   9.789  14.445   3.006  0.2217  0.0492  0.2441
25844W        W40975  15.855   2.989   4.189 -0.1699  0.4032  0.0793
25845W        W40976   6.236  11.474   1.968  0.1394 -0.0770  0.1464
25846W        W40977   3.224  10.413   0.066  0.0666  0.0262  0.1117
25847W        W40978   8.999  13.129  15.744 -0.1016 -0.1852 -0.1622
25848W        W40979   8.463  12.561   3.167  0.0326 -0.1066 -0.0372
25849W        W40980   1.065   0.758   5.673  0.1653  0.0690 -0.2141
25850W        W40981   0.751  16.712   5.983  0.0699  0.3850 -0.2000
25851W        W40982  11.535  15.738   4.546  0.0421 -0.1325  0.1977
25852W        W40983  13.363  16.282  14.457  0.0936  0.1606 -0.0721
25853W        W40984  14.549   2.528  14.647  0.2609  0.1535  0.0765
25854W        W40985  10.028   8.293   3.502  0.0508  0.1011 -0.0200
25855W        W40986  13.779  17.232   2.791 -0.1441 -0.0795  0.0802
25856W        W40987   6.270   4.844  12.174 -0.1704 -0.0120 -0.0351
25857W        W40988  11.848   1.199   2.747 -0.1337  0.0134 -0.0919
25858W        W40989   0.424  11.562   5.193  0.1934  0.1012 -0.1968
25859W        W40990  13.803   8.764  13.168 -0.6711 -0.1674 -0.1503
25860W        W40991   3.633   2.911   5.373 -0.0329 -0.1586  0.2341
25861W        W40992   7.573   8.045   4.968  0.2890 -0.2289 -0.0068
25862W        W40993   2.273  13.004   4.368 -0.5130 -0.0216  0.4521
25863W        W40994   1.851  14.228   0.862  0.1616 -0.0684  0.0551
25864W        W40995  15.631  11.443  14.728  0.2762  0.0573  0.1261
25865W        W40996  14.614  17.931  15.298 -0.1416 -0.1705  0.0557
25866W        W40997  16.902  15.965   4.774 -0.1108 -0.1252  0.3248
25867W        W40998   9.232  14.941   1.807 -0.0456  0.3848 -0.4901
25868W        W40999  12.005  16.748   1.954  0.0334 -0.2029 -0.0260
25869W        W41000   9.930   1.097  15.306 -0.1114 -0.0648  0.2892
25870W        W41001  13.045  16.314   3.673 -0.1771 -0.1814  0.0400
25871W        W41002  14.293   8.607   4.701 -0.1878 -0.0541 -0.0141
25872W        W41003   5.047  17.565  10.721  0.3204  0.1009 -0.2705
25873W        W41004   9.046   5.209  12.667  0.0753  0.0396  0.3272
25874W        W41005   8.014   0.028   0.635 -0.0482 -0.0202 -0.2233
25875W        W41006  12.298   1.880   2.839 -0.0844  0.1444  0.1465
25876W        W41007  14.242  15.724   1.192  0.2279  0.1452  0.0471
25877W        W41008  12.289   8.727   1.552 -0.1875 -0.0297  0.2308
25878W        W41009  13.306   6.403  13.118 -0.2869  0.2593  0.3141
25879W        W41010   7.446   5.394   3.926 -0.0938 -0.0018 -0.1223
25880W        W41011   5.985   6.113  11.059  0.0738  0.3770  0.0849
25881W        W41012   2.556  12.423   2.187  0.1269  0.0176 -0.0188
25882W        W41013  16.922   5.800  13.649 -0.1974  0.2806 -0.2962
25883W        W41014  10.796  14.540  11.977 -0.0021  0.2870 -0.0034
25884W        W41015   8.459   0.702   4.558 -0.0851  0.0921 -0.3023
25885W        W41016   7.903  12.511   1.170 -0.0005  0.0190  0.2645
25886W        W41017   9.457  11.601  11.653 -0.1212  0.0366 -0.2195
25887W        W41018  15.986   7.131   0.981 -0.0727  0.1002  0.0915
25888W        W41019   6.134   6.884  14.192 -0.1701 -0.0889  0.3644
25889W        W41020  18.204  17.100  13.252  0.3009  0.4102  0.0631
25890W        W41021  15.339  11.506   2.551  0.0296 -0.1935  0.0396
25891W        W41022   8.448   7.897  15.247 -0.2472 -0.0015 -0.1979
25892W        W41023   7.068  13.938   4.971  0.1368 -0.0602 -0.1816
25893W        W41024   6.461   4.427  15.853  0.1094  0.0152  0.0416
25894W        W41025   8.649   6.212  13.456  0.1357 -0.0077  0.3197
25895W        W41026  10.568   0.208  13.293 -0.1776  0.1123 -0.1102
25896W        W41027   4.545   1.686   6.050  0.1409  0.1850 -0.0053
25897W        W41028   8.300  16.792  14.594  0.2077  0.1384 -0.0201
25898W        W41029  11.012   5.944  11.889  0.2296  0.1318 -0.1465
25899W        W41030   5.660   0.822   1.840  0.0607  0.0086 -0.2796
25900W        W41031   6.069   6.044  15.015  0.0176 -0.0689  0.4174
25901W        W41032   7.539   7.597   4.650  0.4979 -0.2645  0.0845
25902W        W41033   9.361   0.381  14.291 -0.0834 -0.0905  0.2087
25903W        W41034   1.069  10.780  15.376  0.0735  0.0611 -0.3534
25904W        W41035  13.102  11.459  11.899  0.0757  0.4007  0.0170
25905W        W41036  17.454  11.521   3.962  0.1828 -0.2029  0.2792
25906W        W41037   9.670  12.843   0.996  0.2924  0.0845  0.0569
25907W        W41038   2.305   2.191  12.750 -0.1861  0.0119 -0.0574
25908W        W41039  15.189  10.878   2.025  0.2692  0.2049 -0.2856
25909W        W41040  13.856  12.076  13.952 -0.1581  0.2628 -0.0237
25910W        W41041   3.812   6.404  16.111 -0.3987  0.2338 -0.2561
25911W        W41042   6.766   1.406  12.358  0.2022 -0.0917  0.1941
25912W        W41043  15.432   8.249  15.708  0.5371  0.1115 -0.3305
25913W        W41044   8.074   7.981   2.988  0.2001  0.2778  0.2376
25914W        W41045   1.309   2.681  12.506 -0.0578  0.0584  0.1204
25915W        W41046   2.766   7.951   2.907  0.0282  0.0640  0.3302
25916W        W41047  15.904   7.441   5.506 -0.1162 -0.2245 -0.2173
25917W        W41048   7.291   2.226   5.352  0.1464 -0.1988  0.0766
25918W        W41049  12.188   2.150  15.664 -0.2087  0.2677  0.1189
25919W        W41050  11.256   4.385   3.133  0.0200  0.0140  0.2902
25920W        W41051   4.144  18.048   1.414 -0.1709 -0.2715 -0.0918
25921W        W41052   7.911   8.010   0.857 -0.0953  0.1994  0.2588
25922W        W41053   7.649  17.717  11.186  0.2148 -0.2460  0.0114
25923W        W41054   1.907   3.241   1.743  0.1128  0.0822  0.0076
25924W        W41055  11.835   3.096   3.352 -0.0693 -0.0835  0.0455
25925W        W41056  15.452  11.691   1.457  0.2302  0.1178 -0.1349
25926W        W41057  15.377   8.219   5.145  0.2157  0.0680 -0.1906
25927W        W41058  16.210   3.590   4.902 -0.4920 -0.2894  0.1104
25928W        W41059  10.459  11.488  13.649 -0.0869 -0.0108 -0.0705
25929W        W41060   7.738  15.002   0.825 -0.1687 -0.2516 -0.0742
25930W        W41061   6.636   7.201  15.602 -0.0331  0.1733 -0.1409
25931W        W41062   6.044   0.505   1.864  0.2348 -0.0981 -0.2389
25932W        W41063  10.251   3.010   1.469  0.1979 -0.0084  0.2466
25933W        W41064   7.714  17.963   4.160  0.2386  0.2622  0.1627
25934W        W41065  13.832   8.706  10.762  0.0888  0.1112  0.0743
25935W        W41066   1.523  14.062  15.690  0.0986  0.0117 -0.0741
25936W        W41067  14.934   7.226  11.879  0.2644  0.0345  0.0420
25937W        W41068  10.496   3.623  15.699 -0.1125  0.0574  0.1938
25938W        W41069  14.363  15.081  14.157  0.1422 -0.4056 -0.0500
25939W        W41070   1.694  17.645   0.618 -0.2173  0.0892  0.1872
25940W        W41071  17.029   5.678   2.483 -0.0225 -0.2258 -0.2806
25941W        W41072  14.634  12.179  16.006  0.0168 -0.0874  0.0250
25942W        W41073   8.385   1.670   5.567 -0.4076  0.2463  0.0465
25943W        W41074   4.377   1.719  10.830 -0.0468 -0.2439  0.1635
25944W        W41075   2.358   7.645  11.692  0.1440  0.2916  0.0034
25945W        W41076   7.228  14.637   2.503  0.1795  0.0965 -0.2928
25946W        W41077   5.677  10.976   2.389  0.0297 -0.0196  0.1496
25947W        W41078   8.076  12.999   1.009 -0.0014  0.1575  0.2800
25948W        W41079  12.814  10.199  13.044 -0.1503  0.1123  0.3664
25949W        W41080  12.758   0.860  14.892 -0.0393 -0.2377  0.0424
25950W        W41081  14.755  12.760   5.259 -0.0752 -0.0426 -0.1522
25951W        W41082   0.815  12.458   1.835 -0.4313 -0.1572  0.0181
25952W        W41083   8.116   4.265   3.967 -0.5285  0.0430 -0.1943
25953W        W41084  12.342   8.025  11.859  0.0961 -0.0716  0.0632
25954W        W41085  11.863   7.119  10.103  0.0345  0.0190  0.0494
25955W        W41086   0.010  16.168  12.436 -0.0801  0.1144  0.0758
25956W        W41087  11.647   5.777  13.748  0.0319  0.0880  0.3593
25957W        W41088   5.949   7.036   4.011  0.0338 -0.0355 -0.2046
25958W        W41089  10.031  11.471   3.529  0.1979 -0.0099 -0.0379
25959W        W41090  15.083   9.472  15.922  0.0968 -0.4971 -0.3199
25960W        W41091   7.751   7.485  12.009 -0.1689  0.0280  0.3470
25961W        W41092  14.784  17.198  14.700  0.1115 -0.0440 -0.1181
25962W        W41093   2.503   2.915   4.457  0.2166 -0.3246  0.2281
25963W        W41094   1.044  12.537   4.709  0.0953  0.0722  0.0460
25964W        W41095   0.391   9.391  12.340  0.0274 -0.0675  0.1075
25965W        W41096   2.133  15.599   2.830 -0.2613 -0.3200  0.0621
25966W        W41097  12.940   8.079  13.609  0.4266 -0.3918  0.0735
25967W        W41098   1.960   1.173  12.984 -0.2138  0.0073 -0.0667
25968W        W41099   8.129   9.707   5.305 -0.0417  0.0264  0.0322
25969W        W41100  15.266   8.703   5.030  0.0962 -0.1297 -0.0494
25970W        W41101  10.314  17.546  14.897  0.0909  0.0653 -0.0500
25971W        W41102   4.025  12.737  11.241 -0.1346 -0.3383  0.0983
25972W        W41103  12.015  17.903   1.640  0.3596 -0.0328 -0.1177
25973W        W41104   6.730   6.348   2.803 -0.0275  0.2606  0.0656
25974W        W41105   2.268   3.497  15.019  0.2430 -0.0075  0.1496
25975W        W41106   9.206  11.060   3.315 -0.0831 -0.0474 -0.4182
25976W        W41107   2.512  15.282  15.545 -0.1729 -0.0384  0.1097
25977W        W41108   6.935  18.083   1.499  0.0938 -0.0623 -0.0232
25978W        W41109   0.339   2.427  10.405  0.0012 -0.3482  0.1472
25979W        W41110   2.639  13.078   2.994 -0.0006 -0.1073 -0.1527
25980W        W41111  11.044   9.498   1.428 -0.0048  0.0470  0.0781
25981W        W41112  14.951   4.265  15.936 -0.1108 -0.1572 -0.0601
25982W        W41113   3.735  14.184  12.987  0.1575 -0.3013 -0.1767
25983W        W41114  16.620  17.752   4.504  0.0195 -0.0778 -0.1935
25984W        W41115   8.956   9.352  13.460 -0.0916 -0.3638  0.1657
25985W        W41116   7.918  13.537  14.375 -0.0433 -0.0143 -0.0548
25986W        W41117   4.204   3.421   2.607 -0.1505  0.0168  0.1960
25987W        W41118   2.785  14.589   1.978 -0.2228 -0.3836 -0.2838
25988W        W41119   1.282   9.742   1.954 -0.0083 -0.0024  0.0608
25989W        W41120  14.433   1.524  14.479  0.1630 -0.2496  0.1889
25990W        W41121   1.103   9.065  14.651 -0.3295  0.2927  0.0027
25991W        W41122  11.663   8.611  12.405 -0.1213 -0.1826  0.0169
25992W        W41123  15.593  18.035  10.162 -0.2618  0.0838  0.2406
25993W        W41124  14.911   0.130   0.919 -0.1514 -0.2336 -0.0748
25994W        W41125   2.246  14.307   1.949 -0.0656  0.0979  0.0257
25995W        W41126  15.278   1.360  11.502  0.2673  0.2151 -0.4178
25996W        W41127  16.363   0.330  15.757 -0.0416  0.4321  0.1997
25997W        W41128   7.620   4.208  15.218  0.0065  0.0374  0.4629
25998W        W41129  17.285   0.237  13.507 -0.1567  0.0532 -0.0791
25999W        W41130  15.412   9.119  16.054  0.0627 -0.1647 -0.0199
26000W        W41131  16.635  11.725  10.694  0.0866  0.0452  0.1220
26001W        W41132   6.312   2.971   5.024 -0.0984 -0.0546 -0.0227
26002W        W41133   6.255   0.077  15.992 -0.0308  0.0459 -0.1265
26003W        W41134   6.788   4.336   2.870 -0.2447  0.1337 -0.0235
26004W        W41135   8.293   7.146  11.535 -0.3277 -0.0532 -0.0799
26005W        W41136  16.681  15.853  15.226  0.0191 -0.1906  0.0529
26006W        W41137   5.502   9.612  11.910 -0.1265  0.0170 -0.0140
26007W        W41138  10.454   6.038  13.543 -0.0343  0.2512 -0.1474
26008W        W41139   1.675  14.959   2.398  0.0846  0.3692  0.0781
26009W        W41140  14.544   1.066  15.714 -0.2002  0.1662  0.1093
26010W        W41141  11.342   2.693   0.883 -0.1362 -0.1083 -0.0443
26011W        W41142   0.888  14.091   2.095  0.0498 -0.0660 -0.1287
26012W        W41143  13.984   6.987   5.275  0.2370  0.0958  0.2059
26013W        W41144   3.622   5.003   6.186  0.0252  0.1286 -0.2277
26014W        W41145   7.655   9.341  14.978 -0.2113  0.3980  0.3464
26015W        W41146  13.457   2.322   1.709  0.0779 -0.1970 -0.1323
26016W        W41147  13.035   2.456  15.750 -0.5091 -0.1425  0.0254
26017W        W41148   4.940   6.650   3.823 -0.3160  0.2400  0.0300
26018W        W41149   0.149   3.037   4.572  0.2989 -0.0761  0.0933
26019W        W41150   9.670   3.319  15.304  0.2376 -0.1396  0.0656
26020W        W41151  14.950   9.966   0.806 -0.0829  0.2166 -0.2717
26021W        W41152  15.052  16.131  13.153 -0.3100  0.1757  0.1714
26022W        W41153  11.450  12.994   1.903 -0.0639 -0.1610 -0.2288
26023W        W41154  15.687  13.831   3.349 -0.0226  0.1070  0.0396
26024W        W41155   1.381   3.238  13.279 -0.1468  0.0921  0.3261
26025W        W41156   4.370   2.886  14.655  0.3619 -0.0193 -0.1005
26026W        W41157  16.839  18.268  15.328  0.2202 -0.0422  0.2763
26027W        W41158   2.993  13.501   3.174  0.1751  0.3227  0.2999
26028W        W41159  17.573   8.165  15.583 -0.1764  0.0452 -0.0807
26029W        W41160   0.607   7.981   4.028  0.1183  0.0385  0.0756
26030W        W41161   2.102   2.226  13.266  0.0242 -0.1581 -0.2252
26031W        W41162   8.590   6.304   1.465  0.1906  0.0016 -0.2344
26032W        W41163   4.589  18.020  14.419  0.0357  0.3460  0.0429
26033W        W41164   4.794   5.359   0.943 -0.2220 -0.1108  0.1315
26034W        W41165   3.935   2.721  15.800  0.1978 -0.1750 -0.1795
26035W        W41166  10.305  13.190   0.458  0.1937 -0.3255 -0.2374
26036W        W41167  15.598   4.634   2.023  0.1950 -0.0350  0.0965
26037W        W41168   7.073  14.592   3.633 -0.1099  0.0664 -0.1892
26038W        W41169   5.707  16.590  12.409 -0.1134 -0.2230  0.3011
26039W        W41170   4.983  17.295   1.320 -0.0273  0.0913  0.1361
26040W        W41171  14.893  16.739   4.589 -0.2173 -0.1126  0.0868
26041W        W41172   5.058   4.270   4.749  0.1199  0.1478 -0.0109
26042W        W41173  17.196  11.148  14.555  0.3058  0.4256  0.2240
26043W        W41174   2.839  12.228   1.760  0.0342  0.0675 -0.2106
26044W        W41175  15.579   5.541  11.410 -0.1229 -0.3070  0.2615
26045W        W41176  15.833   1.915  14.833  0.2582 -0.3779 -0.0242
26046W        W41177   2.914  16.248  14.486  0.0792  0.1950 -0.1985
26047W        W41178   3.336   3.914   5.561  0.0060  0.1990  0.0382
26048W        W41179   3.050  15.906  12.181  0.1838 -0.0098  0.0461
26049W        W41180   6.132  13.065  13.321  0.1450 -0.0769 -0.0723
26050W        W41181   8.937   3.013  11.218 -0.0046 -0.2203 -0.1438
26051W        W41182  16.060  11.774   2.491 -0.0478  0.1681  0.0031
26052W        W41183   5.157  15.963   5.243  0.1458  0.1250 -0.1527
26053W        W41184  18.286  15.751  14.242  0.1800  0.0401  0.2949
26054W        W41185  16.475   9.142  10.744 -0.0004  0.0784 -0.0133
26055W        W41186  17.184  14.753  12.941  0.0828 -0.1026 -0.2257
26056W        W41187   0.762   2.025  13.242  0.1293  0.0603 -0.1272
26057W        W41188   4.268  17.735   1.068  0.0312  0.0685 -0.0522
26058W        W41189   9.408  11.209   2.107  0.1886  0.3156  0.0965
26059W        W41190   4.079  10.203  15.934 -0.1914  0.1686 -0.1441
26060W        W41191  11.877   9.802   0.237  0.0822 -0.0351 -0.2106
26061W        W41192   8.683  16.779   5.874 -0.0830 -0.2170 -0.0729
26062W        W41193   7.988   5.146  13.905  0.2751  0.0964  0.0432
26063W        W41194   3.071  18.268  12.850  0.0034  0.0157 -0.0896
26064W        W41195   7.069   8.874  14.864 -0.3144 -0.3418  0.0562
26065W        W41196   7.464  13.279  14.166  0.2981 -0.0102 -0.2392
26066W        W41197  14.817   2.028   0.612  0.1228  0.5153 -0.0505
26067W        W41198  12.237   1.767  10.387  0.1107  0.1137 -0.1246
26068W        W41199  14.421   9.641  15.393  0.2449  0.1514 -0.0169
26069W        W41200  18.191  14.145   1.181 -0.1819 -0.2149 -0.0250
26070W        W41201   8.403   8.869   1.215  0.2330  0.0279 -0.2826
26071W        W41202  12.152   0.983  12.032  0.1333  0.1296  0.1167
26072W        W41203  18.037   6.469  14.155 -0.2802  0.2673  0.2634
26073W        W41204  11.449   6.797   3.984  0.3356 -0.1336 -0.1234
26074W        W41205   2.499   7.126  11.483  0.2381  0.3128  0.0508
26075W        W41206   3.740   8.282  14.299 -0.1233  0.0792  0.0754
26076W        W41207   8.572   5.999   0.376 -0.2859 -0.2350 -0.0733
26077W        W41208   0.548   3.430   1.882  0.1299 -0.0377 -0.2714
26078W        W41209  10.234  17.989   2.258 -0.3004  0.2529  0.0991
26079W        W41210  16.328  13.669  12.738 -0.1637  0.2933 -0.0685
26080W        W41211   6.019   5.292  16.051 -0.1466  0.2275  0.0838
26081W        W41212  14.001   3.976  11.930 -0.1132  0.0832  0.3930
26082W        W41213   3.084   3.421  13.060 -0.1790 -0.2134  0.1369
26083W        W41214   9.100   4.704  12.338 -0.1447 -0.0380  0.0609
26084W        W41215  17.235   2.666  11.828  0.1419 -0.2628 -0.0652
26085W        W41216  16.692   6.990   5.120 -0.1333  0.1262 -0.1318
26086W        W41217  15.558   7.975   1.891 -0.2412 -0.1812 -0.1469
26087W        W41218  15.301  10.790   3.941  0.0116 -0.2279 -0.0711
26088W        W41219  18.164   5.280   2.948 -0.1085  0.1010 -0.0106
26089W        W41220   5.817   2.029  10.605 -0.1727  0.2032  0.0041
26090W        W41221   0.589  16.175   2.834 -0.0222 -0.4093 -0.2173
26091W        W41222   4.677   9.848  12.884  0.4176 -0.0108  0.0135
26092W        W41223   3.307   9.784   3.487 -0.0822  0.2230 -0.2686
26093W        W41224   8.185  13.416  16.062 -0.1450 -0.0008  0.3441
26094W        W41225   0.795  12.724   1.347  0.1531 -0.1261 -0.0789
26095W        W41226  15.508  11.289  16.004  0.0262  0.1041  0.1841
26096W        W41227   7.252   0.191   3.168  0.1316  0.3102 -0.0207
26097W        W41228  15.162   0.490   0.561 -0.0396  0.0658 -0.0851
26098W        W41229   3.302   8.895   3.136 -0.1174  0.1564 -0.0968
26099W        W41230  11.179   5.662  15.637  0.2021 -0.1957  0.1456
26100W        W41231   7.347   6.348  15.418  0.1436 -0.2309  0.0521
26101W        W41232   7.522  16.321   4.415  0.3852 -0.1137 -0.0150
26102W        W41233   1.563  16.926  11.393  0.1194 -0.0113  0.0965
26103W        W41234  13.772  18.115  15.301 -0.2657 -0.2113 -0.1173
26104W        W41235  10.770   3.203   0.931  0.1240  0.3668 -0.0989
26105W        W41236   6.317  15.904  14.268 -0.1949 -0.2362 -0.0260
26106W        W41237   6.275  13.865   1.768  0.1363  0.1421 -0.2327
26107W        W41238   4.329   7.784  15.169 -0.1209  0.0053  0.1160
26108W        W41239   7.062   3.277  14.341  0.2706 -0.1819  0.1389
26109W        W41240  11.746  14.093   1.822 -0.0925 -0.2027  0.3357
26110W        W41241   1.628   5.767   2.735  0.1202 -0.1105  0.0041
26111W        W41242   7.673   3.510   1.247  0.4101 -0.0741 -0.0797
26112W        W41243  17.722   9.886   0.125 -0.1343  0.0479 -0.2057
26113W        W41244  12.982  17.198  13.934  0.0949  0.2709 -0.0266
26114W        W41245  10.431  12.993   1.578 -0.1201  0.2373 -0.1677
26115W        W41246  13.496   9.903  13.594 -0.3456 -0.1216 -0.0334
26116W        W41247  11.188  11.519   0.675 -0.0557  0.1250  0.1048
26117W        W41248   0.002   8.312  15.404 -0.1179 -0.0283  0.2269
26118W        W41249  11.067  18.168   2.587  0.2749 -0.0196 -0.0612
26119W        W41250  17.213   2.942  12.317  0.5506 -0.1494 -0.0716
26120W        W41251  13.528   6.222   5.098 -0.0891 -0.0113 -0.0984
26121W        W41252  18.289  14.069  14.281  0.0893 -0.2031  0.0406
26122W        W41253   6.397  17.581   4.620 -0.0716 -0.2799  0.5080
26123W        W41254  16.031   8.716  15.343  0.0659 -0.2134  0.0308
26124W        W41255  13.836   0.383  11.918  0.0625 -0.0827  0.0210
26125W        W41256   0.250   3.342   3.103 -0.0106 -0.1898 -0.3000
26126W        W41257   4.559  15.738   3.131  0.0148 -0.0846 -0.0945
26127W        W41258  15.465   1.924   5.129  0.0789 -0.2133  0.1500
26128W        W41259   5.080   4.489   2.741 -0.2323 -0.1000  0.0442
26129W        W41260   8.273  16.717  15.153  0.0843  0.1054 -0.1229
26130W        W41261  11.028  15.958  11.502 -0.0595  0.2534 -0.1090
26131W        W41262   7.406  16.549  14.857  0.0866 -0.1558  0.1526
26132W        W41263  17.629  15.257   2.446  0.0661 -0.0623  0.0961
26133W        W41264   5.052  15.561   2.420 -0.1037  0.0592 -0.2457
26134W        W41265  16.004   8.235   0.812 -0.0119 -0.0240  0.2575
26135W        W41266   1.291   7.690  12.324  0.0077  0.5238 -0.1606
26136W        W41267  10.827  16.761   1.438 -0.2313  0.1060 -0.1535
26137W        W41268  13.164  16.836   4.996  0.1591 -0.4258  0.1990
26138W        W41269   7.423   2.123   0.214  0.0966 -0.0043  0.3366
26139W        W41270   2.089  14.631  11.268 -0.0347  0.2397 -0.1075
26140W        W41271   4.916   8.586   2.884  0.0966  0.0031  0.0456
26141W        W41272   0.387   7.307   4.788  0.0444 -0.2247 -0.0273
26142W        W41273   5.730   4.820   5.287  0.0148 -0.0609 -0.0565
26143W        W41274   7.798   1.009   2.611 -0.0995 -0.1120 -0.0706
26144W        W41275  10.259  16.487   2.610 -0.1698 -0.0136 -0.0196
26145W        W41276   1.836   3.257  14.921 -0.2120  0.5124 -0.3414
26146W        W41277   7.624  13.390   1.676  0.1727  0.0264  0.1153
26147W        W41278  13.896   0.177   4.540  0.1110  0.1839  0.0312
26148W        W41279   3.326  15.161   1.209 -0.2472  0.2317 -0.2331
26149W        W41280  11.366   5.058   4.729  0.1983  0.2088  0.3264
26150W        W41281   4.590  16.418   0.986 -0.2181 -0.0216 -0.2963
26151W        W41282   3.254   7.679  13.272  0.0911  0.2202 -0.1521
26152W        W41283   3.327   5.945   1.752  0.0627  0.2217 -0.0249
26153W        W41284   2.377  12.236   2.980  0.1767 -0.0794 -0.1038
26154W        W41285  12.550   5.753   2.921 -0.1028 -0.1034  0.1494
26155W        W41286   3.811  12.999   4.992 -0.0963  0.3550 -0.2890
26156W        W41287   6.598  15.548  14.070  0.4545  0.2995 -0.1312
26157W        W41288   7.045   1.387  12.727 -0.0133  0.0615 -0.4136
26158W        W41289  15.601  16.442   4.744 -0.3365 -0.0450 -0.0823
26159W        W41290   4.737  13.945   3.945 -0.0143  0.2186  0.1652
26160W        W41291  17.804   4.404   6.067  0.2085 -0.2589 -0.2243
26161W        W41292  13.351   7.819   4.398  0.0897 -0.0295 -0.2726
26162W        W41293   9.854   8.976  14.558 -0.2041 -0.0505 -0.0686
26163W        W41294   1.955   9.355   0.420 -0.1441  0.1604  0.2505
26164W        W41295   5.329   9.933  12.765 -0.0555  0.2063  0.0203
26165W        W41296   6.046   6.086   1.326  0.1006  0.2640  0.0964
26166W        W41297   7.773   7.291   3.745 -0.3948  0.2008  0.3456
26167W        W41298  17.456  17.272  16.081 -0.2543  0.0540 -0.2849
26168W        W41299   9.101   5.372  14.783  0.3831 -0.1681 -0.2645
26169W        W41300   3.667   4.924  14.313 -0.1361  0.0211 -0.2933
26170W        W41301   1.400   7.385  13.951 -0.0697 -0.1679  0.2553
26171W        W41302   9.068  10.357  14.015  0.0031 -0.1275 -0.4795
26172W        W41303  15.658   1.367   0.678  0.1281  0.0120 -0.0753
26173W        W41304  13.306   3.649   2.098 -0.2983  0.0042 -0.2293
26174W        W41305   1.581   4.096  11.551  0.2072  0.2091 -0.0544
26175W        W41306   4.078   2.481   0.085  0.0507 -0.2376 -0.2669
26176W        W41307   3.954  14.232   2.603  0.2435 -0.4264  0.1376
26177W        W41308  17.517   8.063  15.112 -0.0463 -0.0411 -0.4753
26178W        W41309   2.445  16.881  14.964 -0.0005 -0.0639  0.0752
26179W        W41310  11.333   5.584  14.765  0.0073 -0.0212  0.0232
26180W        W41311  10.177  12.361   0.543 -0.0998  0.0086  0.3998
26181W        W41312  14.181  17.657   1.110  0.2950 -0.0169 -0.0304
26182W        W41313  14.916  11.306  14.107 -0.0117 -0.2686  0.1433
26183W        W41314  11.106   9.124   1.738 -0.2040  0.0735  0.2734
26184W        W41315  17.111  11.300   0.377 -0.2235  0.2538  0.0643
26185W        W41316   4.934   9.062   4.502 -0.3357  0.4020  0.0790
26186W        W41317  15.158   7.224   1.192 -0.1106 -0.0082 -0.1960
26187W        W41318  16.571   6.321   3.220  0.0697  0.0293  0.0834
26188W        W41319   8.353  12.090   3.464  0.0154 -0.1002  0.0403
26189W        W41320   5.119  17.558  13.808  0.1777  0.0602 -0.0005
26190W        W41321   2.826   0.618   3.848  0.1646  0.1268  0.0537
26191W        W41322  14.005  17.668   4.091  0.1195 -0.0451  0.0903
26192W        W41323   7.270   8.325   1.528  0.1314  0.1242  0.0001
26193W        W41324  13.257  14.456  12.443  0.3730  0.1629 -0.0360
26194W        W41325   6.459  11.087  14.284 -0.1028  0.1192 -0.1901
26195W        W41326   9.201  14.232   5.298 -0.4021 -0.1535 -0.0041
26196W        W41327   6.552   4.923  15.264  0.0624  0.1685  0.3593
26197W        W41328  10.354  18.152  12.254  0.0601  0.3204 -0.0713
26198W        W41329   5.087  16.588   2.997 -0.1991  0.2581  0.0198
26199W        W41330  15.703  15.046   4.464  0.1822  0.3240  0.1605
26200W        W41331   7.633   1.069   4.573  0.2912 -0.0502  0.0690
26201W        W41332  13.649  16.681  15.828 -0.1949  0.0962  0.1036
26202W        W41333   1.349   0.125   5.320  0.0034  0.0609  0.1376
26203W        W41334  11.016   5.344  12.183  0.2745  0.1208  0.3193
26204W        W41335  14.254  14.565   0.156 -0.4806 -0.2507  0.1970
26205W        W41336   2.402   5.642  13.851  0.0437 -0.2075 -0.1768
26206W        W41337   4.857  16.122   4.088  0.0202 -0.1096 -0.3071
26207W        W41338  10.050  15.885   0.538 -0.0604 -0.1409  0.1078
26208W        W41339  17.667   9.974   0.608  0.2464 -0.1929  0.0768
26209W        W41340   7.833  11.081   4.063  0.0389  0.0945 -0.0770
26210W        W41341   3.821   8.453   0.774 -0.0124 -0.0122  0.1580
26211W        W41342   5.155   2.312   5.447  0.0229 -0.0105  0.0027
26212W        W41343   8.706   8.763   5.195  0.3214 -0.0072  0.4290
26213W        W41344  14.121   1.316  14.086 -0.1240  0.2112  0.4689
26214W        W41345   1.672   5.312   0.390  0.1820 -0.2513  0.0901
26215W        W41346   5.599   2.932  13.079 -0.0996 -0.2197 -0.0312
26216W        W41347   7.543   3.259  11.555  0.0094  0.0573 -0.1063
26217W        W41348   6.396  11.247  15.165 -0.3589 -0.0778  0.0468
26218W        W41349  17.023  11.895  13.364 -0.1276  0.1459  0.0734
26219W        W41350   7.403   4.047   2.427 -0.0422 -0.0636  0.0258
26220W        W41351  11.907   1.219   5.504  0.0649 -0.2000 -0.0161
26221W        W41352   0.855   5.290   1.053 -0.2110  0.0262 -0.0750
26222W        W41353  13.496  17.547   2.282 -0.0086 -0.1989 -0.2169
26223W        W41354   8.961  11.420  11.776  0.0212  0.1967 -0.0589
26224W        W41355  15.522  13.597   4.947  0.0793  0.3118 -0.1899
26225W        W41356   2.683   9.109  10.406 -0.3078 -0.1051 -0.3392
26226W        W41357  15.337  17.599   3.821  0.1234  0.0632  0.0873
26227W        W41358  16.180   4.312   4.488  0.1693 -0.1458  0.2934
26228W        W41359   7.986   0.465   5.601  0.2423  0.1038  0.0860
26229W        W41360  14.714  15.695  14.634 -0.2773 -0.3292 -0.3637
26230W        W41361   2.592  13.664   4.827 -0.0172 -0.0788 -0.2098
26231W        W41362   9.861   9.777   0.601 -0.2815  0.1786  0.1589
26232W        W41363  14.354   2.985   4.421 -0.0437  0.1768  0.1969
26233W        W41364  15.027   7.979   4.196 -0.0453  0.0788 -0.4507
26234W        W41365   3.926   9.897   5.842  0.5024  0.1733  0.1081
26235W        W41366   5.933  13.805   2.570 -0.2538 -0.2504  0.1044
26236W        W41367  13.717  10.963   1.801  0.2717  0.0885  0.0115
26237W        W41368   1.989   9.780  14.837 -0.0629  0.3653 -0.1922
26238W        W41369   4.463  15.944   5.809 -0.4612 -0.0669 -0.1816
26239W        W41370  13.911   7.051  15.550  0.0798  0.1815  0.0247
26240W        W41371  16.702   5.696   1.882 -0.2130 -0.1859  0.0933
26241W        W41372  12.450  13.126   4.004 -0.0585  0.0206  0.0532
26242W        W41373   2.248  16.595  10.100 -0.0477  0.5255 -0.0724
26243W        W41374   6.723  10.842  15.700  0.0009  0.2401 -0.0046
26244W        W41375   3.889   4.784  12.602 -0.2973 -0.1022 -0.2929
26245W        W41376   5.938   7.543   3.153 -0.0533 -0.1991 -0.1178
26246W        W41377   8.989  11.789   0.544 -0.0996  0.0139  0.0675
26247W        W41378  11.175  11.110   0.351  0.0483 -0.5968  0.1448
26248W        W41379   2.437   2.094   5.091  0.3116  0.1360  0.2765
26249W        W41380   5.398   6.925   3.914 -0.2148  0.0203  0.1420
26250W        W41381   6.976   7.014   3.756 -0.0502  0.0085  0.0341
26251W        W41382  12.369   9.717  15.220 -0.2231 -0.1462  0.0942
26252W        W41383  13.327  16.316   4.723 -0.4361 -0.3049  0.2940
26253W        W41384  12.844   6.621   2.705  0.0564 -0.1417 -0.4017
26254W        W41385   8.362  16.313   1.956 -0.4119  0.4580  0.0002
26255W        W41386   0.470   2.312   1.000  0.2519 -0.0739  0.0685
26256W        W41387   2.300  15.924   3.273 -0.0278 -0.0904  0.1682
26257W        W41388   6.758  16.041  13.119 -0.0138  0.0371 -0.0050
26258W        W41389  15.348   0.514  14.866  0.1090 -0.1160 -0.0264
26259W        W41390  14.245  10.730   1.042 -0.1156  0.2400  0.0833
26260W        W41391   8.330   2.009  12.431 -0.0300  0.2107  0.1790
26261W        W41392  17.572  18.215   1.615  0.2225  0.4096 -0.3808
26262W        W41393  14.384   5.426  11.926  0.2509 -0.5246  0.0944
26263W        W41394  13.371  16.051   6.475  0.1314  0.1112 -0.0302
26264W        W41395  15.607   4.158   3.474 -0.0050  0.3416 -0.1126
26265W        W41396  13.455  13.573   9.782  0.2403 -0.3157 -0.0004
26266W        W41397   0.982  11.618  11.773 -0.1045  0.2248 -0.3132
26267W        W41398  12.384  16.304  16.111 -0.3453 -0.1050 -0.0220
26268W        W41399  11.583   6.182  13.056  0.1400  0.0775 -0.0667
26269W        W41400   7.119   2.027  12.875 -0.2483  0.0040  0.2013
26270W        W41401  13.078  11.999  13.299 -0.4343  0.0910 -0.0423
26271W        W41402   7.244   1.656   4.077 -0.0313 -0.1742  0.2409
26272W        W41403  10.817  10.443   4.881 -0.3526  0.1693  0.1651
26273W        W41404  17.911   8.153  11.814  0.0577 -0.2727 -0.0349
26274W        W41405   7.793   1.599   2.750  0.0051 -0.2824 -0.1477
26275W        W41406  15.711   7.891  12.359 -0.0342  0.1422 -0.0362
26276W        W41407  11.283   3.344   4.026 -0.3068  0.1859  0.2607
26277W        W41408  16.541  11.029  15.804  0.2421  0.1128  0.1306
26278W        W41409   9.351   3.065   1.018  0.1769  0.4751  0.1789
26279W        W41410   3.346  10.124  12.797 -0.0072 -0.0651  0.2287
26280W        W41411   6.338  14.819   0.410 -0.0551 -0.0385  0.1124
26281W        W41412   3.327  12.355   1.920  0.2816 -0.0911  0.0506
26282W        W41413   9.383   7.894  12.205  0.2641  0.1084  0.0851
26283W        W41414   2.855  16.464   1.102  0.0598 -0.1504  0.1449
26284W        W41415   0.683   8.007  13.283 -0.1866  0.0355  0.0693
26285W        W41416   9.282   4.181   1.975  0.1359 -0.1238 -0.2280
26286W        W41417  10.105   1.594  11.812 -0.1168  0.1518  0.2708
26287W        W41418  15.591  17.556  13.269 -0.2142 -0.1309  0.1918
26288W        W41419  14.847  11.913  12.576  0.1173  0.2414  0.0719
26289W        W41420   6.669  16.068  10.553  0.2405 -0.2739  0.1320
26290W        W41421  12.607   6.366   4.220  0.0585 -0.0275  0.2697
26291W        W41422   8.818   7.468   2.191  0.0235 -0.1033 -0.2954
26292W        W41423  16.267   5.828   2.822  0.0889  0.2715 -0.0272
26293W        W41424   9.733   5.100  15.593 -0.0591 -0.1185 -0.2661
26294W        W41425   8.330  18.031  10.758 -0.0622 -0.3264  0.2516
26295W        W41426  17.620   6.102   0.716  0.1204 -0.2776  0.0298
26296W        W41427  16.759  10.275  15.116  0.3310  0.0894  0.0606
26297W        W41428   0.977   3.854   3.092  0.1402  0.1272 -0.2346
26298W        W41429   8.579   7.893  12.260  0.3268 -0.3218  0.1749
26299W        W41430   1.512   9.268  13.749 -0.0629  0.1994 -0.0573
26300W        W41431  13.476   4.395   3.763  0.0371 -0.1074  0.2582
26301W        W41432   0.261   8.323   2.686  0.1448  0.3998  0.3552
26302W        W41433   6.730  13.722   5.267 -0.1723  0.1579  0.0022
26303W        W41434  12.409  13.808  15.755  0.2224 -0.3222 -0.4147
26304W        W41435   6.649  12.639   2.638 -0.3599  0.3780  0.0202
26305W        W41436  12.577  13.520   1.757  0.1558 -0.0814  0.0503
26306W        W41437   9.310  11.782   1.304 -0.1048 -0.0968 -0.2294
26307W        W41438  13.760   3.431   3.769 -0.0102 -0.3403  0.0367
26308W        W41439  15.171   3.154   0.238  0.1319  0.1459  0.0315
26309W        W41440   5.896  16.334  11.296  0.0550  0.0798 -0.0089
26310W        W41441   2.973  10.083  14.067 -0.2685  0.3489  0.0079
26311W        W41442   0.862  15.224  12.967  0.0150 -0.0280 -0.0515
26312W        W41443   1.936   7.314   0.218  0.1009 -0.2841  0.2675
26313W        W41444   6.234   3.479   1.420 -0.3011  0.0858  0.0043
26314W        W41445   1.447   6.216  13.125 -0.1701  0.3029  0.1718
26315W        W41446   5.311   7.214  11.153  0.3714  0.2949 -0.1029
26316W        W41447  15.158  14.805   0.608  0.1502 -0.1263 -0.0043
26317W        W41448   1.016  12.493  15.603  0.1025 -0.3171  0.2976
26318W        W41449   6.705   0.491   0.164  0.2436 -0.2582  0.2185
26319W        W41450   1.571   1.054   3.785 -0.1405  0.1909  0.0064
26320W        W41451  17.000  17.114   1.264 -0.3098  0.0407 -0.2322
26321W        W41452  13.988   5.062   3.442  0.0347  0.0656  0.0567
26322W        W41453  13.535  16.611   0.600 -0.0143  0.3893 -0.0107
26323W        W41454   2.250   1.165   1.496  0.0856  0.0969  0.0552
26324W        W41455  14.965   2.902  11.054  0.1188  0.1502  0.1059
26325W        W41456   0.256   2.460  11.310 -0.0581 -0.2555 -0.1724
26326W        W41457   7.862   6.107  14.682 -0.1156 -0.1857  0.1141
26327W        W41458   7.864   7.362  11.121 -0.4353 -0.1126 -0.0904
26328W        W41459   7.545   7.831  12.356 -0.4094  0.1056  0.0716
26329W        W41460   2.858  14.783  13.169  0.1607  0.1604 -0.0343
26330W        W41461  11.617   5.798   2.302 -0.1498 -0.0470  0.1932
26331W        W41462  14.191   4.543   1.187  0.2652 -0.0810  0.0829
26332W        W41463  11.078  13.421  11.808 -0.1036  0.0709  0.0421
26333W        W41464  15.937   3.646  12.291  0.2367 -0.0624 -0.4056
26334W        W41465   2.440  13.498   4.334 -0.1869  0.2251 -0.1715
26335W        W41466   1.584   5.070  15.610  0.1804 -0.2606 -0.1646
26336W        W41467   5.706  17.111   5.746  0.1301 -0.0709 -0.0985
26337W        W41468  11.155  10.486   5.374  0.0827  0.1312  0.1074
26338W        W41469  18.223  11.485   3.621  0.0720  0.0296  0.2008
26339W        W41470  10.126  15.785  15.277  0.1012 -0.0781 -0.0605
26340W        W41471   3.269  11.419   3.473 -0.3016 -0.2925 -0.1688
26341W        W41472  15.226  14.192  14.932 -0.1690 -0.0655 -0.1177
26342W        W41473  11.310  12.347  12.837  0.0103  0.0410 -0.0768
26343W        W41474   2.784  11.808  14.625  0.0076  0.2124  0.1332
26344W        W41475  16.433   0.496   6.527  0.0728 -0.3605 -0.1046
26345W        W41476   4.629   2.570  14.393 -0.0091 -0.2013  0.0233
26346W        W41477  12.406  16.691   3.598 -0.0986 -0.2054  0.0427
26347W        W41478   6.492   4.013  12.210  0.1027 -0.0101  0.1149
26348W        W41479   8.699   4.368   0.709 -0.1972 -0.5627 -0.1632
26349W        W41480  14.999   6.353  11.345 -0.0217  0.1025  0.0835
26350W        W41481  13.150   0.173  10.887 -0.1214  0.1781 -0.2453
26351W        W41482  10.994  16.158  12.990  0.0418 -0.3010 -0.0755
26352W        W41483  17.517   1.532   1.470 -0.2378 -0.3873 -0.0281
26353W        W41484  14.174   6.992  14.952  0.1076  0.2159 -0.0421
26354W        W41485   3.819   6.699   0.879 -0.0327  0.2415  0.0894
26355W        W41486   0.301   0.149  15.708 -0.0604 -0.1891  0.0214
26356W        W41487   8.842  15.330   1.885  0.3725  0.3831  0.0746
26357W        W41488  12.876  16.072  11.402 -0.0418  0.0609  0.0258
26358W        W41489   8.077  12.740   0.483  0.0804  0.3791  0.2321
26359W        W41490   6.365  11.567   0.619 -0.2171 -0.0903  0.1689
26360W        W41491  16.055  16.691  14.131  0.0155 -0.0728  0.2866
26361W        W41492  14.903   9.795   0.229  0.1617 -0.0387  0.0438
26362W        W41493  12.439  17.641   1.348  0.3076 -0.0211 -0.0953
26363W        W41494   8.941   9.278   5.242  0.0015  0.2198  0.0136
26364W        W41495  16.250  12.632   0.778  0.2328 -0.0472  0.1943
26365W        W41496  16.978   5.206   2.670  0.1162 -0.1836 -0.2450
26366W        W41497   6.878  14.091  13.262 -0.0278  0.2104 -0.1485
26367W        W41498   8.830   0.018  12.613 -0.0568 -0.0876 -0.1868
26368W        W41499  17.756  13.465  15.793  0.1914 -0.0528 -0.2493
26369W        W41500   3.456   4.039   3.950  0.0677 -0.2446 -0.1375
26370W        W41501   2.628   6.464  12.625 -0.1344 -0.2865  0.2098
26371W        W41502   5.678  12.946  11.119 -0.1092 -0.2765 -0.0604
26372W        W41503  13.471   3.377  14.771 -0.1094  0.1481 -0.0199
26373W        W41504   1.736  18.132   5.152  0.1364 -0.2804  0.2591
26374W        W41505  12.885   3.945   0.038  0.0610  0.0852  0.2027
26375W        W41506  10.931  13.733   1.443  0.0727  0.1341  0.1669
26376W        W41507   4.348  12.430  12.557 -0.1995 -0.1663  0.2096
26377W        W41508   7.882   1.047   3.909 -0.3145  0.1416 -0.0927
26378W        W41509   3.269   8.466   1.040  0.1272 -0.2357 -0.1067
26379W        W41510  17.898  16.284  12.279  0.1040  0.0533  0.3860
26380W        W41511   4.280  12.443   2.165  0.0333  0.2007  0.1653
26381W        W41512  12.541  14.910  15.926 -0.1343 -0.0667 -0.2393
26382W        W41513   6.723   4.942  12.624 -0.2230 -0.0415  0.0318
26383W        W41514   6.536  15.331   0.181 -0.0021 -0.0180 -0.0237
26384W        W41515   9.194  14.176  12.780 -0.0400  0.4910 -0.2759
26385W        W41516   2.558   1.441   1.291 -0.1195  0.2466  0.0299
26386W        W41517  17.076  16.273  14.028 -0.3286 -0.1815  0.3332
26387W        W41518  10.946  14.248   0.393  0.1100 -0.2689  0.1137
26388W        W41519  17.499  13.568   1.983 -0.0972 -0.0953 -0.0591
26389W        W41520  16.076  17.894  10.176 -0.1894  0.1407  0.0279
26390W        W41521   0.896  14.836   2.285  0.1527  0.3357 -0.0228
26391W        W41522   3.269  14.744   4.478  0.1484 -0.1670 -0.2973
26392W        W41523   1.796   3.070  10.171  0.2244 -0.1277  0.1667
26393W        W41524  10.397   8.800   2.393 -0.2302  0.3401 -0.2469
26394W        W41525  13.904   3.726   0.833 -0.0852  0.0269  0.2959
26395W        W41526   1.285  11.258   5.143  0.2649  0.1761 -0.1749
26396W        W41527   3.035   0.783   0.477 -0.0850  0.0302  0.1575
26397W        W41528   3.092   7.755   4.378  0.1080  0.1678  0.1793
26398W        W41529   7.144  16.031   4.290  0.0593  0.3604  0.3680
26399W        W41530  14.135   9.951   4.703  0.1010  0.3701  0.3354
26400W        W41531   5.429  11.353   1.668  0.0012  0.0993  0.3599
26401W        W41532  10.943   5.945   2.847  0.2211 -0.0193  0.0047
26402W        W41533  16.449   6.079  11.698  0.0670 -0.1439 -0.0673
26403W        W41534  12.609  10.695   2.702 -0.1362  0.0526 -0.2732
26404W        W41535  14.245  15.819  13.764 -0.0444 -0.1015 -0.2234
26405W        W41536   4.196   1.573   5.127 -0.0582 -0.2484 -0.0243
26406W        W41537  16.501  18.276   2.869 -0.4640 -0.1025  0.0681
26407W        W41538   9.675   0.467   0.370  0.0131 -0.2165  0.1996
26408W        W41539   3.054  13.959   2.920 -0.2158 -0.1442 -0.1215
26409W        W41540   8.279   6.424  11.234  0.0468  0.2560 -0.3730
26410W        W41541   3.720  12.360   4.473  0.4322  0.3595  0.0395
26411W        W41542   3.934   5.767  15.535 -0.2164 -0.3771 -0.1363
26412W        W41543  10.455  12.221   1.092 -0.0041  0.0107  0.1033
26413W        W41544  13.687   8.538   0.137  0.0529  0.0075  0.0319
26414W        W41545   9.573  13.520  11.505 -0.2472  0.0543  0.0671
26415W        W41546  11.158  14.739   4.491  0.2128  0.0832 -0.0426
26416W        W41547   2.053   9.195   3.094  0.0480 -0.0575  0.1256
26417W        W41548   4.686   5.187  12.929  0.3445 -0.0930  0.2061
26418W        W41549   2.935   3.234  10.984 -0.0784  0.0001  0.2321
26419W        W41550  17.564  13.775  14.023  0.3132  0.1486  0.1518
26420W        W41551   8.108   4.325  11.547  0.2354 -0.5327 -0.1681
26421W        W41552  15.179   3.567  16.041  0.0542 -0.2744 -0.0176
26422W        W41553  12.524  17.075   2.116 -0.0023  0.0688 -0.0953
26423W        W41554   9.101   6.529  11.264  0.1812 -0.4034 -0.2070
26424W        W41555  17.331   4.743  12.930 -0.0561 -0.2019  0.1264
26425W        W41556  13.064   3.658  11.416  0.0212 -0.1413  0.1705
26426W        W41557   6.877   5.443   3.926 -0.1320  0.4099 -0.2664
26427W        W41558   7.404   0.545   4.588 -0.1672 -0.2083 -0.2110
26428W        W41559   0.195   4.114  12.202  0.1609  0.2325 -0.2350
26429W        W41560   9.851  16.299  15.497  0.1236 -0.1947  0.0847
26430W        W41561  16.096   8.605   3.695 -0.3955 -0.1005 -0.0525
26431W        W41562   8.731   6.038   4.504  0.0776  0.1262 -0.0520
26432W        W41563  10.656   8.121  11.604 -0.1999  0.0085 -0.0235
26433W        W41564   7.758  10.410   4.134 -0.0728  0.1036 -0.1467
26434W        W41565   8.581  12.094   1.657 -0.3135 -0.0265  0.1799
26435W        W41566   3.707  11.373  11.590  0.0034 -0.2924  0.0644
26436W        W41567  13.916   7.988   4.851 -0.2282 -0.0963 -0.3347
26437W        W41568  12.891   2.463   4.113 -0.1047 -0.0110 -0.1148
26438W        W41569  14.916   6.129   4.122  0.2543  0.0628 -0.1079
26439W        W41570   4.065  11.240  11.196  0.1729  0.0709  0.0200
26440W        W41571   6.454   2.293   6.146 -0.0439 -0.0503 -0.3513
26441W        W41572   0.661   8.247  14.344 -0.0980 -0.0154  0.0422
26442W        W41573  10.983  17.422  14.128  0.0608 -0.2766 -0.0374
26443W        W41574   5.811   7.513  15.860 -0.0143 -0.3995 -0.0609
26444W        W41575   6.475  10.238   4.241 -0.1559 -0.1995 -0.1905
26445W        W41576   2.786  12.462  15.392 -0.0246 -0.0155  0.3848
26446W        W41577   8.119  17.718  11.509  0.1528  0.0345 -0.1883
26447W        W41578  17.520   9.180  11.453  0.0001  0.0095 -0.1901
26448W        W41579  12.917   9.535   5.277 -0.1709 -0.3795  0.0544
26449W        W41580  16.615  15.334   3.973 -0.2046  0.1177 -0.0924
26450W        W41581   7.774   6.890   5.197 -0.2884  0.1540  0.0119
26451W        W41582  10.873   1.080  15.968 -0.2033  0.1463 -0.0904
26452W        W41583  12.620  13.933  14.652 -0.1177 -0.0996 -0.3392
26453W        W41584  15.133   6.304   0.910 -0.0714  0.1109  0.3055
26454W        W41585   2.077   1.692   5.623 -0.3396  0.0758 -0.1675
26455W        W41586   7.856  12.403  11.383 -0.1173 -0.1528  0.2350
26456W        W41587   7.187   2.509   5.812 -0.0579  0.0247  0.2118
26457W        W41588  14.637   3.408   4.478 -0.1247  0.2183 -0.0633
26458W        W41589  15.383  17.722   4.776 -0.0092  0.1009 -0.1119
26459W        W41590  11.784  10.088  14.737  0.2570  0.2084 -0.1465
26460W        W41591   2.556   0.961   4.794 -0.1967  0.0268 -0.1386
26461W        W41592   2.634   0.137  12.611  0.0374 -0.2098 -0.1541
26462W        W41593   2.713  14.989   4.417 -0.1348 -0.4671 -0.2649
26463W        W41594  16.985  12.219   0.161  0.2721  0.1573 -0.0131
26464W        W41595   7.265  15.979   3.113 -0.0389  0.1791  0.0572
26465W        W41596  13.382  16.197  12.318  0.0016  0.1370  0.0692
26466W        W41597   9.181  17.967  16.026  0.4245 -0.0935  0.2809
26467W        W41598  15.280   0.342   3.779 -0.0147 -0.0924  0.0980
26468W        W41599  17.512  16.845  15.783  0.2691 -0.0311 -0.4298
26469W        W41600   7.412  16.605   3.938  0.1979 -0.1706  0.1544
26470W        W41601  17.490   0.160   2.047  0.0073  0.3352 -0.0177
26471W        W41602  17.614   9.058   4.738  0.0521 -0.0935  0.0429
26472W        W41603   3.382  17.276  14.866  0.3411  0.0706 -0.0881
26473W        W41604  13.340   8.638  10.917  0.1083  0.2412  0.2647
26474W        W41605  11.751   3.294  11.028  0.1194 -0.2917 -0.2544
26475W        W41606   5.410  18.209  13.955 -0.2992 -0.0220  0.1812
26476W        W41607   0.330   2.281  13.404  0.0447 -0.0365  0.1484
26477W        W41608   0.835   2.314  10.799 -0.3495 -0.0709  0.1870
26478W        W41609  11.303   9.326  15.795  0.2738  0.2211  0.2402
26479W        W41610   9.632   0.751  10.905 -0.1959  0.1546  0.1115
26480W        W41611  11.495  17.909   2.784  0.2919 -0.0681  0.1214
26481W        W41612   9.344   7.186   4.245  0.1473  0.0792  0.1054
26482W        W41613  17.216   8.271   0.213 -0.1981  0.1666 -0.2390
26483W        W41614  17.556  18.309   5.504 -0.1403 -0.4401  0.0063
26484W        W41615   9.268   9.931  15.444 -0.0256  0.1404  0.1334
26485W        W41616  13.528  15.613   5.610  0.1725  0.0308  0.0574
26486W        W41617  10.734  16.824  10.533  0.1769 -0.2347 -0.2099
26487W        W41618   9.470  11.798   0.016 -0.1006 -0.1124 -0.1282
26488W        W41619   9.592   6.614  15.606  0.1299 -0.2728  0.0392
26489W        W41620  11.562  13.932   4.322  0.0003  0.0628  0.2175
26490W        W41621   8.911  10.645  13.010  0.0105 -0.2105  0.3546
26491W        W41622   2.529   2.065  12.326  0.0504  0.1168 -0.2959
26492W        W41623  17.985   7.061  10.851  0.2625 -0.0922 -0.1823
26493W        W41624   5.825   0.664  12.258  0.0501 -0.3031  0.2008
26494W        W41625   9.021  11.659   4.276  0.0641 -0.1515 -0.0946
26495W        W41626   4.492   7.677  13.537 -0.2375 -0.2283  0.2658
26496W        W41627  10.257   1.953   1.341 -0.0520 -0.3306 -0.2937
26497W        W41628   8.216  14.541   1.594  0.2507  0.0956  0.1565
26498W        W41629   9.529   4.399  11.070  0.0573  0.0845  0.1510
26499W        W41630   2.965   1.328   1.639  0.0262  0.1060  0.1736
26500W        W41631   3.061   7.235   3.851  0.1777 -0.2876  0.0159
26501W        W41632  18.040  11.199   0.043  0.0719  0.0312  0.3481
26502W        W41633  15.549   9.655   2.391 -0.4150  0.1121 -0.1375
26503W        W41634  11.112   6.330  12.713  0.2397  0.1153 -0.1206
26504W        W41635   3.625   8.016  15.855 -0.0680  0.0591 -0.0270
26505W        W41636  12.033  14.581  14.602 -0.2779 -0.0241  0.3128
26506W        W41637   1.107  17.816  13.712  0.0601  0.1682  0.2246
26507W        W41638  14.938  14.754  15.208  0.1784 -0.4720  0.0657
26508W        W41639  15.446   7.147  10.820  0.0403  0.3164 -0.3159
26509W        W41640  12.393  10.265  12.257 -0.1990 -0.1211 -0.2839
26510W        W41641   8.137   9.663  14.832 -0.2037 -0.4317 -0.3373
26511W        W41642  14.298   3.197  12.559 -0.1024 -0.0465  0.1022
26512W        W41643   0.454   3.893  15.153 -0.3046 -0.2745  0.2119
26513W        W41644  11.293   3.707  11.651  0.0744 -0.2412  0.0605
26514W        W41645   1.841  16.907  10.512 -0.2545 -0.0441  0.2335
26515W        W41646   2.847   4.072   4.541 -0.0507  0.2898  0.0325
26516W        W41647   4.958   1.827  15.659  0.2500  0.1497 -0.0964
26517W        W41648  18.164  12.682   0.587 -0.3486 -0.4023  0.1896
26518W        W41649   6.347   6.907  15.310  0.1974 -0.2654 -0.0595
26519W        W41650  11.266  13.572   4.616 -0.2093 -0.0879  0.1440
26520W        W41651   0.072  12.800   5.020 -0.0684  0.1165 -0.3065
26521W        W41652  13.915  10.465  10.514 -0.3093 -0.0374  0.1574
26522W        W41653  15.067   4.868   1.310 -0.1836  0.1316  0.1167
26523W        W41654   8.188   2.773   1.467  0.0729  0.1884  0.0743
26524W        W41655   9.261  12.795   1.918 -0.0291  0.0337 -0.1561
26525W        W41656  13.508   3.986   1.125 -0.0063  0.1939  0.0140
26526W        W41657  17.990   9.021   2.737  0.2338  0.3767  0.2318
26527W        W41658   5.259   8.837  15.885  0.3836 -0.0772  0.0326
26528W        W41659  17.793  10.505   5.060  0.2140  0.1700 -0.1348
26529W        W41660   7.177   1.903   2.013 -0.1173  0.1460 -0.1333
26530W        W41661   4.901   4.458   1.954 -0.0501 -0.0114  0.0714
26531W        W41662  10.200  14.938   3.895 -0.2796  0.1873  0.0651
26532W        W41663  12.229   0.550   3.577  0.0608 -0.2171 -0.0169
26533W        W41664   9.452   4.898   3.226 -0.2419 -0.1974  0.0612
26534W        W41665  17.857  17.811   3.660 -0.0969 -0.2350  0.0675
26535W        W41666   3.802   9.876   3.360  0.0561  0.0255 -0.0435
26536W        W41667  17.632   8.105   0.537 -0.0843 -0.2137 -0.1436
26537W        W41668   1.886   4.018   1.081 -0.0044  0.0556 -0.1688
26538W        W41669  11.579   3.143  12.415 -0.2264 -0.1009  0.1270
26539W        W41670   6.285  12.607   3.061 -0.2277 -0.1194  0.1332
26540W        W41671  11.823   4.558   2.173  0.0352 -0.1344 -0.0034
26541W        W41672   9.260   0.643  13.887 -0.0035 -0.1160 -0.1576
26542W        W41673  13.245   7.442   0.643  0.0287  0.1348 -0.2413
26543W        W41674   3.977   1.251   2.786  0.0056  0.3257 -0.3563
26544W        W41675  16.565   9.786   0.325  0.0658  0.1931 -0.1477
26545W        W41676  16.053   5.868   3.280  0.1581  0.0280 -0.0799
26546W        W41677   1.889   9.367  15.995 -0.0983  0.1779 -0.2516
26547W        W41678   9.417   8.478  12.022 -0.3726 -0.1203  0.1019
26548W        W41679  11.553  13.590   5.099  0.2104  0.0277  0.0432
26549W        W41680  14.068  16.881  10.526 -0.0070 -0.3172 -0.3574
26550W        W41681   0.467   3.918   1.724  0.0901  0.0198  0.0306
26551W        W41682   3.623   3.004   2.449  0.4057  0.1820  0.1823
26552W        W41683  14.093  16.170   4.475 -0.0047  0.0458  0.1974
26553W        W41684  15.340  17.824  11.405 -0.0535 -0.1424  0.1765
26554W        W41685   9.857  10.541   5.251  0.2306 -0.0449  0.3099
26555W        W41686  15.563   7.244  12.527 -0.3601 -0.0478  0.3276
26556W        W41687  14.870   7.712  10.907  0.0059 -0.4556  0.0372
26557W        W41688   4.119   1.431   2.316 -0.1664 -0.0832  0.0361
26558W        W41689  12.090   0.632  12.961 -0.2780  0.2805 -0.0236
26559W        W41690   4.239  12.264   2.698 -0.1691 -0.0476  0.4105
26560W        W41691  15.033  16.785  15.532 -0.3630 -0.1119  0.1377
26561W        W41692   8.229   4.180  10.747 -0.0762  0.2525  0.0996
26562W        W41693   4.807   9.007  14.639  0.1543 -0.0208  0.0182
26563W        W41694   6.294   2.114   4.664 -0.0411 -0.3397 -0.2030
26564W        W41695   7.675  11.231  13.742 -0.3775 -0.2659 -0.1603
26565W        W41696  10.680  17.406   0.515  0.3529 -0.0965  0.1672
26566W        W41697   5.422   0.769  14.848  0.2002  0.1834 -0.0350
26567W        W41698   4.979   9.005   4.967  0.0613 -0.1462  0.0414
26568W        W41699  14.000  17.096   1.772 -0.0390  0.3617 -0.1736
26569W        W41700  13.559   4.485  15.900 -0.0732  0.2707  0.2214
26570W        W41701  14.281   8.104  15.773  0.0592  0.1243  0.1554
26571W        W41702  15.747   3.313   2.016 -0.1388 -0.1425 -0.0092
26572W        W41703  14.647  16.446  13.087 -0.0272  0.1691  0.2172
26573W        W41704  14.503  15.482  16.013  0.1134  0.2381  0.3159
26574W        W41705  15.035   4.347   5.476 -0.0554 -0.3477  0.0182
26575W        W41706   1.237   7.268   3.791 -0.2045 -0.0359  0.1240
26576W        W41707   5.904   0.975   6.357 -0.0850 -0.1817 -0.1923
26577W        W41708  10.243   9.877  10.759  0.0320 -0.1767  0.1887
26578W        W41709  16.937   6.784   3.194 -0.2662  0.0582  0.0949
26579W        W41710  18.096   2.216   5.409 -0.3503 -0.0544 -0.0117
26580W        W41711  13.468   9.625  12.208  0.2727  0.3563  0.0668
26581W        W41712   7.618   3.861  13.221  0.0044  0.0367 -0.0436
26582W        W41713   3.364  17.252  16.096 -0.0727 -0.0530 -0.2017
26583W        W41714   7.445  14.847  13.622  0.2556 -0.0937  0.0209
26584W        W41715   3.884  13.841   1.879 -0.2526  0.3320  0.0981
26585W        W41716   6.098   7.399  12.370  0.1356 -0.2549 -0.0901
26586W        W41717  12.499   8.654   5.418  0.2305  0.0932  0.3066
26587W        W41718  16.643   2.780   2.058 -0.2043 -0.0515  0.0268
26588W        W41719  11.067   1.053  11.821  0.2928  0.0573  0.2313
26589W        W41720   1.115   1.326   3.777 -0.1954 -0.1944  0.1092
26590W        W41721   7.519   5.605  10.395  0.1052 -0.2429  0.0462
26591W        W41722  15.396  13.689   4.434  0.0991  0.1631  0.0340
26592W        W41723   1.117   3.617   4.651  0.0494 -0.1142 -0.4257
26593W        W41724  12.535  11.364  15.277 -0.0982  0.3491 -0.0019
26594W        W41725   7.813   5.386   2.937  0.0809 -0.0373  0.0969
26595W        W41726  16.439  17.640   5.461 -0.1128  0.0300 -0.2305
26596W        W41727  11.457   0.569   0.420 -0.0353  0.1630 -0.1704
26597W        W41728   7.604   3.465   3.438  0.0235 -0.0223 -0.2806
26598W        W41729  12.693   8.954  12.452 -0.0524  0.0025 -0.0022
26599W        W41730  11.858   1.349   2.152  0.2315  0.0081 -0.2467
26600W        W41731   4.962   0.242  11.142  0.1995  0.0073  0.3180
26601W        W41732  11.924  18.260   2.893 -0.0762  0.0251  0.1346
26602W        W41733  11.095  11.782   5.083 -0.1349 -0.0056  0.1374
26603W        W41734  16.904   3.680  11.933  0.0714  0.0169 -0.3123
26604W        W41735   1.382  16.754  10.332  0.1113 -0.1731  0.1144
26605W        W41736   2.308   8.410   4.626 -0.0635  0.1012  0.2767
26606W        W41737  11.027  18.182  10.736  0.0466 -0.0139  0.2677
26607W        W41738  16.511  17.961   0.826 -0.0936 -0.0584 -0.1612
26608W        W41739   6.596   8.575   4.106 -0.2872 -0.0278 -0.3413
26609W        W41740   6.788  10.589   1.147 -0.0836 -0.0610 -0.0631
26610W        W41741   5.516   2.854  15.991 -0.0765  0.2057 -0.1730
26611W        W41742   9.664   5.851  11.271 -0.2043 -0.0623  0.2249
26612W        W41743  11.238  18.123  15.795  0.4121  0.0800  0.0770
26613W        W41744   4.356   6.770  13.060  0.0254  0.0944 -0.0475
26614W        W41745  10.621  10.963  13.756  0.1012  0.0087  0.1015
26615W        W41746   9.789  11.550   1.367 -0.0501 -0.0951 -0.1673
26616W        W41747  11.768   4.668  10.031 -0.0649  0.0439 -0.1916
26617W        W41748   1.481   6.785  15.088  0.0035  0.2409  0.3944
26618W        W41749  15.313  14.695   4.510  0.1419  0.2606 -0.0393
26619W        W41750  12.053   3.806  10.014  0.2855  0.3120  0.5097
26620W        W41751  11.283  17.026   2.402 -0.1767  0.1175  0.1645
26621W        W41752   2.143   2.590   3.487  0.1918 -0.2497 -0.2169
26622W        W41753   1.882   9.217   4.892 -0.0704 -0.0416  0.0514
26623W        W41754  17.948   9.920   2.970  0.1411 -0.3457 -0.2609
26624W        W41755   0.112  17.480   3.094  0.0347 -0.1155  0.1323
26625W        W41756  17.783   7.154   1.596 -0.0141  0.1779  0.2081
26626W        W41757  11.629  13.880  10.441  0.0389 -0.2281 -0.3841
26627W        W41758   0.424  15.925   1.501 -0.1339 -0.1064 -0.0377
26628W        W41759  10.154   9.875   9.911  0.0814  0.2376 -0.0683
26629W        W41760   3.817   4.908   5.017 -0.2270  0.1250  0.2272
26630W        W41761   6.629   5.633   5.363 -0.1658  0.0530 -0.0173
26631W        W41762   7.572   2.334   3.929  0.0896 -0.0848 -0.1881
26632W        W41763   3.589  14.531   4.141  0.1197  0.2312 -0.0253
26633W        W41764  17.013  11.060  10.111 -0.0669  0.1553 -0.2757
26634W        W41765  14.545  12.306  12.377  0.1574 -0.1661  0.4629
26635W        W41766   1.435   1.078   1.145 -0.2137 -0.0653  0.3998
26636W        W41767  17.942   4.230  13.010  0.2401 -0.1415  0.0271
26637W        W41768   0.265  14.911   4.826 -0.3329  0.1157  0.1880
26638W        W41769   8.008  15.908  12.270 -0.1068  0.2697  0.0361
26639W        W41770   3.936   6.130   3.179 -0.3458  0.4406 -0.1131
26640W        W41771   3.532  17.008  11.401  0.1073  0.0724  0.1428
26641W        W41772   8.697   4.692   2.121 -0.3366  0.2687  0.2164
26642W        W41773   0.991   2.647   5.578 -0.3712  0.3142 -0.2041
26643W        W41774   8.740  13.348   1.194  0.1208  0.1937  0.0125
26644W        W41775  14.024   5.845  13.849  0.0531 -0.0634  0.0518
26645W        W41776  12.943  15.746   1.417 -0.5205 -0.1211  0.0615
26646W        W41777   1.281  15.473   1.409 -0.0332  0.2761  0.1968
26647W        W41778  17.335  11.835  11.266 -0.2653  0.5582  0.0156
26648W        W41779  13.981   9.999  10.927  0.0197 -0.0454 -0.1080
26649W        W41780   8.366   9.773   4.711  0.0556  0.3487 -0.1123
26650W        W41781   9.499  16.481  13.879  0.0515  0.0787 -0.2193
26651W        W41782  12.644  16.795  12.517  0.2956 -0.1565 -0.0225
26652W        W41783   4.294   5.540  14.646  0.0540  0.1492  0.1101
26653W        W41784   0.300   0.454   1.596 -0.0083 -0.0543 -0.2399
26654W        W41785  14.900   0.646   2.108 -0.1965  0.3263 -0.0451
26655W        W41786   5.102  12.773  12.410 -0.0575 -0.0394 -0.1828
26656W        W41787  10.138   6.648   2.183 -0.3309 -0.0230  0.3487
26657W        W41788  15.156  15.240   4.293 -0.2752  0.0659 -0.2446
26658W        W41789  18.112   7.261   2.369 -0.2289  0.0236  0.2965
26659W        W41790   3.668  17.190  10.949  0.0369  0.3006  0.0781
26660W        W41791  16.790  10.272  12.715  0.0385  0.4184  0.1739
26661W        W41792   5.799   6.295  10.587  0.1901 -0.0535  0.0265
26662W        W41793  17.375   2.713  13.023  0.1283  0.1725  0.1482
26663W        W41794   7.163  11.305   1.871  0.0827  0.0339 -0.0893
26664W        W41795  17.012   9.056  15.387  0.3715  0.0840  0.1046
26665W        W41796  17.420  10.962  15.053 -0.0949 -0.0578 -0.2231
26666W        W41797   4.575  17.440   3.701  0.0050  0.0709  0.1499
26667W        W41798  14.993   2.773  11.661  0.0784  0.2172  0.3927
26668W        W41799  13.671  15.880  13.103  0.0831 -0.0677 -0.3194
26669W        W41800   1.762   3.577   2.094  0.1902  0.0282 -0.2156
26670W        W41801   7.095   3.115   0.617 -0.0546  0.2191  0.0272
26671W        W41802   1.172   7.659   4.218 -0.1462  0.0049  0.0275
26672W        W41803   8.646  10.434   2.932  0.0984  0.1399 -0.2291
26673W        W41804  10.228   6.976   0.366 -0.2091  0.0866  0.1200
26674W        W41805   1.648   2.745   4.820  0.3707 -0.3389 -0.0184
26675W        W41806   6.920  17.631   3.862 -0.0343  0.0366  0.2300
26676W        W41807   4.194   4.552  15.385  0.3144  0.0354 -0.0552
26677W        W41808   1.245   1.907  11.432  0.0167 -0.0305 -0.0584
26678W        W41809   9.046   1.632  15.884 -0.0978  0.4015 -0.1033
26679W        W41810   3.101   2.657   0.691  0.0301  0.3240 -0.0226
26680W        W41811   9.065   5.535  16.039 -0.4595  0.0677  0.0173
26681W        W41812   5.997   0.918  13.044 -0.0877  0.1090 -0.1224
26682W        W41813   0.827   5.345   1.984  0.1789  0.0583 -0.1491
26683W        W41814  15.263  14.266   3.772 -0.0557 -0.1649  0.2264
26684W        W41815   5.515  11.830  11.515  0.0736 -0.1824 -0.4270
26685W        W41816   1.500  11.317  10.876 -0.1284 -0.3642 -0.0557
26686W        W41817   7.957   1.519   3.711 -0.5114  0.3454 -0.0252
26687W        W41818  15.705  17.128  10.875 -0.0793  0.1155  0.0733
26688W        W41819   4.462   3.792  15.862  0.2939  0.0863 -0.0047
26689W        W41820  15.886   6.041  15.620 -0.0025 -0.1862 -0.2061
26690W        W41821   8.989   5.884  15.662  0.2261  0.0159 -0.1157
26691W        W41822   9.996   9.220   3.783  0.3269  0.1474 -0.4117
26692W        W41823  13.460  18.319   2.573 -0.3538  0.3002 -0.2043
26693W        W41824   8.623  16.295   0.516 -0.0869  0.0285 -0.2410
26694W        W41825  14.539  17.524   2.801 -0.0760  0.0201 -0.1018
26695W        W41826   3.675  14.688  11.840 -0.3075 -0.1861  0.0279
26696W        W41827   3.811  10.065  15.174  0.1990 -0.1111  0.0951
26697W        W41828  11.415   7.140  13.240 -0.1642 -0.0393  0.0088
26698W        W41829   8.939   0.447   3.106  0.0321  0.1537  0.3543
26699W        W41830   5.983   9.682   5.189  0.0397 -0.0502 -0.0869
26700W        W41831   6.009  18.031   4.695  0.2490 -0.0020  0.0434
26701W        W41832  10.600   5.225   1.761  0.1939 -0.0527  0.2176
26702W        W41833   0.891   8.202   4.933  0.0334 -0.6016 -0.2020
26703W        W41834  11.389   7.653  15.373  0.0452  0.1020 -0.0133
26704W        W41835  10.149   7.879  10.987  0.0143 -0.1291 -0.0218
26705W        W41836  17.802   2.089   3.454  0.1103  0.0169 -0.0438
26706W        W41837   1.803   2.249   1.961  0.0204  0.0894 -0.4254
26707W        W41838   0.274   1.237  14.036 -0.2369  0.0210 -0.3757
26708W        W41839   0.097   4.416   0.438  0.1459 -0.0706 -0.0678
26709W        W41840  13.381  10.010  12.556 -0.0687 -0.2129  0.1110
26710W        W41841  17.027  14.792  10.921  0.0220  0.0167  0.1757
26711W        W41842  12.815   8.319   0.378  0.1859 -0.0419 -0.1330
26712W        W41843  16.357  12.051  11.060 -0.1929 -0.3810 -0.1507
26713W        W41844   8.391   0.714   2.687 -0.1570  0.1482  0.0292
26714W        W41845   7.096   2.158  10.867 -0.3310  0.1818  0.0947
26715W        W41846   0.567   2.467   5.755 -0.1043  0.0949  0.0675
26716W        W41847  13.412  15.573   1.259 -0.1768 -0.1698 -0.2193
26717W        W41848   4.839   8.348   5.035 -0.1920 -0.0995 -0.2112
26718W        W41849  12.536   0.066   4.303  0.0545  0.0338 -0.0153
26719W        W41850   7.643  12.337  14.925  0.0235 -0.1827  0.0293
26720W        W41851   1.783  12.560   2.748  0.1151  0.1678 -0.0426
26721W        W41852   7.091   9.315   3.648  0.1095 -0.0413 -0.1873
26722W        W41853   7.451   8.832  12.142  0.0537 -0.1532 -0.1107
26723W        W41854   5.784   7.803  12.190  0.0240  0.0208 -0.0999
26724W        W41855  16.791   1.374  11.650  0.3021 -0.0766 -0.1556
26725W        W41856   6.101   4.184   5.349 -0.0106 -0.0931  0.1568
26726W        W41857  17.442   3.163  14.556  0.0628  0.2494 -0.1836
26727W        W41858  14.568  14.164   2.627  0.0445  0.1974 -0.1142
26728W        W41859  11.422   0.565   1.635 -0.1044 -0.1136 -0.0825
26729W        W41860   5.397   6.335  14.124  0.2103  0.0187  0.0385
26730W        W41861   7.098  14.459  12.886 -0.2208  0.2391  0.1101
26731W        W41862  15.659  14.415  12.810 -0.2068  0.0345  0.0244
26732W        W41863  10.537   9.598   2.153  0.1352  0.0656 -0.0106
26733W        W41864   3.505   7.952   5.429 -0.0665  0.2284 -0.3183
26734W        W41865  12.280  14.193  15.444  0.0480 -0.0512 -0.1415
26735W        W41866   5.495   7.398   1.720  0.3788  0.2095  0.0081
26736W        W41867  13.087  15.243  11.236 -0.0271 -0.0903 -0.1042
26737W        W41868  14.606   0.417   4.241 -0.4689  0.3539  0.2525
26738W        W41869   7.654  15.182  11.772  0.2551 -0.1222 -0.0259
26739W        W41870   0.363   9.316   5.713  0.1875 -0.0559 -0.2665
26740W        W41871   5.816  14.158  14.767 -0.0775 -0.1023 -0.4103
26741W        W41872  13.344  12.472  15.988 -0.0358 -0.0392 -0.3400
26742W        W41873   7.219   1.638  15.065 -0.0034  0.2091  0.2460
26743W        W41874   6.049   0.214  14.684  0.1706 -0.2505  0.0377
26744W        W41875   1.126   5.882  13.407  0.2452  0.1312 -0.1163
26745W        W41876   9.963   2.175  13.491  0.0994  0.0164  0.0554
26746W        W41877  12.667  12.344  13.462 -0.0680 -0.1982 -0.2422
26747W        W41878  12.350  12.971  11.839 -0.1127 -0.1356  0.0928
26748W        W41879   3.024  18.110   1.171 -0.1005  0.0130 -0.1389
26749W        W41880  14.018   7.480   3.582  0.0807 -0.2052 -0.0851
26750W        W41881  12.066  11.689  12.344  0.0665 -0.0417  0.1374
26751W        W41882   7.094   4.953  15.361  0.3612 -0.0680  0.0670
26752W        W41883  14.848  14.565   2.657 -0.2477 -0.0081  0.0860
26753W        W41884   0.048  14.845  14.772  0.0093  0.3356  0.2578
26754W        W41885   2.958  14.004   4.150 -0.2526 -0.0505  0.0835
26755W        W41886  16.939   1.038  15.941 -0.0435  0.0385 -0.0028
26756W        W41887   9.815   0.337  12.665 -0.1864 -0.1503 -0.1339
26757W        W41888   3.373  15.114  12.063  0.2282 -0.2446 -0.1449
26758W        W41889  12.030  16.150  12.433 -0.1018 -0.0349 -0.1707
26759W        W41890  14.933  16.687   3.249 -0.3130 -0.0361 -0.0390
26760W        W41891  12.436  16.192  15.523 -0.1414 -0.1394 -0.1245
26761W        W41892  10.559   2.290   1.176 -0.0403 -0.0639  0.2034
26762W        W41893   7.715  16.120   3.990 -0.0319 -0.1022 -0.1013
26763W        W41894  16.880   7.348   0.035 -0.0054 -0.1680 -0.4579
26764W        W41895   5.794   4.303  13.360 -0.1073 -0.3142 -0.0018
26765W        W41896  11.478  17.457  12.584  0.0836  0.0515 -0.0388
26766W        W41897  16.822   7.343   1.508 -0.1139 -0.0258 -0.0208
26767W        W41898  15.243   0.987  15.138  0.3276  0.4826  0.3690
26768W        W41899  14.506   7.271  14.103 -0.1815  0.2514  0.0825
26769W        W41900  13.626  12.845  13.386 -0.1911 -0.1707 -0.1847
26770W        W41901  12.769   7.934  12.033 -0.1252  0.2563 -0.1620
26771W        W41902  12.587   1.078  10.852  0.0811  0.2953  0.2257
26772W        W41903  13.561  10.171   0.878 -0.1827  0.1561 -0.0224
26773W        W41904   9.131  16.204   4.389  0.0258 -0.2692 -0.0933
26774W        W41905   6.756   3.966  11.629  0.0312  0.1211  0.0216
26775W        W41906   4.939  17.904   4.204  0.0647  0.1398  0.0699
26776W        W41907   1.955  18.002  10.641  0.0044 -0.2540  0.0976
26777W        W41908   8.155  16.309  15.436 -0.2105  0.5074 -0.2467
26778W        W41909   9.189  17.422   0.993 -0.3893  0.0046 -0.1984
26779W        W41910   7.688  16.695   3.560  0.2028  0.0559  0.0478
26780W        W41911   1.594   0.673  12.191  0.1734  0.1336 -0.1902
26781W        W41912   6.325  18.113   0.906  0.0184  0.1676 -0.0915
26782W        W41913  10.223   3.121   4.793  0.1477 -0.3655 -0.1744
26783W        W41914  10.253  15.545   2.297 -0.0836  0.1207 -0.0492
26784W        W41915   3.479   9.414   4.561 -0.0907  0.0945 -0.1339
26785W        W41916   8.482   0.272  12.931  0.2554  0.0626 -0.3483
26786W        W41917  15.108  16.569   0.019  0.0936 -0.3190 -0.0376
26787W        W41918   9.043   0.460  12.675  0.2523  0.1004 -0.1683
26788W        W41919   4.362   2.151  13.270  0.2615 -0.2473 -0.0905
26789W        W41920   5.414  13.817   0.792  0.1471 -0.0530 -0.0565
26790W        W41921   2.711  13.895  14.633 -0.0563 -0.1531 -0.3909
26791W        W41922  14.891   2.851  12.463 -0.1956 -0.0979  0.0866
26792W        W41923   3.578   8.575   2.660  0.3034  0.0570 -0.0335
26793W        W41924  11.379  17.449  10.893 -0.0739  0.0599 -0.2861
26794W        W41925   6.028   8.328   2.095  0.3122 -0.1213 -0.3443
26795W        W41926   5.061  10.219   4.737 -0.3416 -0.3394  0.0939
26796W        W41927   7.204  18.162   2.317 -0.0545 -0.1686 -0.0353
26797W        W41928  11.985   5.050   0.750 -0.0756 -0.0944  0.0961
26798W        W41929   5.237  13.315   1.357 -0.3801 -0.0312  0.0217
26799W        W41930  14.723   8.548  13.118  0.2981 -0.1754 -0.0877
26800W        W41931  11.048   3.356   3.585 -0.0890  0.0478 -0.1892
26801W        W41932  15.988  10.694  13.977  0.1480  0.0562  0.1376
26802W        W41933   0.080  13.225  10.346  0.0429 -0.1562 -0.0885
26803W        W41934   9.992   1.432  10.332  0.1469  0.0260  0.2065
26804W        W41935  15.516  15.086  11.971  0.0693  0.1412 -0.1337
26805W        W41936   3.147   3.179   5.336  0.0213 -0.0653 -0.0109
26806W        W41937   3.054   2.424  15.778  0.0652 -0.1452 -0.0586
26807W        W41938   0.893   0.143   0.795  0.0801  0.2357  0.3433
26808W        W41939   8.509  16.344   3.854 -0.1510  0.0745 -0.0685
26809W        W41940   5.048  15.606   3.862 -0.0466 -0.1801 -0.3189
26810W        W41941   3.619  17.149  11.874 -0.0467 -0.1118 -0.3531
26811W        W41942  13.764  14.200   4.392  0.0027  0.0077 -0.3184
26812W        W41943   4.755  14.113  15.778  0.0820  0.0022 -0.0709
26813W        W41944   2.617  11.126   1.460  0.2086 -0.0559 -0.0769
26814W        W41945  10.327   0.437  14.107  0.0827  0.2442  0.0304
26815W        W41946   4.051  15.430   0.939  0.2614  0.0304  0.1751
26816W        W41947  16.020   6.834   2.104  0.0444 -0.0140  0.1549
26817W        W41948   1.566  14.806   3.032  0.1258  0.2059  0.3917
26818W        W41949  13.504   7.995   3.035 -0.1183  0.2173 -0.2022
26819W        W41950   9.545   4.900  12.394 -0.1574  0.2259  0.1003
26820W        W41951  15.682  14.067  14.168 -0.0782 -0.1548  0.2179
26821W        W41952  10.556   0.651   5.216 -0.0276 -0.0834 -0.0619
26822W        W41953  17.041  18.091   2.119 -0.0353 -0.1288  0.4563
26823W        W41954   7.937  14.942   0.223 -0.3404  0.2108 -0.2530
26824W        W41955   6.408   3.277   2.810  0.0019 -0.0255  0.0386
26825W        W41956   8.443  16.064  15.842 -0.0082  0.1148 -0.1163
26826W        W41957  17.541  13.467  11.050  0.0119 -0.1992  0.0564
26827W        W41958   5.447  17.561   2.250 -0.1917  0.1391  0.4185
26828W        W41959  17.804  15.533  12.895  0.0102  0.2367 -0.0493
26829W        W41960   5.121   3.535  12.417 -0.2981 -0.0486  0.0750
26830W        W41961   9.529  16.062  14.445  0.1374 -0.1296 -0.0851
26831W        W41962   4.187   5.572  11.673 -0.2602 -0.0234  0.0148
26832W        W41963  11.412   8.701   0.297  0.0701  0.0017  0.0333
26833W        W41964   7.769   3.133  15.663 -0.0360 -0.1309  0.1172
26834W        W41965   8.795  16.889   3.720 -0.2736  0.2894 -0.4840
26835W        W41966   0.673  13.115   0.936 -0.0966  0.0716 -0.0228
26836W        W41967  15.964   7.744   1.744  0.3573  0.0976  0.1268
26837W        W41968   9.973  15.172   5.763 -0.2729  0.0444  0.0294
26838W        W41969  11.109   0.454   0.905  0.1920  0.2196 -0.2086
26839W        W41970   7.589   7.190  15.012  0.1323 -0.0948  0.1621
26840W        W41971  13.071   3.162  11.254  0.2239  0.1903 -0.2014
26841W        W41972   9.998   5.944   2.428 -0.1039 -0.2942 -0.0122
26842W        W41973   0.963  14.157   4.612  0.0426  0.2871  0.2502
26843W        W41974  16.213   3.536  13.550  0.0210  0.1471 -0.1196
26844W        W41975  16.217  15.293   0.422 -0.3860  0.0060 -0.2133
26845W        W41976   3.145  17.495   3.087  0.0891 -0.1178 -0.0944
26846W        W41977  16.766  15.602  12.011  0.0090 -0.0396 -0.0581
26847W        W41978  11.617   2.938  15.331 -0.3020  0.2495  0.0874
26848W        W41979  17.269   5.745   0.428  0.1770 -0.0433  0.1037
26849W        W41980   5.818   5.736   9.709  0.0014  0.0665  0.2934
26850W        W41981   5.027   3.616   0.277 -0.2661  0.2290  0.1527
26851W        W41982   2.217  10.716  10.889  0.4637 -0.0062 -0.3183
26852W        W41983  10.990  12.095  10.936  0.2302 -0.1757 -0.3076
26853W        W41984   0.697   0.165   1.605 -0.0156  0.1104  0.0354
26854W        W41985   3.620  16.383   3.791  0.0953 -0.1827  0.0247
26855W        W41986   8.495   1.836  14.835  0.2067  0.0162 -0.0034
26856W        W41987  13.537   4.862   3.587  0.0660  0.0633  0.3513
26857W        W41988  15.996   2.690  14.708  0.1612  0.3761 -0.1731
26858W        W41989  15.242  13.261   3.430  0.0097  0.0718 -0.1640
26859W        W41990   6.743   8.635  15.911  0.1307 -0.1607 -0.0388
26860W        W41991   1.033   9.490   5.840 -0.1435  0.0764  0.0916
26861W        W41992  10.863  16.148   0.767 -0.1225 -0.1658 -0.1983
26862W        W41993   7.151   3.185   5.235 -0.0570 -0.1799  0.2567
26863W        W41994   8.653  12.573   2.264 -0.0363  0.1117 -0.0901
26864W        W41995   8.206  18.177   5.799  0.2363 -0.1748  0.2132
26865W        W41996  16.634  14.970   0.436 -0.0392 -0.2955 -0.3954
26866W        W41997   3.090   2.589   3.075 -0.0230 -0.3223 -0.0649
26867W        W41998  14.819  12.474  11.260  0.1132 -0.0991 -0.0601
26868W        W41999  12.172   0.738  15.120 -0.0287 -0.1453  0.0935
26869W        W42000   0.550   7.620   5.881 -0.5566  0.0191  0.0870
26870W        W42001  13.755   6.174   1.951 -0.3237 -0.0231  0.0599
26871W        W42002   8.191  15.024  13.942  0.0759 -0.1240 -0.0791
26872W        W42003   7.759   9.448  11.681 -0.0649  0.1883  0.0542
26873W        W42004   5.530   5.551   1.793  0.1258 -0.2288 -0.3292
26874W        W42005   7.928   7.002   3.072 -0.1794 -0.0488  0.0118
26875W        W42006  15.094   3.409   1.405 -0.1335 -0.2232  0.0120
26876W        W42007   1.363  12.026  14.665  0.2228  0.0735  0.0145
26877W        W42008   3.715   7.981   3.385  0.0686 -0.2609  0.2838
26878W        W42009  14.882  10.869  12.761 -0.0415 -0.1757 -0.1949
26879W        W42010   4.593   6.150  10.565 -0.0504 -0.1442  0.0338
26880W        W42011   7.669  16.248   5.396  0.0080 -0.2852 -0.1414
26881W        W42012   1.282  11.191   3.387  0.1613  0.2208  0.0076
26882W        W42013   9.308  17.926   3.524  0.0285  0.1008  0.1127
26883W        W42014  16.555  15.886  12.350  0.0262 -0.1666 -0.0624
26884W        W42015  15.396   3.727  13.449 -0.0681 -0.0815 -0.0911
26885W        W42016   6.985  10.410   0.411 -0.2631 -0.2354  0.1894
26886W        W42017   5.698   0.179   3.945 -0.0341 -0.2454  0.2823
26887W        W42018   1.079  16.534   3.594  0.5119  0.0967 -0.2680
26888W        W42019   9.580   2.960  12.933  0.0807  0.0616  0.1638
26889W        W42020  13.003  10.542  15.946 -0.0843  0.0207  0.0298
26890W        W42021   3.882  17.756  15.656 -0.0058  0.1777 -0.1220
26891W        W42022  10.242   5.890  12.557  0.0266 -0.0529 -0.0738
26892W        W42023   8.786   0.847   1.437 -0.2040 -0.0792  0.4313
26893W        W42024  17.938   5.097  12.396 -0.1284 -0.1311 -0.1086
26894W        W42025  14.869  16.086  11.607 -0.2549 -0.2905 -0.2173
26895W        W42026   3.120   4.697  12.370 -0.0224  0.3280 -0.0521
26896W        W42027  18.160   7.076   1.341  0.0818  0.0252 -0.0255
26897W        W42028  16.011   6.473  14.618 -0.0292 -0.3572 -0.5586
26898W        W42029   7.338   7.250  11.215  0.0236 -0.1585 -0.1051
26899W        W42030   7.252   5.558   2.649  0.2169 -0.1703  0.0584
26900W        W42031   4.027   3.976   4.730  0.1023  0.0142 -0.1312
26901W        W42032   2.811   7.292  10.167 -0.2977 -0.0243  0.2066
26902W        W42033  15.045  13.931   4.061  0.0275  0.0137  0.1796
26903W        W42034   3.646  14.902   0.816  0.0310  0.1381 -0.1180
26904W        W42035   4.131   2.357   1.693 -0.0799 -0.0184 -0.2084
26905W        W42036   4.490  15.930  12.526 -0.0179  0.2642 -0.0889
26906W        W42037  14.790  11.961  11.476 -0.1246  0.0323  0.1574
26907W        W42038   7.345   2.788   0.310 -0.2556  0.2418 -0.0320
26908W        W42039  12.135   7.291  10.563  0.0708  0.0020  0.3667
26909W        W42040   7.687   6.149  12.108 -0.1287  0.1556 -0.0300
26910W        W42041  10.338   9.255   1.149  0.1600 -0.2665  0.1999
26911W        W42042   8.357   6.988  15.110  0.2897  0.1152 -0.1064
26912W        W42043  15.956   7.333  11.693  0.1002  0.2948 -0.1388
26913W        W42044   2.905  11.196   3.699  0.3733 -0.0838 -0.1040
26914W        W42045  14.338  15.200   4.853 -0.0918  0.1011  0.1426
26915W        W42046   5.172   4.970   2.618  0.0619  0.0659 -0.0245
26916W        W42047  15.992  18.088   4.103 -0.1213 -0.1466 -0.0201
26917W        W42048  14.544   0.136   5.271 -0.2437  0.1113  0.1545
26918W        W42049  11.813   7.380  13.533  0.1091  0.2542  0.0602
26919W        W42050   0.382   7.003   3.832  0.0049 -0.0843  0.0253
26920W        W42051  10.562   3.271   3.538  0.2966  0.0422 -0.1780
26921W        W42052  16.528   2.693   0.870 -0.0865  0.3058 -0.0782
26922W        W42053   4.145  10.227  12.136 -0.0528  0.0474  0.0261
26923W        W42054  15.507   6.925   1.671 -0.0041 -0.3660 -0.1228
26924W        W42055  16.873   5.621  12.341  0.2268 -0.1500 -0.0275
26925W        W42056   9.137  15.495  11.495  0.0251 -0.1860 -0.0074
26926W        W42057   2.449  10.371  11.586  0.0815  0.3850  0.1465
26927W        W42058   0.117   6.469   0.612 -0.0694 -0.0449  0.2743
26928W        W42059   8.327   0.044   0.028  0.1731 -0.1259  0.0218
26929W        W42060   5.019   1.665   5.292 -0.2836  0.2723 -0.1061
26930W        W42061  10.328   3.238   2.319 -0.1641  0.1737  0.1807
26931W        W42062   6.215   2.655  13.580  0.1662  0.0561 -0.2534
26932W        W42063  12.002  11.152   0.685 -0.2238 -0.1555  0.1109
26933W        W42064   4.450  10.537  12.416  0.0166 -0.0883  0.0244
26934W        W42065  15.255  11.709   3.116  0.1035  0.0442  0.0713
26935W        W42066   7.123  16.151  13.443 -0.3047  0.0286  0.0716
26936W        W42067  12.378   9.225  15.004 -0.2115 -0.1322  0.2372
26937W        W42068   4.191  17.201   0.441  0.0412  0.1823  0.2806
26938W        W42069   5.574  16.033  11.696 -0.1275  0.0708  0.1905
26939W        W42070   7.725  16.022  15.684 -0.0908 -0.1352  0.2330
26940W        W42071   2.017   8.030   0.607 -0.3422 -0.3380  0.0139
26941W        W42072  15.861  12.665  13.414 -0.1757  0.2402 -0.1716
26942W        W42073   1.064  16.457   4.757 -0.0073 -0.1573 -0.2163
26943W        W42074   7.219   4.434  15.425 -0.0059  0.1784 -0.2601
26944W        W42075   6.265  13.633  11.549 -0.2060 -0.3400  0.3010
26945W        W42076   0.147   2.866   1.677  0.1365 -0.2311 -0.0421
26946W        W42077  11.378   5.250   3.200 -0.0608 -0.0478  0.2596
26947W        W42078  10.071  14.212   2.609  0.2438  0.1125  0.2375
26948W        W42079   1.022  13.948   5.032 -0.1535  0.0280 -0.3491
26949W        W42080   0.406   2.211   3.885  0.2696 -0.0515 -0.0993
26950W        W42081   8.109   1.496   1.340  0.2149  0.1715  0.1476
26951W        W42082  10.005  11.461   4.107 -0.1727 -0.1799  0.1344
26952W        W42083  12.364  15.492  14.704  0.0258  0.0738 -0.1230
26953W        W42084   9.053   6.787  14.271 -0.1689 -0.0840  0.1703
26954W        W42085   9.878   7.855  12.755 -0.1287 -0.2131 -0.2261
26955W        W42086   5.058  16.350  14.464  0.3767  0.1617 -0.1584
26956W        W42087   7.617   7.722   4.136 -0.1602 -0.0637  0.2322
26957W        W42088   5.289   2.294  11.888 -0.1884 -0.0199 -0.0473
26958W        W42089   0.633   7.661   2.558  0.1645  0.0664  0.2369
26959W        W42090   4.860   5.979  11.320  0.2451  0.3817  0.0454
26960W        W42091   9.366  14.062  11.401 -0.6881 -0.1098 -0.1396
26961W        W42092   5.906  16.785   5.143  0.0985  0.0668  0.0439
26962W        W42093  16.556   4.038  10.585  0.3070  0.2959  0.3272
26963W        W42094  12.620  18.195  12.875  0.0107  0.0613  0.0271
26964W        W42095   3.764  16.191   5.297 -0.1300 -0.0576 -0.1260
26965W        W42096   9.731  15.727   0.134 -0.0886 -0.1772  0.2811
26966W        W42097   5.087  15.513  14.479  0.2697 -0.0455 -0.1563
26967W        W42098  14.605  14.136   4.133 -0.0612  0.0494  0.1348
26968W        W42099  11.570   7.634  11.779  0.0169 -0.2095 -0.2629
26969W        W42100   7.661   5.635  15.456 -0.0710 -0.0008  0.1604
26970W        W42101  16.067  13.335   1.222  0.0087  0.2564  0.0865
26971W        W42102   5.954  10.535  15.668 -0.0130  0.2924  0.0146
26972W        W42103  13.654   8.267  13.164 -0.0744  0.0429 -0.0086
26973W        W42104   4.808  12.796   5.325  0.1877 -0.0035  0.0507
26974W        W42105   9.641  13.071  14.364  0.3003  0.3160  0.1952
26975W        W42106  11.164   7.203  12.274  0.1406 -0.0016  0.0844
26976W        W42107  11.480  11.607   2.341 -0.2763  0.1335 -0.1063
26977W        W42108  10.416  15.113   2.552 -0.1007  0.0241 -0.1336
26978W        W42109   7.681   2.279   4.567 -0.0183  0.0118 -0.2657
26979W        W42110  17.617   9.379   9.993  0.4163 -0.1324  0.2055
26980W        W42111  10.961  17.376   3.269  0.0746 -0.3476  0.2766
26981W        W42112   2.110   4.274   4.533 -0.0088 -0.0093  0.2907
26982W        W42113   4.216   6.070  13.806  0.2861  0.2654  0.1764
26983W        W42114   5.914  16.219   4.571 -0.0929 -0.3764 -0.2082
26984W        W42115   0.026   9.579   3.452  0.1447  0.1638  0.0116
26985W        W42116   1.720   8.748  10.529  0.1188  0.1604  0.0157
26986W        W42117  14.582   8.346   3.325  0.2874  0.1197 -0.2018
26987W        W42118  12.742  13.389  13.031 -0.0308  0.1637 -0.1391
26988W        W42119   6.527  14.492  11.581  0.2292 -0.3579 -0.0621
26989W        W42120   1.469  13.362  14.141 -0.1543  0.0298 -0.0773
26990W        W42121   6.879  12.330  16.088  0.1116 -0.1333  0.2926
26991W        W42122   9.809  16.811   3.896 -0.1036  0.2734  0.0941
26992W        W42123   2.147  17.745   1.350  0.0237 -0.0154  0.0351
26993W        W42124  11.777   4.630  14.660  0.0783  0.1014 -0.1854
26994W        W42125   0.598  14.476   1.738 -0.2088 -0.2132 -0.0075
26995W        W42126  16.426   9.238  14.777  0.1161 -0.1907 -0.2194
26996W        W42127  15.691  15.567   4.552  0.0185 -0.5079 -0.1980
26997W        W42128  13.599   4.905   2.585 -0.2180  0.0708 -0.2075
26998W        W42129  11.462  12.661  13.642 -0.2107  0.1558  0.2750
26999W        W42130   1.839   2.774   0.938  0.2742 -0.4841 -0.1490
27000W        W42131  16.758   0.546  15.503 -0.2362 -0.3646 -0.2080
27001W        W42132   5.805  15.033   1.320  0.0320 -0.0280  0.3564
27002W        W42133  11.509   3.466  12.009 -0.0660  0.3437 -0.0882
27003W        W42134   9.592  15.448   0.553  0.0992 -0.0752 -0.0767
27004W        W42135  16.674   7.860   4.472  0.0576  0.1718 -0.0327
27005W        W42136   1.993   7.423   2.426  0.2191  0.0678  0.1174
27006W        W42137  16.561  13.808   5.151  0.0866  0.0361 -0.1202
27007W        W42138  14.345  11.875  13.946  0.1154 -0.3279 -0.0414
27008W        W42139   0.419  14.079  14.638  0.0613 -0.0121 -0.2537
27009W        W42140   2.189  13.345   2.909 -0.0453 -0.2821  0.0565
27010W        W42141   8.681  11.408  12.661  0.1007 -0.0436 -0.2845
27011W        W42142   6.189   3.622   4.574 -0.0654 -0.0322 -0.3048
27012W        W42143   5.898  15.697  10.777 -0.2124 -0.0638  0.2091
27013W        W42144   3.135   4.686  15.825 -0.3351  0.2922 -0.0553
27014W        W42145   1.845  15.313  13.801  0.2161  0.1966 -0.1172
27015W        W42146   9.419  14.419   4.844 -0.1817 -0.2172 -0.1447
27016W        W42147   3.849  16.345  13.306 -0.3651 -0.0805 -0.2931
27017W        W42148   1.319   7.161   5.535 -0.1287 -0.0762  0.0913
27018W        W42149  10.097   3.937   4.292 -0.2869  0.1476 -0.1706
27019W        W42150   0.904   9.838   3.328  0.0890 -0.0909 -0.0264
27020W        W42151  10.241   6.952   1.799  0.0140 -0.3384  0.1159
27021W        W42152   9.026  10.246   1.107  0.1535 -0.0456 -0.3034
27022W        W42153   6.543  11.092   0.893  0.0516  0.0729 -0.1398
27023W        W42154   9.880  15.349   3.968 -0.0531 -0.3176 -0.0791
27024W        W42155  15.420  17.913  14.135  0.1494  0.2112  0.0855
27025W        W42156  14.527   5.724  13.772  0.0154  0.0631  0.0556
27026W        W42157   5.653   6.924  10.951  0.0919 -0.1554  0.3150
27027W        W42158   4.014   7.429  13.449  0.0772 -0.0873  0.1293
27028W        W42159  12.464  12.173   0.968 -0.0320  0.1867  0.1440
27029W        W42160  12.062   4.647  12.437  0.0183  0.2169 -0.0136
27030W        W42161   8.754   0.808  12.918 -0.2000  0.2208  0.1616
27031W        W42162   4.131   9.836  13.159 -0.0929 -0.2670 -0.1558
27032W        W42163   1.406  10.391   0.604  0.2460 -0.1143  0.1361
27033W        W42164   6.045   1.406   0.424 -0.0871  0.1143  0.2442
27034W        W42165  15.699   4.925  13.125  0.0388 -0.0111  0.1603
27035W        W42166   7.272   0.371   3.933 -0.0952 -0.2200 -0.0697
27036W        W42167  10.212   0.936   2.856  0.0503  0.1308 -0.0282
27037W        W42168   8.528  17.212   4.689 -0.1565 -0.3365 -0.3220
27038W        W42169   7.532   2.553  13.337 -0.2364  0.1474 -0.3854
27039W        W42170   7.932  17.632  15.565 -0.3976 -0.0176 -0.0871
27040W        W42171   5.026   0.819  14.494 -0.0845  0.2280 -0.2867
27041W        W42172   8.432  12.520   6.118 -0.1306  0.0039  0.1795
27042W        W42173   2.520  16.334  15.354  0.3146  0.2049 -0.0007
27043W        W42174   0.512   9.997  11.752  0.0936  0.0726 -0.2174
27044W        W42175  16.713  14.540  11.761  0.3229 -0.0867  0.0866
27045W        W42176  16.167  16.575   2.221  0.2362 -0.0796 -0.1428
27046W        W42177   8.361  12.989   4.176  0.2816 -0.0607  0.0282
27047W        W42178  14.889   6.934   4.889  0.2618 -0.1048 -0.0328
27048W        W42179   1.457   5.417  11.553 -0.1305 -0.0508  0.2416
27049W        W42180   1.630  17.576  13.124  0.1772 -0.0682  0.0553
27050W        W42181  15.401   2.287   1.748 -0.0695  0.1713 -0.0560
27051W        W42182  16.538  12.548   0.172  0.1992  0.0702 -0.1393
27052W        W42183  11.978  16.563   2.485  0.0808  0.0129 -0.1502
27053W        W42184  16.838   2.571  12.188  0.0998 -0.0740 -0.1296
27054W        W42185   5.173   3.203  15.165 -0.0279 -0.0556 -0.1089
27055W        W42186   4.528  10.835   2.582  0.1353 -0.0292 -0.1464
27056W        W42187   8.471   9.917  11.921 -0.1403  0.2563 -0.0024
27057W        W42188   8.426  13.967   5.226  0.1160 -0.0349 -0.2946
27058W        W42189  14.787   1.474   5.598 -0.1915  0.2749 -0.2699
27059W        W42190   1.768  16.931  15.649 -0.2364 -0.0289  0.3592
27060W        W42191   5.245   6.375  13.287  0.0968  0.0649  0.0121
27061W        W42192   9.503   7.244  12.303 -0.2089  0.1133  0.0966
27062W        W42193  14.405  17.544  12.517 -0.1750 -0.2944  0.2875
27063W        W42194   6.250  12.590   2.363  0.0481 -0.1405 -0.1202
27064W        W42195  13.951  10.518   4.240  0.0296 -0.0891  0.1375
27065W        W42196   5.297   4.625   5.219 -0.1609 -0.0711  0.1125
27066W        W42197  17.099   3.392   4.218  0.1383 -0.1061  0.3327
27067W        W42198   1.466   6.354  11.843 -0.0636  0.1440  0.1423
27068W        W42199   5.142  16.165   0.781  0.1207  0.0497  0.2136
27069W        W42200  17.737   6.012  12.474 -0.0787 -0.0221 -0.1404
27070W        W42201   7.913   6.216   5.558 -0.1535  0.0555 -0.1173
27071W        W42202  11.442  13.042  13.243  0.0806 -0.0942  0.2173
27072W        W42203   0.073  11.965  14.171  0.1014 -0.0464 -0.1619
27073W        W42204   2.104  13.798   1.589 -0.1696 -0.0270  0.0650
27074W        W42205  17.659   5.193   5.100 -0.1813 -0.0507 -0.2576
27075W        W42206   5.589  16.958  15.610  0.0566 -0.0029 -0.3712
27076W        W42207  17.466   9.182  10.549  0.2228  0.0512  0.0664
27077W        W42208  14.181  16.605   1.678  0.3116  0.2105 -0.2704
27078W        W42209   1.349  17.656   4.323  0.2029  0.0174  0.2484
27079W        W42210   5.620  11.756  13.080 -0.2213 -0.0043  0.1415
27080W        W42211  16.321   3.293   3.490 -0.0103 -0.0202 -0.0563
27081W        W42212  12.410   6.588   1.205 -0.1939  0.2818 -0.1349
27082W        W42213   3.369   6.059  12.796  0.0651  0.1943 -0.1687
27083W        W42214   4.936   2.425  12.566 -0.0571 -0.0305 -0.1600
27084W        W42215   3.546   3.815  15.042  0.1547 -0.0233 -0.0839
27085W        W42216   7.737  10.400   2.759 -0.2006  0.2660  0.1458
27086W        W42217  12.357   9.312  14.500 -0.0438 -0.0561 -0.0814
27087W        W42218   6.869   5.734  11.847  0.0740  0.0571 -0.2003
27088W        W42219   9.792   8.803  13.672 -0.0337  0.0592 -0.0401
27089W        W42220   4.893  17.921  12.509  0.2795 -0.0109  0.0396
27090W        W42221  14.345   7.651   0.770 -0.1832  0.2797  0.2905
27091W        W42222  13.650  14.002   5.030  0.0101  0.0822 -0.1451
27092W        W42223   6.324  10.127  13.138 -0.1367  0.2232  0.1531
27093W        W42224  14.688  17.027   4.197 -0.1369 -0.0867  0.0274
27094W        W42225  15.396   6.689  12.039 -0.0384  0.1415  0.0997
27095W        W42226   6.913  18.320   0.101  0.2303 -0.1551 -0.1663
27096W        W42227  11.487  14.917  10.403 -0.0647  0.2473 -0.1331
27097W        W42228  14.431  18.256  13.167 -0.2858  0.1305  0.1585
27098W        W42229  11.729   1.716   2.935  0.2510 -0.0207  0.0997
27099W        W42230  13.115   9.517  10.785  0.0373 -0.2274 -0.0725
27100W        W42231   8.509   5.712   2.303 -0.0123 -0.2463 -0.1421
27101W        W42232  17.525  17.403   3.423  0.2325 -0.0668 -0.2713
27102W        W42233   1.093   3.973  13.712  0.0612 -0.0139 -0.0639
27103W        W42234  17.101  17.034  11.129  0.0069  0.0221 -0.0325
27104W        W42235  10.099  16.595  11.277 -0.1327  0.0491 -0.1147
27105W        W42236   4.904  12.850  15.503 -0.0191 -0.1047  0.1911
27106W        W42237   8.371   3.718  14.676  0.0405  0.3215  0.0863
27107W        W42238   9.368  17.972   1.976  0.1045 -0.0395 -0.1004
27108W        W42239   1.091   2.705  13.287  0.2680 -0.0847 -0.1016
27109W        W42240   5.712  17.643   1.392 -0.0693 -0.0523  0.0520
27110W        W42241   1.337  15.165  14.708  0.0812 -0.1421  0.1440
27111W        W42242  13.802  13.175   1.346 -0.0893 -0.2481 -0.0561
27112W        W42243   8.425  11.804  16.004  0.0862 -0.2456  0.0880
27113W        W42244  15.805   9.005  14.028 -0.1466  0.1494  0.0303
27114W        W42245  12.729  16.370  13.575 -0.0734 -0.0828 -0.2134
27115W        W42246   8.806   7.285  11.288  0.0993 -0.0086 -0.1366
27116W        W42247  16.577  16.367   5.676 -0.1720 -0.3008  0.2702
27117W        W42248   7.970  15.638  11.671  0.1241 -0.0833  0.0330
27118W        W42249  15.925  14.667   5.288 -0.0223 -0.0508 -0.1793
27119W        W42250   7.308  14.123  14.712 -0.2154  0.2606  0.2851
27120W        W42251   9.922   5.392   1.008 -0.0077  0.2171  0.0010
27121W        W42252   0.569  12.084   6.260 -0.1594  0.1538  0.0102
27122W        W42253   1.075  17.791  13.157  0.0048 -0.0085 -0.2533
27123W        W42254  17.442  14.898   1.048 -0.0070  0.0271  0.1962
27124W        W42255  14.219   4.255   3.942  0.0492 -0.2349 -0.0236
27125W        W42256   5.107  15.646  13.908  0.3511  0.1396 -0.0459
27126W        W42257   9.033   1.431  15.346 -0.0254 -0.0025  0.1335
27127W        W42258  13.859  14.291   1.116 -0.3334 -0.0424 -0.0376
27128W        W42259   5.797   0.540   2.651  0.3063 -0.0305  0.3058
27129W        W42260   1.631   8.579  15.255  0.0850 -0.0512  0.0925
27130W        W42261   7.171  12.362   1.932 -0.1625  0.0673  0.2118
27131W        W42262  15.895   0.456   4.869 -0.2638 -0.2607  0.2432
27132W        W42263   5.858   7.571   1.305 -0.0148 -0.3193  0.1152
27133W        W42264   0.427  15.582   5.433 -0.2380  0.0614 -0.1049
27134W        W42265   6.290   5.980   4.470 -0.1639  0.2455 -0.1226
27135W        W42266  15.399   4.100   1.701 -0.2489  0.0795  0.1137
27136W        W42267  14.815   8.204  15.769 -0.0158  0.2741  0.2000
27137W        W42268   5.297  16.065  15.339  0.0171 -0.0216  0.2267
27138W        W42269   2.538  15.917   1.888  0.0594 -0.1790 -0.1344
27139W        W42270   2.910   2.118  13.939 -0.0590 -0.1721  0.2082
27140W        W42271  10.446   7.635   0.905 -0.1981 -0.0074  0.1254
27141W        W42272  14.778  15.371  14.254  0.1029 -0.0172  0.1480
27142W        W42273  11.658   6.961  10.529  0.0504  0.0199  0.2036
27143W        W42274  13.518   0.187   5.110 -0.0205 -0.2046  0.0606
27144W        W42275   5.058  12.127  14.307 -0.0700 -0.4810 -0.0658
27145W        W42276   6.734   2.606   6.365  0.0681 -0.4625 -0.0089
27146W        W42277   5.217   0.226   5.117 -0.0414  0.3226 -0.1111
27147W        W42278   4.306   9.141   3.046  0.1972  0.0049  0.2905
27148W        W42279   6.014   9.426  11.354 -0.1584  0.1851  0.0214
27149W        W42280  18.263   0.470  15.959 -0.0170 -0.0295  0.2145
27150W        W42281  14.605  17.530   4.972 -0.1432 -0.0105 -0.3122
27151W        W42282  13.820  17.934   0.901 -0.1070 -0.2409 -0.2713
27152W        W42283  17.011   1.417   0.206 -0.0654  0.1097  0.3470
27153W        W42284  12.627  13.357  15.376 -0.0035 -0.2809  0.0663
27154W        W42285  15.837   6.819  10.936  0.1072  0.2018 -0.0896
27155W        W42286   4.792   3.268  12.082 -0.1885  0.0009 -0.2357
27156W        W42287  10.007   9.713  14.195 -0.2627 -0.1835 -0.1415
27157W        W42288   6.480  10.756   4.290 -0.0741  0.1278  0.3850
27158W        W42289   6.858  12.543  14.555  0.1377 -0.0320  0.1837
27159W        W42290   1.582  17.441   2.903 -0.2503 -0.1684  0.0864
27160W        W42291  18.048   1.926  13.364 -0.1169  0.1082  0.2322
27161W        W42292   7.921  13.656  15.710 -0.2051  0.0278 -0.1443
27162W        W42293  15.365  11.219   1.156 -0.0720  0.0737  0.0341
27163W        W42294  18.020  12.408  14.207  0.0744 -0.2255 -0.1684
27164W        W42295  17.098  13.951   4.595  0.1303  0.1838 -0.1539
27165W        W42296   7.134  11.599  12.338 -0.1424  0.0871  0.0017
27166W        W42297   3.982  13.060   1.583  0.0591  0.0151  0.0798
27167W        W42298  13.925  14.987   6.232 -0.0365  0.0391 -0.1730
27168W        W42299  16.108   4.606  15.361  0.1757 -0.0742 -0.0473
27169W        W42300   1.373   9.125  11.460 -0.0419 -0.3657 -0.0908
27170W        W42301  15.421   8.950  12.520  0.0887  0.1442 -0.2964
27171W        W42302   1.385  11.919   2.469  0.0150 -0.1404 -0.1950
27172W        W42303   4.269   0.957   1.476  0.3887  0.2330 -0.1448
27173W        W42304  10.028   8.825   0.892 -0.0662 -0.0461  0.0432
27174W        W42305  13.610  13.284  14.106  0.0396 -0.0071  0.1884
27175W        W42306   4.936  13.834  10.982 -0.3630 -0.2527  0.0464
27176W        W42307  10.987  15.211   0.245 -0.0187  0.0822 -0.1685
27177W        W42308  17.608   0.491   5.134 -0.3111 -0.1133  0.1591
27178W        W42309  16.408  13.884  14.771 -0.2823 -0.0231 -0.2292
27179W        W42310   1.605   4.604   1.594  0.2395 -0.1456 -0.0550
27180W        W42311   4.785  11.781   0.128  0.0384 -0.0942  0.2402
27181W        W42312  17.596   9.954   4.429  0.0624  0.0415  0.0728
27182W        W42313   4.314   0.384   0.346  0.0706 -0.0033  0.0830
27183W        W42314  17.222  16.237  12.730  0.1046 -0.1163 -0.1157
27184W        W42315   7.129   2.853  11.522  0.4659 -0.0896  0.1484
27185W        W42316  14.831   3.884   4.557 -0.3755 -0.1516 -0.0657
27186W        W42317   1.956   8.895   0.036  0.2525  0.3111  0.1924
27187W        W42318   9.956  15.584  14.402 -0.1778  0.0706 -0.0838
27188W        W42319  17.557  14.682  14.375 -0.1724  0.2875 -0.0424
27189W        W42320  13.295  11.900   5.780  0.1225  0.1874 -0.1899
27190W        W42321   4.796   2.760  12.980 -0.4126  0.1048  0.0259
27191W        W42322  13.311  16.159   1.400  0.3107 -0.2060 -0.0235
27192W        W42323  13.158   6.172   4.730  0.1034 -0.0310 -0.1952
27193W        W42324   7.535   1.828   5.008  0.0408 -0.2063 -0.5355
27194W        W42325   9.898  11.537  11.974  0.0334 -0.7613  0.1087
27195W        W42326  10.740  13.960  10.837  0.0677 -0.1594  0.1175
27196W        W42327  17.143   7.808  11.415 -0.1502 -0.1873 -0.1548
27197W        W42328  14.941  18.322   1.421 -0.1450  0.2067  0.3276
27198W        W42329  18.207   5.650  11.814  0.0511 -0.1279 -0.1451
27199W        W42330   2.969  10.083   5.996 -0.1765 -0.1506 -0.0656
27200W        W42331   9.709   1.306  13.236  0.4312  0.2257 -0.0714
27201W        W42332   6.000   6.407   4.577 -0.0515  0.0257 -0.1864
27202W        W42333  12.763  12.796   4.835  0.1835 -0.1959 -0.0469
27203W        W42334  16.627   2.805   5.981  0.2887 -0.0188 -0.0375
27204W        W42335   2.102   7.405  12.570 -0.0737  0.4307  0.0971
27205W        W42336  14.554   4.465   5.300  0.3134 -0.1787  0.1876
27206W        W42337  12.383  14.101   4.332  0.1479 -0.2281 -0.0263
27207W        W42338   4.700   1.529  10.493  0.1752 -0.0578 -0.1152
27208W        W42339   3.728  16.211   3.348  0.0516  0.0054 -0.0775
27209W        W42340   1.873   7.072  10.720 -0.2143  0.2463  0.1087
27210W        W42341   6.980  14.849   3.253 -0.1265  0.2588  0.0383
27211W        W42342  13.106   8.240  12.723  0.1548 -0.2353 -0.0686
27212W        W42343  12.211   6.776  12.848  0.1516 -0.1093 -0.2711
27213W        W42344  18.019  18.064   4.086 -0.1662  0.2483 -0.0149
27214W        W42345  11.863  15.875  13.575 -0.1365 -0.0150  0.3880
27215W        W42346   8.178  17.713  13.818 -0.3407  0.1404  0.2208
27216W        W42347  11.128   7.882   0.642 -0.2437  0.4137  0.1129
27217W        W42348  16.521   8.634  10.635  0.0923 -0.0851  0.2971
27218W        W42349  12.291  17.026  12.264  0.1313  0.2936  0.1406
27219W        W42350   6.667   0.763  14.185  0.1155  0.3083 -0.2711
27220W        W42351  11.884  14.489  15.578  0.2733  0.0180  0.0335
27221W        W42352  10.843  14.352   4.852  0.2408  0.2202 -0.0772
27222W        W42353  10.971  14.274   3.639  0.1482 -0.0594  0.2728
27223W        W42354   3.702   2.440  14.352 -0.4959  0.1617  0.1663
27224W        W42355   3.594  17.774  13.715  0.2829  0.0816 -0.1144
27225W        W42356   5.692   0.572  11.507 -0.1172 -0.4659 -0.1379
27226W        W42357   8.803  14.181   2.019 -0.3362 -0.3585  0.1818
27227W        W42358  10.747   7.330  13.823 -0.0596 -0.0441  0.1408
27228W        W42359   5.089  17.249  14.310 -0.0243  0.4441 -0.0664
27229W        W42360   5.673   9.980   3.249 -0.0909 -0.1970  0.3851
27230W        W42361   9.747  13.279  15.305  0.1207 -0.0100 -0.0102
27231W        W42362  10.948  11.259  13.545  0.0340 -0.1455 -0.0561
27232W        W42363  11.653   7.222  12.437 -0.0012  0.2116  0.0069
27233W        W42364   8.153   3.648   1.323  0.0607  0.1793  0.0965
27234W        W42365   0.338  12.563   1.545 -0.4284  0.1909  0.0595
27235W        W42366   0.221  17.222   3.641 -0.1780  0.0826  0.1139
27236W        W42367  10.220   5.238  15.532  0.0361 -0.0179 -0.1521
27237W        W42368   8.047  11.551  13.529  0.0353 -0.3292  0.0573
27238W        W42369   4.454   1.741  11.984 -0.2213  0.0028 -0.1448
27239W        W42370   1.809  16.430  16.051  0.1415 -0.0744  0.1507
27240W        W42371   4.823   2.936   1.004  0.3720  0.3136 -0.1661
27241W        W42372  10.660  18.318   0.643 -0.0952  0.1628  0.0460
27242W        W42373  12.325  16.073  13.593  0.0918  0.1082  0.0412
27243W        W42374   4.147  11.787  15.326 -0.1948 -0.2688 -0.0816
27244W        W42375  16.875  10.466  14.329  0.1767 -0.3661 -0.1261
27245W        W42376  17.250   7.797   3.980  0.3230 -0.2071 -0.3446
27246W        W42377   3.536   5.814   0.325 -0.1769  0.0621 -0.1763
27247W        W42378   3.242   9.034   0.746 -0.1346 -0.0009 -0.1344
27248W        W42379   4.689  17.503  15.150  0.1713  0.0659  0.2671
27249W        W42380   2.248  13.641  14.556  0.2022 -0.1492 -0.1986
27250W        W42381   1.600  17.266   0.256 -0.3258  0.0555 -0.0125
27251W        W42382   5.686  13.695   1.311  0.0311 -0.0591  0.0041
27252W        W42383   5.155   7.182   0.060  0.0955 -0.1242 -0.0827
27253W        W42384   7.702  17.494   3.884 -0.1298  0.1401  0.0625
27254W        W42385   3.933  15.040   2.138  0.3153 -0.0585  0.1427
27255W        W42386   6.429  10.490  15.451  0.0713  0.1081 -0.4583
27256W        W42387   6.475   3.748  14.075 -0.1350  0.0766  0.1621
27257W        W42388   4.936   1.818  14.286 -0.2312 -0.3934 -0.1367
27258W        W42389  15.399   8.777   1.565 -0.0168  0.1512  0.1639
27259W        W42390  17.453  18.153   2.668 -0.3057 -0.4480  0.0786
27260W        W42391  12.412   9.275   2.325 -0.0229  0.0016  0.3346
27261W        W42392  15.259   4.736   5.855 -0.0159  0.0412 -0.1520
27262W        W42393  11.250   1.713   5.221 -0.0214 -0.4586  0.0343
27263W        W42394   8.692  13.920   3.720  0.0610 -0.0721 -0.3367
27264W        W42395   0.739   1.570  13.978  0.2100  0.5184  0.1424
27265W        W42396  11.575  14.336   0.597  0.1591 -0.0332  0.3270
27266W        W42397   2.581   1.846  15.791  0.1651  0.0256  0.0967
27267W        W42398   0.108   0.365   5.882  0.2398 -0.2920  0.0525
27268W        W42399  10.787   4.038  12.274  0.0849 -0.4187 -0.2248
27269W        W42400  14.513   8.494   1.498  0.1930  0.1329  0.0203
27270W        W42401   1.254   8.534   0.958  0.2194  0.2627  0.2225
27271W        W42402   4.977  16.504   2.132  0.0552  0.1923  0.0127
27272W        W42403   8.781   1.078   5.147  0.0890  0.0429 -0.1223
27273W        W42404   3.704   1.640  15.060  0.1747 -0.1708  0.0039
27274W        W42405   9.280  17.113  13.285 -0.0902 -0.4134  0.2255
27275W        W42406   2.916   4.326  13.704  0.2431  0.4545 -0.3752
27276W        W42407  12.418  13.951  11.602  0.1100 -0.1238 -0.0834
27277W        W42408  17.391  15.436   5.976  0.1374 -0.1960 -0.1166
27278W        W42409   6.567   2.567   0.850 -0.2427  0.1692  0.2625
27279W        W42410   7.171  14.641  12.416 -0.0341 -0.1453 -0.0270
27280W        W42411   6.354  17.254  11.399  0.1693  0.0629  0.2327
27281W        W42412   0.619  13.618  13.784 -0.0593 -0.0974  0.1036
27282W        W42413   5.564  16.702   6.105 -0.1730 -0.2267  0.3206
27283W        W42414  10.066   0.241  15.005 -0.0798 -0.1797  0.2037
27284W        W42415   7.105  10.782  14.709 -0.0950  0.1851  0.3332
27285W        W42416  13.367  12.707  11.409  0.0228 -0.2987 -0.2504
27286W        W42417  13.583   3.459   1.194 -0.2014 -0.1803  0.2456
27287W        W42418   2.673   3.626   1.978  0.4632 -0.1364 -0.0339
27288W        W42419  16.956  15.510   5.120  0.0532 -0.1637  0.1810
27289W        W42420   7.156   0.266   4.984  0.0027  0.1891  0.1146
27290W        W42421   4.827   8.664  11.698  0.1614  0.1930 -0.0637
27291W        W42422  17.932  15.059  14.801 -0.0749  0.1830 -0.0529
27292W        W42423  11.076   1.024   1.699  0.1033  0.0683  0.1602
27293W        W42424   3.005   0.940  12.303 -0.4482  0.2375  0.0633
27294W        W42425   6.496   0.570  15.759 -0.2584 -0.3291 -0.1528
27295W        W42426   7.623   8.997  15.896 -0.2173 -0.1488 -0.2717
27296W        W42427   9.946   7.144  11.693  0.3836  0.0082  0.1686
27297W        W42428  12.357   4.005   4.595  0.1143 -0.2487 -0.4145
27298W        W42429  16.819  13.314   4.539  0.1332 -0.4504 -0.0670
27299W        W42430  15.020   4.452   4.305  0.0454  0.0701  0.0961
27300W        W42431  17.211  11.126  15.601  0.1645  0.0701 -0.0323
27301W        W42432   5.542  18.266   0.872 -0.1763 -0.2906  0.1785
27302W        W42433   0.002  13.045   5.458  0.3063 -0.1168  0.1531
27303W        W42434   9.025   0.231  13.097 -0.1873  0.0336 -0.0163
27304W        W42435   4.772   7.701   2.360  0.0909 -0.1023 -0.0717
27305W        W42436  16.075   6.976  14.708  0.2014 -0.0847  0.0101
27306W        W42437   5.090  17.638   0.964 -0.0678 -0.1169  0.0926
27307W        W42438   0.112  12.863  13.642 -0.1551  0.2834  0.0054
27308W        W42439  10.722  16.847   3.154  0.0097 -0.0937 -0.1649
27309W        W42440   5.291  17.231   2.599 -0.2283  0.0512 -0.1984
27310W        W42441  10.584   8.166   0.149 -0.0699 -0.3118  0.3968
27311W        W42442  10.960  13.817   2.323 -0.0033  0.0873  0.2466
27312W        W42443   8.150   6.650   5.567  0.0626 -0.1049  0.1052
27313W        W42444   9.995   3.417  15.746 -0.3167  0.0567  0.0991
27314W        W42445  14.676   7.179   1.895  0.2695 -0.0064  0.5265
27315W        W42446  15.321   5.676   6.245  0.0829  0.3316 -0.1512
27316W        W42447   6.340   4.114   0.111  0.0860 -0.3082  0.1093
27317W        W42448  15.916   9.690  13.667  0.0295 -0.1197  0.1518
27318W        W42449  11.334   6.368  15.049  0.0463  0.0423  0.0756
27319W        W42450  11.593   9.540   5.190  0.0114 -0.0041  0.0116
27320W        W42451  14.996  12.960  11.770  0.2718  0.2375  0.1548
27321W        W42452  15.023   9.919   4.331 -0.2510 -0.1749  0.2266
27322W        W42453   2.292   8.175  11.521 -0.2329 -0.4788  0.0121
27323W        W42454   9.643  10.340  16.055  0.0618  0.0818  0.2155
27324W        W42455   6.277   3.438   0.868  0.0308 -0.1009  0.0983
27325W        W42456  11.155  17.153  10.530  0.1950  0.2010 -0.0582
27326W        W42457  17.304  12.358   3.217 -0.0883 -0.0070 -0.0296
27327W        W42458  17.337  17.470  13.089  0.2696 -0.0573 -0.0192
27328W        W42459   6.493  12.607  14.027  0.1569 -0.0131  0.2868
27329W        W42460   4.419  16.150  14.646 -0.0610  0.1961 -0.0795
27330W        W42461   2.839  16.807   0.659 -0.0458 -0.3828  0.3212
27331W        W42462  13.021   0.072  13.118  0.3036 -0.1484 -0.5675
27332W        W42463  10.729   1.863   1.414 -0.0570  0.0422 -0.0200
27333W        W42464   1.071   4.470  12.040  0.2158  0.0620  0.1187
27334W        W42465   6.420  12.048   0.875  0.1819  0.3565 -0.0689
27335W        W42466  14.341  13.606  14.037 -0.1031  0.0737 -0.2200
27336W        W42467  10.592   9.514  14.381 -0.0531 -0.1237 -0.0086
27337W        W42468  10.343   2.673   5.142 -0.1062 -0.1263 -0.1992
27338W        W42469  13.952  12.884   3.777  0.2839  0.1387 -0.3306
27339W        W42470   8.855  16.690   1.684 -0.0895  0.3001  0.0368
27340W        W42471  14.234   8.785  13.448 -0.2052 -0.0548  0.0685
27341W        W42472   3.434   3.649  12.307 -0.2429 -0.4172  0.5588
27342W        W42473   1.078  12.434   2.362 -0.1178  0.1092  0.2140
27343W        W42474   0.560  18.011   1.659 -0.1268 -0.2127  0.1643
27344W        W42475   3.788   6.213   1.503  0.1227 -0.0103 -0.1246
27345W        W42476   5.110  11.613   2.658 -0.2814 -0.1542 -0.2519
27346W        W42477   7.523   0.264  14.091  0.0813  0.2571 -0.4076
27347W        W42478  16.919   0.021  10.482  0.1514 -0.3045  0.0349
27348W        W42479   6.994  17.192  15.229  0.0270 -0.5773  0.1972
27349W        W42480  14.249   4.937   0.759 -0.0251 -0.3349  0.0259
27350W        W42481   7.316  18.264  11.641 -0.1596  0.0607  0.2756
27351W        W42482   4.688  13.132  11.864  0.3899 -0.1335 -0.3346
27352W        W42483   7.500   2.716  14.889 -0.5267 -0.1626 -0.0141
27353W        W42484   9.389   4.808   0.710 -0.1213 -0.1090 -0.0235
27354W        W42485   0.413  15.736  15.701 -0.2176  0.0246 -0.0236
27355W        W42486   8.718   1.763   5.934 -0.0239  0.1892 -0.1378
27356W        W42487   8.250   1.498   0.833  0.1823  0.0546 -0.0498
27357W        W42488   6.270   0.155  15.510 -0.1683 -0.0184 -0.0731
27358W        W42489   1.603  11.035   4.730 -0.0975  0.1212 -0.1101
27359W        W42490  13.196   4.500   3.289 -0.2339  0.0262  0.1071
27360W        W42491  13.385   4.289   1.531 -0.0997 -0.1800 -0.1608
27361W        W42492   6.743   0.055  15.750  0.0548  0.1250 -0.1017
27362W        W42493   4.403   2.736  15.224  0.0468 -0.1107  0.1753
27363W        W42494   4.222   7.498   2.206 -0.0952 -0.0101  0.1677
27364W        W42495  11.669   9.769  13.104 -0.2593  0.0913  0.2668
27365W        W42496  12.543   7.557  15.909  0.3987 -0.0961 -0.2408
27366W        W42497  10.229  11.274  15.516  0.2739  0.1373 -0.1006
27367W        W42498   3.427  17.517  15.631  0.1398  0.0704  0.0496
27368W        W42499   4.647  16.553  15.702  0.1488  0.1811 -0.0882
27369W        W42500   1.418  15.227   1.856 -0.2058  0.2335 -0.0413
27370W        W42501  12.559   9.025  15.744  0.2670  0.0871  0.0141
27371W        W42502  14.078  14.068   1.535 -0.0827  0.1582  0.1392
27372W        W42503  12.162   7.975  14.493  0.0017 -0.1214 -0.3004
27373W        W42504  15.278  18.239  12.564  0.3668  0.0523  0.3084
27374W        W42505  10.155   2.837  12.988 -0.0970 -0.0667  0.0209
27375W        W42506   7.739   9.277   0.723 -0.5650 -0.1764 -0.0137
27376W        W42507   6.982  11.693  15.812 -0.0077 -0.1126  0.0954
27377W        W42508   1.102  13.495   4.012  0.0748  0.1682 -0.1533
27378W        W42509  15.250   6.892  16.042 -0.0513  0.1100 -0.1794
27379W        W42510  13.177   9.004  10.546 -0.1099 -0.1382  0.0665
27380W        W42511   4.483  13.695  14.119  0.1250  0.0833  0.1870
27381W        W42512   3.409   2.230  15.248 -0.3208  0.3765  0.2409
27382W        W42513   2.752  16.345   4.751  0.0399 -0.1365 -0.0679
27383W        W42514   4.274  11.588   1.573  0.2352  0.3153  0.4216
27384W        W42515   3.141  15.053   4.847  0.0712 -0.2629  0.1925
27385W        W42516   4.858   6.216  12.278 -0.0569 -0.2534 -0.0972
27386W        W42517  10.853  15.341   2.516  0.1424  0.1638  0.0837
27387W        W42518   2.357   8.618  15.640 -0.0320 -0.1793  0.1821
27388W        W42519  17.624   1.272  12.615  0.2867 -0.0267 -0.2054
27389W        W42520   5.165   6.338  11.907  0.1998  0.0390 -0.0407
27390W        W42521   9.672  17.117  13.622 -0.1428  0.3716  0.0096
27391W        W42522  11.530  11.621   9.558  0.1107  0.0868  0.0579
27392W        W42523  18.064   8.545   9.969  0.3163  0.0294  0.2473
27393W        W42524  10.093  11.511  13.279  0.1102  0.0176  0.0356
27394W        W42525  15.451  10.494   2.504 -0.1323 -0.1835  0.1334
27395W        W42526   0.821   1.166  12.790  0.2070  0.2540 -0.1249
27396W        W42527   3.641  17.897   1.306 -0.0624  0.0249  0.0014
27397W        W42528   4.877  13.198   0.218  0.2986 -0.1384 -0.0721
27398W        W42529  11.260   9.812   1.134  0.3121  0.0464  0.0755
27399W        W42530   9.091   9.239   0.171  0.3300 -0.0434  0.2483
27400W        W42531  14.729  12.287   2.782 -0.0409 -0.4390 -0.2064
27401W        W42532   7.931  12.510  12.337 -0.1167  0.0506  0.1413
27402W        W42533  15.292  10.388  15.730  0.1871 -0.1085  0.2353
27403W        W42534  14.590   1.049  11.621  0.1087 -0.0435  0.0863
27404W        W42535   1.109  17.749   5.968  0.0678 -0.2389 -0.0557
27405W        W42536  12.902   3.456  16.025 -0.0960  0.0595  0.3609
27406W        W42537   5.954  12.429  11.271  0.3380  0.0781  0.1035
27407W        W42538   5.787   1.872  13.305  0.2070  0.2667  0.0971
27408W        W42539  16.753   2.700  14.302 -0.1080 -0.0125 -0.2609
27409W        W42540  15.440   1.368   2.124 -0.3828  0.0539 -0.4296
27410W        W42541   7.630  11.884  13.751  0.0495 -0.1611 -0.1307
27411W        W42542   0.949  16.687  16.018  0.4249 -0.3848  0.0644
27412W        W42543   2.198  16.083   0.255 -0.2346 -0.1021 -0.1037
27413W        W42544  15.170  16.036   0.028  0.2537  0.1325  0.0300
27414W        W42545   7.620   4.823  12.335  0.1704  0.1244  0.0929
27415W        W42546  16.415  14.811  11.288 -0.0998  0.3298 -0.1842
27416W        W42547  10.812  13.145   2.333  0.0144 -0.0143  0.1196
27417W        W42548  12.367  15.775  15.133 -0.1183 -0.0645  0.1616
27418W        W42549  18.085  15.260  12.520  0.2687  0.1593 -0.0382
27419W        W42550  14.240   1.948  13.338  0.3071 -0.0552 -0.1535
27420W        W42551   8.470  13.016  15.104  0.2416 -0.0712 -0.1763
27421W        W42552  17.894  15.298  15.470 -0.1451 -0.1428  0.0135
27422W        W42553  13.730  10.180   3.237  0.0137  0.1193  0.2685
27423W        W42554   6.519  16.776  13.774  0.0689  0.0649  0.1484
27424W        W42555   0.380  14.911   0.028 -0.1858  0.2624 -0.0257
27425W        W42556   1.495  13.906   1.284 -0.4141  0.0975 -0.0502
27426W        W42557   2.446   1.559   0.121 -0.0309  0.0416 -0.2353
27427W        W42558   9.962  13.646  10.804  0.1793 -0.0999  0.5470
27428W        W42559   6.387   0.808  11.790  0.0936  0.0622  0.0621
27429W        W42560   7.167   0.880   2.437 -0.1160 -0.1790 -0.0310
27430W        W42561   0.529  14.773   5.268 -0.1007  0.0477  0.0659
27431W        W42562  10.443   9.061   4.015 -0.0969 -0.0054  0.3739
27432W        W42563   6.918   0.013   5.638  0.3358  0.2334 -0.0184
27433W        W42564  15.341  11.143  10.630  0.0774 -0.0177  0.0283
27434W        W42565   1.974   0.057   5.546 -0.1783 -0.0496 -0.0963
27435W        W42566  18.185   8.807  11.243 -0.2114  0.1425  0.2648
27436W        W42567  15.906  13.818  13.088  0.1318  0.1938 -0.1191
27437W        W42568  17.961   1.137  13.632 -0.0609  0.1751 -0.0786
27438W        W42569   5.347  14.095   4.252  0.0586 -0.2288 -0.2198
27439W        W42570  11.411   1.955   3.221  0.1653  0.1273 -0.1278
27440W        W42571   2.250   8.467   0.729 -0.1660  0.0054 -0.0121
27441W        W42572   6.518   2.410   5.457 -0.4146 -0.1105 -0.1354
27442W        W42573  15.465   6.339  12.844  0.1708 -0.0643  0.1592
27443W        W42574   1.971  11.396   4.412 -0.1023 -0.1426 -0.1482
27444W        W42575   0.887   6.350  11.670 -0.1504 -0.2333 -0.4157
27445W        W42576  17.906  17.681   4.859 -0.1025  0.2264 -0.0665
27446W        W42577  11.176   0.531  12.754 -0.2147  0.1298 -0.0781
27447W        W42578  10.642  13.084  14.374  0.1765 -0.0599 -0.1406
27448W        W42579  17.157   1.225  15.503 -0.0990  0.1206  0.0658
27449W        W42580   7.902  16.520  14.921  0.2563  0.2191  0.0660
27450W        W42581   4.548   8.684  12.772  0.1573  0.0516  0.1693
27451W        W42582  18.230   4.468   1.378  0.3051  0.1690  0.4286
27452W        W42583   5.496  11.153  14.389 -0.0816 -0.2412 -0.0404
27453W        W42584   9.998   9.590  15.150 -0.0077  0.0948 -0.3639
27454W        W42585  12.241  11.422  11.376 -0.2452 -0.1097  0.0749
27455W        W42586  14.949  17.236   1.507  0.2701  0.2372 -0.0597
27456W        W42587   5.044   0.333   4.574 -0.2311 -0.0030 -0.1472
27457W        W42588   9.344   7.596   3.211 -0.3154  0.1111 -0.0222
27458W        W42589   1.544  17.787   1.883 -0.0206  0.1889  0.0054
27459W        W42590   4.312  14.407   3.425  0.2987  0.1667  0.0842
27460W        W42591   0.302  10.565   1.212  0.3706  0.1709  0.0633
27461W        W42592   8.275  17.273   0.941 -0.2146  0.3291  0.0742
27462W        W42593   5.877   7.322   4.924  0.3983  0.2411  0.2107
27463W        W42594  17.118   1.600   4.053  0.0123  0.0700 -0.3195
27464W        W42595   2.227  11.364  11.301  0.1814  0.2327 -0.0524
27465W        W42596  15.338   3.856   5.504  0.1321 -0.1213 -0.1098
27466W        W42597   2.077   6.532   1.521  0.1187 -0.0209  0.0036
27467W        W42598  14.566   3.661  12.888  0.1248  0.0775 -0.1373
27468W        W42599  17.635  15.075   3.216  0.2795 -0.2814  0.0053
27469W        W42600  11.997  10.398  15.828  0.1134  0.1508  0.1801
27470W        W42601   8.760   4.170  13.492 -0.1137 -0.4102  0.3551
27471W        W42602   0.788   0.347   2.869 -0.0620 -0.1569 -0.1216
27472W        W42603   0.401  11.304  12.788  0.1831  0.1721  0.1295
27473W        W42604   4.471   1.900  14.316  0.2375  0.1419  0.0785
27474W        W42605  10.438   6.837  13.113 -0.3017 -0.2361  0.2606
27475W        W42606  10.714   9.877  12.811 -0.2263  0.0222  0.0152
27476W        W42607  15.165   8.042  11.687  0.0716 -0.0304  0.0096
27477W        W42608   0.646  10.350  12.193  0.1319 -0.0848 -0.0421
27478W        W42609   2.842  12.205   4.810 -0.2811  0.2541 -0.2407
27479W        W42610  11.545   3.553   1.531  0.0112 -0.0205  0.0990
27480W        W42611   7.254   5.895  15.679  0.0850 -0.1079  0.1257
27481W        W42612   1.689  15.471   2.410  0.1080 -0.1759  0.0883
27482W        W42613  10.874   2.628  14.256 -0.0147  0.0330 -0.0323
27483W        W42614  16.722   0.811  14.410  0.0446  0.2003  0.0426
27484W        W42615  14.749  13.795   0.856  0.0491 -0.2742  0.0236
27485W        W42616   8.253   5.378  12.357  0.0873  0.0734  0.1939
27486W        W42617  16.240   1.873   2.122  0.0959 -0.0056  0.1837
27487W        W42618  15.353  18.262   4.551  0.1363 -0.0753 -0.0229
27488W        W42619  16.397  13.824  11.590 -0.5329 -0.2814 -0.1614
27489W        W42620   5.710  16.752   1.811 -0.1008  0.2709 -0.1807
27490W        W42621   6.835   9.457  11.581  0.0112  0.1868  0.2734
27491W        W42622  14.862   1.113  13.236 -0.0707  0.0399  0.0127
27492W        W42623   1.262  12.878   3.217  0.1304  0.2139 -0.2349
27493W        W42624   3.158   0.444   4.279 -0.0596 -0.1587  0.0778
27494W        W42625   5.669   2.164  15.123 -0.0882 -0.0324  0.0412
27495W        W42626  11.178  16.972   1.818  0.1206  0.0136 -0.0970
27496W        W42627   2.733  10.585  13.429  0.1273  0.0868 -0.1775
27497W        W42628  10.012  11.016   5.172 -0.0549  0.1637 -0.1581
27498W        W42629  13.150  11.855   4.917 -0.2345  0.0488  0.0364
27499W        W42630  14.415  16.653  11.329  0.4034  0.1069  0.2005
27500W        W42631   7.905   2.853  12.041 -0.0604  0.0381  0.2802
27501W        W42632   1.111  11.080  15.832  0.1132  0.0397  0.0634
27502W        W42633  15.162  13.064   5.288 -0.2035  0.3004  0.1853
27503W        W42634   1.221   2.156   2.701 -0.1282 -0.0592 -0.3798
27504W        W42635  17.963  13.976  15.480 -0.0013 -0.2070 -0.0849
27505W        W42636  18.153   5.909   5.160  0.0993  0.0002 -0.2072
27506W        W42637   0.459  12.650  11.042 -0.0314 -0.0263 -0.1193
27507W        W42638  18.024  12.735  13.825 -0.2375  0.0103 -0.0021
27508W        W42639  16.688  11.467   4.481  0.0187 -0.0034 -0.0635
27509W        W42640  13.289   0.269   2.195 -0.1770  0.1921 -0.3641
27510W        W42641   3.261  17.074   5.446 -0.1397  0.1825 -0.0977
27511W        W42642   9.040   9.742  11.906  0.0224  0.1597  0.2837
27512W        W42643  15.344  11.690   4.587  0.0567 -0.0587 -0.0111
27513W        W42644   7.749   9.902  10.182  0.1246  0.2619 -0.0585
27514W        W42645  17.039   9.130   4.096  0.0395 -0.2676 -0.4166
27515W        W42646   8.572   5.492  14.946  0.1054 -0.1041  0.2629
27516W        W42647   8.873   5.767  13.641 -0.4146 -0.3023  0.2389
27517W        W42648   7.930  11.599  16.018  0.2189 -0.0068  0.1718
27518W        W42649   7.662   6.327   0.458 -0.4157 -0.1012 -0.1117
27519W        W42650   6.162   0.251   0.964  0.3534 -0.0982  0.2443
27520W        W42651  15.522  14.787   4.981 -0.1604 -0.0486 -0.1356
27521W        W42652   1.567  13.639   1.883  0.1616 -0.1111 -0.4038
27522W        W42653  16.684  15.867   0.555 -0.0769 -0.0547  0.0778
27523W        W42654   7.160  14.316   3.257 -0.0709  0.0997  0.1044
27524W        W42655   4.931   5.348   2.484  0.0133  0.1959 -0.1423
27525W        W42656   3.363   2.099   5.566 -0.2804  0.0985 -0.0189
27526W        W42657   8.458   4.416  11.264  0.1811 -0.2411 -0.1021
27527W        W42658  16.562  13.263   2.191 -0.2479  0.0718 -0.0207
27528W        W42659   6.018  10.178   1.588 -0.1913 -0.4024 -0.1767
27529W        W42660   2.561  13.849  15.671  0.0431  0.0126 -0.1790
27530W        W42661  10.823  12.978   3.674 -0.2030  0.0273  0.1236
27531W        W42662   5.107   8.011   4.625  0.0118 -0.1792 -0.1457
27532W        W42663   7.701   7.274   0.302  0.1526  0.0774 -0.0546
27533W        W42664   3.534  18.276   3.551  0.1757 -0.3209  0.1975
27534W        W42665   2.356   0.993  12.809 -0.4199 -0.0046 -0.1236
27535W        W42666   4.693   3.267  12.671  0.2316  0.3034 -0.0090
27536W        W42667   5.936   9.351  16.046  0.2366 -0.1524  0.1285
27537W        W42668   2.249   3.112   5.530 -0.0893 -0.2223  0.1507
27538W        W42669   1.104   2.671  15.447 -0.1038 -0.2525 -0.0513
27539W        W42670  10.439   4.785  14.124 -0.3290  0.5170  0.1648
27540W        W42671  16.164   7.192   2.414 -0.0484 -0.1025 -0.3694
27541W        W42672  10.631  17.185   3.555  0.2153  0.1837  0.0476
27542W        W42673   4.881   5.019   3.760 -0.2001 -0.2223  0.1756
27543W        W42674   5.101  11.723   1.463  0.1784 -0.1217  0.0217
27544W        W42675  14.271   8.389   5.277  0.2009  0.1293  0.0523
27545W        W42676  15.522  17.720   5.256 -0.0003 -0.1524  0.1523
27546W        W42677   9.857   5.386   5.425  0.1188  0.4922  0.0184
27547W        W42678  15.056   4.016  12.380 -0.0797  0.3386 -0.0322
27548W        W42679   0.548  17.628   3.701 -0.4880  0.4627 -0.2376
27549W        W42680   5.619  14.250   4.751  0.3133  0.1974 -0.0588
27550W        W42681   2.271   4.392   1.183  0.0409  0.0083  0.0147
27551W        W42682  16.352   8.998   0.582  0.1025  0.3747  0.6495
27552W        W42683  15.816   2.938  11.599  0.3242  0.2461 -0.1581
27553W        W42684  13.001  12.909  11.082  0.1003  0.0144 -0.1453
27554W        W42685   1.175   8.050  14.547  0.5078 -0.2624 -0.3266
27555W        W42686   5.303  17.787  15.384 -0.3649 -0.0308 -0.0019
27556W        W42687   4.972   7.719   9.958  0.0912 -0.0902  0.3617
27557W        W42688   6.941   4.360   4.900  0.0214  0.0567  0.1281
27558W        W42689   4.769  13.518  10.281 -0.1965 -0.1030 -0.0474
27559W        W42690  12.094   4.992  14.584  0.0859 -0.5102  0.0882
27560W        W42691   4.774  12.473   1.549 -0.2202  0.3586 -0.0373
27561W        W42692  12.484  15.293   3.686  0.0601 -0.2198  0.0390
27562W        W42693  17.226  16.212   2.900 -0.1091 -0.1786  0.0146
27563W        W42694   3.569  15.140   0.381 -0.2470 -0.1093  0.0410
27564W        W42695  10.275  12.983  11.826  0.5172 -0.0552  0.0710
27565W        W42696   5.485   1.599  15.616 -0.0813 -0.3364 -0.0213
27566W        W42697   8.725  17.988  14.384  0.2140 -0.0986 -0.0960
27567W        W42698   7.259  14.772   4.174  0.0442 -0.2938 -0.1826
27568W        W42699   2.524  15.049   1.761  0.1933  0.0190  0.2649
27569W        W42700  13.335  17.141   3.051  0.1437  0.1095  0.0361
27570W        W42701   6.486  15.849  15.929 -0.3499 -0.0686  0.1471
27571W        W42702  18.165   5.402  13.452 -0.1146  0.2171  0.0385
27572W        W42703   3.190  12.662  14.986  0.1124 -0.0915 -0.2974
27573W        W42704   6.169   2.007   2.091 -0.0954  0.4145  0.1176
27574W        W42705   9.198  10.705  11.246  0.0440  0.0043 -0.1452
27575W        W42706   8.170   1.088   0.056 -0.0508 -0.0550  0.0137
27576W        W42707   5.391   2.999   3.855  0.3460 -0.1570 -0.1711
27577W        W42708   8.991   7.269   3.004  0.0675 -0.2120 -0.0932
27578W        W42709   3.623  12.239  14.765  0.1953 -0.0334 -0.2529
27579W        W42710  17.050   7.183  12.890 -0.0483 -0.0076 -0.1721
27580W        W42711  12.440   2.585  10.850  0.1104 -0.1406 -0.2826
27581W        W42712  17.532  12.949  11.253 -0.1504 -0.0463 -0.1093
27582W        W42713  12.976   2.311   2.002 -0.0262  0.1497  0.1295
27583W        W42714  13.434   2.773  15.532  0.1534 -0.1761 -0.0582
27584W        W42715  14.717   4.963   2.810  0.0618 -0.0702  0.4809
27585W        W42716   3.334   1.421  14.672 -0.0946 -0.0328  0.0611
27586W        W42717   5.985  10.763  10.122 -0.3305  0.0011  0.1534
27587W        W42718  14.776  12.466   4.227 -0.0425  0.0231 -0.1056
27588W        W42719   9.166   2.453  13.410  0.0546  0.1109  0.0159
27589W        W42720  11.591  16.568   4.607 -0.0269  0.0921  0.1304
27590W        W42721  14.580   6.830   2.226 -0.0977 -0.3330  0.1067
27591W        W42722   7.377  11.390  12.923 -0.2538  0.1846  0.3687
27592W        W42723  16.938   1.899   0.504  0.3804 -0.0062 -0.2626
27593W        W42724   3.915  11.542   0.249 -0.2572  0.2009  0.1870
27594W        W42725   9.383   7.676   4.204 -0.2329 -0.0870 -0.3221
27595W        W42726   2.483   9.011   4.127 -0.2782 -0.1403  0.0448
27596W        W42727  10.721   2.492  15.841 -0.3196  0.0528  0.2216
27597W        W42728  10.077   9.152   3.113  0.0782  0.1220 -0.0098
27598W        W42729  16.892   7.896   0.321 -0.0479  0.0406 -0.3338
27599W        W42730  11.796   0.822   5.232 -0.0762 -0.2636  0.1392
27600W        W42731  12.580   5.856   3.430 -0.1490  0.2457 -0.0305
27601W        W42732   9.830  17.895   2.551 -0.0927  0.1793  0.0387
27602W        W42733  12.536  15.262  15.347  0.0079 -0.3311  0.1346
27603W        W42734  12.345  16.354  14.515 -0.1509 -0.0428  0.0613
27604W        W42735   5.775   5.972   0.376  0.0551 -0.1928  0.1440
27605W        W42736   8.665  13.851   2.916 -0.0773  0.3339  0.0395
27606W        W42737  16.957   2.697   0.361 -0.1285  0.2005  0.0433
27607W        W42738  14.555  12.493   3.177 -0.0345 -0.2290 -0.0075
27608W        W42739  14.490   0.899   3.498  0.2284  0.4014 -0.0736
27609W        W42740  17.041   2.861  10.504 -0.0207  0.0610 -0.1461
27610W        W42741  14.543   8.895  11.891 -0.0218 -0.4806 -0.0643
27611W        W42742  12.968   7.616  14.616  0.0526 -0.0681 -0.1451
27612W        W42743   4.957   9.449   3.590 -0.1109  0.0331 -0.1548
27613W        W42744  13.509   7.123   5.499  0.0008 -0.0062 -0.0159
27614W        W42745   2.251   7.352   4.476  0.1650 -0.0460  0.1170
27615W        W42746  15.611  15.919   2.747  0.2908 -0.1404  0.5673
27616W        W42747  16.896  13.151   1.173  0.2461 -0.1402  0.0413
27617W        W42748   2.314  16.540  11.100 -0.2501  0.4246  0.0249
27618W        W42749  15.453  10.638   4.490  0.2096 -0.3866 -0.1907
27619W        W42750  12.414   8.989   1.066 -0.0453 -0.0515 -0.1016
27620W        W42751   5.426   4.120   3.904  0.2296  0.2643 -0.3400
27621W        W42752  11.323  14.591   1.854 -0.0517 -0.4389 -0.3934
27622W        W42753   7.326   9.260  10.373  0.0506  0.1039  0.2113
27623W        W42754  13.049   3.099  12.012  0.0723  0.3321 -0.0957
27624W        W42755  16.537  16.292  14.960 -0.0778 -0.0759  0.0437
27625W        W42756   6.779  11.408  11.791  0.2589  0.1717 -0.0016
27626W        W42757  13.917   5.286  15.449  0.0931 -0.2365  0.0147
27627W        W42758  12.270   0.928   2.907 -0.1704  0.3001 -0.1660
27628W        W42759  18.073  16.991   3.917  0.1290  0.2313 -0.2404
27629W        W42760  14.378   7.146  13.611 -0.1436 -0.1510 -0.0334
27630W        W42761  10.755  18.148  12.947 -0.0871  0.1387 -0.0887
27631W        W42762  15.602   1.477   4.500  0.1402  0.0314  0.5210
27632W        W42763  10.033   0.680   0.103 -0.0584  0.1229 -0.4109
27633W        W42764   3.465  11.940   0.341  0.1247 -0.1524 -0.0282
27634W        W42765  15.242  12.634  15.005 -0.1077  0.0687 -0.0653
27635W        W42766   6.896   2.917   0.091 -0.1473 -0.0475 -0.0387
27636W        W42767  12.625   5.003   1.511 -0.0825 -0.1616 -0.0451
27637W        W42768   0.207   1.766  14.104  0.1111  0.1419 -0.1953
27638W        W42769   6.981   9.501   4.669  0.2368 -0.1469  0.2401
27639W        W42770  14.241  17.131   2.599  0.1404 -0.3382  0.1812
27640W        W42771  13.680  13.787   2.391 -0.0601 -0.1996 -0.0849
27641W        W42772   6.450  11.250   4.137  0.0327 -0.1410 -0.0344
27642W        W42773  13.486   4.545  12.853 -0.1687  0.2385 -0.0481
27643W        W42774   8.197   5.746  13.579  0.2782 -0.3033 -0.0875
27644W        W42775   7.792   4.276  11.160  0.0453  0.0107 -0.2363
27645W        W42776   4.016   3.742   5.140  0.2234 -0.0552 -0.3135
27646W        W42777   3.020  18.286   3.595  0.1715 -0.0320  0.0382
27647W        W42778  10.508   2.386   2.167  0.0788 -0.2063 -0.1769
27648W        W42779  11.834  13.998  13.723 -0.2462  0.2161  0.2055
27649W        W42780  10.584   9.033   4.464  0.1835 -0.1175 -0.0941
27650W        W42781  17.436   8.278  12.694 -0.3021  0.0082  0.0012
27651W        W42782   4.601  13.754  12.203 -0.2179 -0.1016  0.1296
27652W        W42783  16.296   3.302   4.043  0.2123  0.2816  0.1933
27653W        W42784   5.391  16.120  12.415  0.0342  0.1050  0.1602
27654W        W42785  10.950  16.314  10.262  0.1638 -0.1571  0.1050
27655W        W42786  16.507   5.834  13.414 -0.0060  0.0357  0.2109
27656W        W42787   3.382   0.448  13.278  0.0438  0.1777  0.1127
27657W        W42788   4.040   3.851   0.692 -0.1729  0.0421 -0.1165
27658W        W42789   8.596  15.452  11.476 -0.5205 -0.0355 -0.0529
27659W        W42790  12.256  12.554  13.184 -0.0619  0.1655 -0.2390
27660W        W42791   8.199   4.217   0.707  0.0227 -0.0173 -0.1845
27661W        W42792  10.779  15.553  12.648 -0.2388 -0.2818  0.2011
27662W        W42793   1.987   4.177   1.656 -0.2579 -0.0548 -0.0393
27663W        W42794   4.964   3.743   0.758 -0.1251 -0.2271  0.1675
27664W        W42795   5.787   9.381   0.942  0.1872  0.0728  0.1904
27665W        W42796   8.829   3.424   5.138 -0.2695 -0.0109  0.0474
27666W        W42797  16.854   2.547   1.584  0.0042 -0.1758 -0.0800
27667W        W42798  16.308   0.857  14.212  0.0020  0.3763  0.2572
27668W        W42799  14.711  15.566   4.822 -0.0804  0.0438 -0.3337
27669W        W42800   9.943   9.587  13.311 -0.3848  0.2329  0.0497
27670W        W42801   4.937  13.596  14.131  0.0533 -0.3735 -0.1276
27671W        W42802   1.934  10.297  15.745 -0.1215 -0.1447 -0.0970
27672W        W42803   4.708   1.281   4.469 -0.3874  0.2945 -0.0509
27673W        W42804   6.365   9.336   0.169 -0.1443 -0.0317 -0.2249
27674W        W42805   0.465  10.056  14.099 -0.1337 -0.0792 -0.0494
27675W        W42806   0.584  13.208   2.254  0.0926 -0.0155  0.0685
27676W        W42807   2.026  11.171   2.531  0.0066  0.0290  0.0001
27677W        W42808   3.677   5.265   5.523  0.0146 -0.0308 -0.1680
27678W        W42809  17.724   4.792  13.228  0.0997  0.3023  0.0525
27679W        W42810   5.797   7.422  13.243 -0.0018 -0.0004  0.2497
27680W        W42811  10.017   5.336   4.735 -0.1428 -0.1559  0.3376
27681W        W42812   6.855   0.716   4.658  0.0925  0.1969  0.0801
27682W        W42813   5.191  17.722   1.447  0.1134 -0.0827 -0.1338
27683W        W42814  16.880   0.890   2.988 -0.0640  0.0812 -0.0869
27684W        W42815   8.245  12.554  15.720 -0.1995  0.5079 -0.2163
27685W        W42816   2.008  14.296   5.746 -0.0567  0.1727  0.2340
27686W        W42817  11.216   9.171   9.667  0.0709  0.0697  0.0174
27687W        W42818  10.161   4.234   4.782 -0.1195 -0.0855 -0.4147
27688W        W42819  16.928   0.415  15.098 -0.0431 -0.0391  0.2186
27689W        W42820   9.466   5.711   0.208 -0.2388 -0.1106 -0.0039
27690W        W42821   2.098   4.345  15.103 -0.0145 -0.1457  0.1519
27691W        W42822   0.345   1.028  12.604 -0.2190  0.1152  0.1313
27692W        W42823   7.496   7.887   1.286 -0.3698 -0.0211 -0.0421
27693W        W42824  11.040  15.976  12.492  0.4094  0.4314  0.0988
27694W        W42825   3.300   4.413   0.945 -0.0851 -0.1235  0.0157
27695W        W42826  13.630  14.489   3.910 -0.0703 -0.0418  0.0447
27696W        W42827   4.100  11.862  12.172  0.0310 -0.1492 -0.1664
27697W        W42828  18.084   1.135   0.966 -0.3132  0.1068 -0.3267
27698W        W42829   5.772   1.347  12.250 -0.2796  0.0298 -0.1148
27699W        W42830   6.956  15.598   1.958 -0.2437 -0.3924 -0.1165
27700W        W42831  11.091  15.170  12.758  0.1516  0.1966 -0.0336
27701W        W42832  17.399  16.795   1.208 -0.2472 -0.0726  0.3191
27702W        W42833  17.909   9.834   1.411 -0.3499 -0.0379  0.0570
27703W        W42834   4.264  18.079   3.971  0.0393  0.0802  0.1417
27704W        W42835  10.705   4.390   3.561  0.1848 -0.1254 -0.3650
27705W        W42836  10.840  16.614  12.052 -0.1373  0.2301  0.0716
27706W        W42837   1.770   9.955  11.192  0.2185  0.2742 -0.1959
27707W        W42838   0.103   2.693   2.169  0.2179  0.2077  0.0587
27708W        W42839   5.621  14.131   2.867 -0.2218  0.0874 -0.3643
27709W        W42840   1.415  16.843  16.034 -0.0786 -0.0025  0.1089
27710W        W42841  11.387  12.616  14.199  0.1297 -0.3654  0.1169
27711W        W42842   6.860   5.408  12.865 -0.2338 -0.2154 -0.1946
27712W        W42843   9.286   4.740  14.909  0.1703  0.0271  0.2413
27713W        W42844   9.763   8.801  11.276  0.1767 -0.2337  0.1629
27714W        W42845   9.841   1.557   4.009  0.1086 -0.0675 -0.0057
27715W        W42846   7.261  15.902  15.780  0.0122  0.2175  0.2165
27716W        W42847   5.153  17.778   2.611 -0.1199 -0.2365  0.4194
27717W        W42848   2.950   9.523   3.332 -0.0887 -0.1658  0.1867
27718W        W42849   3.092   8.767   2.732 -0.1850  0.2689  0.2128
27719W        W42850   9.453   5.093   5.444 -0.2714  0.1323  0.0249
27720W        W42851   9.361   3.293  13.360  0.0373 -0.1224  0.0186
27721W        W42852   0.592   0.224   5.606  0.1084 -0.0323 -0.3936
27722W        W42853   5.257   0.754   2.296 -0.1374 -0.0745 -0.1733
27723W        W42854   5.805  16.469  11.767 -0.2459 -0.0558 -0.1468
27724W        W42855   4.534   0.385   0.762 -0.1059  0.1036  0.0165
27725W        W42856   5.984  11.587  12.253 -0.0905 -0.4352  0.0331
27726W        W42857   3.861   3.912   3.141  0.0310 -0.0816  0.1144
27727W        W42858   2.330   0.357  11.741  0.0757  0.1152  0.0408
27728W        W42859   2.555   6.647   1.554 -0.2932 -0.2339 -0.1918
27729W        W42860  17.863   5.947  14.199 -0.0017 -0.0864 -0.1383
27730W        W42861  12.862   6.551  16.109  0.0181  0.1229 -0.0045
27731W        W42862   4.268   5.547  12.303 -0.1259  0.3353 -0.2605
27732W        W42863  13.512  13.569   1.138 -0.3983  0.0115 -0.0360
27733W        W42864   4.903  11.966  15.170  0.3133  0.1059 -0.0280
27734W        W42865  10.490   9.434  15.399 -0.0407 -0.1354  0.0242
27735W        W42866   0.967   3.472  15.410 -0.0961 -0.0382  0.2226
27736W        W42867  12.547   6.773  12.480 -0.4569 -0.3247 -0.0109
27737W        W42868   0.626   6.831  13.506  0.1339 -0.2011  0.3185
27738W        W42869  14.490   7.981  12.230  0.1790  0.2546 -0.2641
27739W        W42870   8.625   1.420  12.136 -0.0252  0.0844 -0.2920
27740W        W42871   1.846   6.479   1.999 -0.0390 -0.0042  0.0421
27741W        W42872  16.797  15.428   4.538 -0.0257 -0.1218 -0.1638
27742W        W42873   3.425  13.210  12.913  0.1731 -0.1411 -0.2890
27743W        W42874   1.940  15.888  16.009  0.1465  0.1693  0.1236
27744W        W42875  10.410  14.500  15.235  0.1558  0.1426 -0.1694
27745W        W42876  16.371   4.763   3.693 -0.4164  0.1013  0.1130
27746W        W42877   3.289   6.630   0.830 -0.1171 -0.0086 -0.1223
27747W        W42878  13.754  16.517  13.227  0.0071 -0.0285 -0.0613
27748W        W42879  12.188  15.765   3.558  0.0782 -0.2745 -0.0647
27749W        W42880   7.866   5.495  13.258 -0.4035 -0.1212 -0.2652
27750W        W42881  11.493   0.925   5.634 -0.0753 -0.2681 -0.0133
27751W        W42882   3.538  14.058   3.134  0.2547  0.1418 -0.1483
27752W        W42883  12.856   1.484   1.895 -0.1694 -0.0122 -0.0161
27753W        W42884   5.236   6.438  14.734 -0.0411  0.0897 -0.0888
27754W        W42885  11.298   6.683  11.476  0.1421 -0.1511  0.1102
27755W        W42886  17.761   5.139  14.155 -0.3768 -0.2693 -0.1506
27756W        W42887   3.761  16.869   1.533 -0.0463 -0.1465  0.0781
27757W        W42888   0.071   6.378   2.575 -0.2004  0.0314 -0.0095
27758W        W42889  11.365  15.903   3.928 -0.3975  0.0077  0.1590
27759W        W42890   8.929  14.402  13.163 -0.1662  0.1471 -0.0889
27760W        W42891   4.793  17.385  13.276 -0.0723 -0.5978 -0.1654
27761W        W42892  11.777  11.330  12.106 -0.2602 -0.1650  0.1304
27762W        W42893   9.670   7.674   1.626  0.3331  0.3244 -0.0844
27763W        W42894  11.564  10.273   5.661 -0.2583  0.0595  0.1507
27764W        W42895  17.354  12.011  15.083  0.1073  0.0413  0.0876
27765W        W42896   5.740  13.691   5.177 -0.1880 -0.4211 -0.1020
27766W        W42897   5.327  15.006   2.495  0.0708 -0.2820 -0.3204
27767W        W42898   4.754  17.210   2.837 -0.0036 -0.0859  0.0212
27768W        W42899  15.521   9.442  11.012 -0.0933  0.1229 -0.0338
27769W        W42900  14.307   2.845   3.929 -0.0630 -0.0781  0.4574
27770W        W42901  10.465  17.894   0.465 -0.0003  0.1314 -0.1008
27771W        W42902  15.219   0.745   2.466 -0.4209  0.1010 -0.0254
27772W        W42903  16.023   7.161  14.194 -0.0190  0.0261 -0.0576
27773W        W42904   1.828   1.889   0.725 -0.0068 -0.0709 -0.0482
27774W        W42905   1.447   4.269   1.252 -0.1181 -0.3739 -0.2668
27775W        W42906  16.842  10.968  14.274 -0.1785  0.1450 -0.1063
27776W        W42907   9.584   5.056  14.052 -0.1458  0.5732 -0.2101
27777W        W42908  13.187  10.362   1.203  0.1766  0.0753 -0.3527
27778W        W42909  10.194  12.255   5.443 -0.0260 -0.3494  0.0714
27779W        W42910  10.736  15.106   2.986  0.1743  0.1022 -0.1796
27780W        W42911   9.872   9.288   0.826 -0.3422 -0.3135 -0.0964
27781W        W42912  12.357  10.855   1.412 -0.0877 -0.0437 -0.1515
27782W        W42913   1.860  13.386   2.269 -0.0160 -0.4676 -0.0624
27783W        W42914  10.814  11.601  10.537 -0.1864  0.0474 -0.0852
27784W        W42915   2.242   9.477  12.941 -0.0523  0.0562  0.0628
27785W        W42916   3.546   1.398  12.955  0.1269  0.0255  0.0166
27786W        W42917   8.261   0.332   3.625 -0.0930 -0.1174 -0.0320
27787W        W42918  14.392  15.362   0.396 -0.0541  0.2045  0.2507
27788W        W42919   2.056   6.005  13.954  0.0723  0.2090 -0.0461
27789W        W42920  18.164   0.842  12.502  0.0967  0.2001  0.2834
27790W        W42921  15.136  13.482   1.075  0.1325  0.1072  0.1752
27791W        W42922   0.393  11.819  16.064 -0.0845  0.3630  0.4131
27792W        W42923  14.888   8.319  12.634  0.0998  0.0780  0.0008
27793W        W42924   2.227   7.867  13.677 -0.0058  0.4836  0.0348
27794W        W42925  14.671  14.360  13.444 -0.0512  0.2513 -0.0847
27795W        W42926  13.632  10.396  14.319  0.1824  0.2700  0.4024
27796W        W42927  13.528  17.127  15.496 -0.1128 -0.0755 -0.2642
27797W        W42928   1.193   0.836  12.621  0.0020  0.0575  0.0088
27798W        W42929   6.761   2.047   4.580  0.2630 -0.1828 -0.0388
27799W        W42930  16.066   6.785   5.804  0.3472 -0.0394  0.1547
27800W        W42931   6.035   9.885  11.608  0.2322 -0.0242 -0.3731
27801W        W42932  17.364   1.924  14.008  0.0211 -0.0364  0.2246
27802W        W42933   7.001   6.812  15.850 -0.0174 -0.1836 -0.1293
27803W        W42934   4.807  16.612  14.931 -0.1482  0.2142  0.1180
27804W        W42935   4.464  15.850   4.785 -0.4419 -0.1717  0.2565
27805W        W42936  10.370  13.747  11.045  0.0438  0.1673  0.0489
27806W        W42937   5.321   7.727  14.142  0.1236 -0.0029  0.2765
27807W        W42938  14.252   2.244  14.179 -0.0186 -0.1190 -0.4256
27808W        W42939  11.461   8.978   3.888 -0.1586  0.2380 -0.1758
27809W        W42940  13.126   0.573   2.634  0.2239 -0.1982 -0.3262
27810W        W42941   8.308   4.930  14.594  0.1503  0.0356 -0.3530
27811W        W42942   3.923  15.572   0.191 -0.2829  0.1011 -0.2642
27812W        W42943   8.456   3.922  15.520  0.2255  0.2783  0.2483
27813W        W42944   1.325   6.402   1.880  0.0379 -0.1693 -0.2375
27814W        W42945  16.481  18.106   4.163 -0.4268 -0.1012  0.1497
27815W        W42946  10.681   0.768   2.904  0.2201  0.0979  0.0759
27816W        W42947  13.329   4.706   4.666 -0.0191 -0.1640  0.2561
27817W        W42948   3.520   2.494   4.531  0.0758  0.0659  0.0706
27818W        W42949   2.040   5.754  12.158 -0.0382  0.0920 -0.1376
27819W        W42950   7.439  12.931   1.831 -0.2186 -0.4506 -0.1001
27820W        W42951   9.350  15.153  13.715  0.1217  0.0122 -0.1446
27821W        W42952   7.127   7.519   9.861 -0.1325 -0.1754 -0.0393
27822W        W42953   1.161  11.397   0.447 -0.1340  0.1162  0.0197
27823W        W42954  11.221  13.158   2.916  0.2456  0.1182 -0.1971
27824W        W42955   7.192  16.516  13.062  0.1933 -0.0075 -0.1258
27825W        W42956  10.630   1.559  11.809 -0.2100  0.2537 -0.2134
27826W        W42957   4.601   2.495   5.280 -0.1001  0.2157 -0.0602
27827W        W42958   3.634  10.457   2.711  0.1229 -0.1233  0.0850
27828W        W42959  11.157   4.575  13.374  0.0442  0.2605  0.0970
27829W        W42960  14.247  18.256  15.203 -0.1453 -0.0675 -0.0054
27830W        W42961  12.397   4.716   4.038 -0.3336 -0.0886 -0.2099
27831W        W42962  14.248  15.467  12.297 -0.0260 -0.4061  0.1009
27832W        W42963  11.613   3.019   0.239  0.1837 -0.0947  0.1216
27833W        W42964   1.534   7.173  14.611  0.2569 -0.0281  0.0830
27834W        W42965  14.294  10.675  11.525 -0.0588  0.0934 -0.0729
27835W        W42966   9.946   6.210  14.010  0.2871 -0.2614  0.4141
27836W        W42967   7.841  10.532   3.244 -0.0339 -0.0950 -0.1000
27837W        W42968  12.529   6.396   3.082  0.1410  0.0426  0.0696
27838W        W42969  15.662  12.529  11.562  0.1828 -0.1782 -0.2483
27839W        W42970   3.738  11.734   5.252  0.0320  0.1522 -0.0775
27840W        W42971   0.756  13.185   4.278  0.0587  0.0966  0.1986
27841W        W42972   4.306   3.267  15.019  0.1054  0.3298 -0.2076
27842W        W42973  10.235  17.016   3.392 -0.0470 -0.0596 -0.1714
27843W        W42974   0.118  15.068   1.049 -0.1728  0.3503 -0.0851
27844W        W42975   0.435  17.250  11.781  0.0736  0.3055 -0.1106
27845W        W42976   5.362   1.331   2.689 -0.0844 -0.0466  0.1626
27846W        W42977   7.128  14.915  10.746  0.0213 -0.2076  0.3248
27847W        W42978  11.814  12.681   3.967  0.0256 -0.0035 -0.5361
27848W        W42979  11.311   2.815  13.256  0.1270 -0.0410 -0.0002
27849W        W42980   5.977   4.860  15.194  0.3421  0.0644 -0.1851
27850W        W42981  11.789   2.797  14.025  0.0261 -0.3166 -0.0120
27851W        W42982  10.754   1.211   0.368  0.2417  0.2259  0.2476
27852W        W42983   0.045  11.061   1.373 -0.2672 -0.2872 -0.0571
27853W        W42984  18.189  10.951   3.358  0.2527 -0.2007 -0.0194
27854W        W42985  12.048   3.362   0.589 -0.0200  0.1432 -0.0128
27855W        W42986   6.785   2.106  12.071 -0.0265  0.0075  0.0442
27856W        W42987  17.474   3.171  11.119 -0.2809 -0.0379  0.0418
27857W        W42988  11.237   2.740   3.987  0.0292  0.3623  0.2706
27858W        W42989   5.610  15.983   2.847  0.0972 -0.0969 -0.2660
27859W        W42990  13.971   1.863   1.684 -0.0513  0.1706  0.4105
27860W        W42991   6.218   7.245   2.587 -0.1210  0.0435  0.1995
27861W        W42992   5.178  15.949   2.118 -0.0784 -0.0362 -0.3619
27862W        W42993  15.628   3.216  12.414  0.1451 -0.2564  0.0697
27863W        W42994   2.547   4.434   4.690  0.3013  0.1623 -0.1405
27864W        W42995   2.574   6.084  13.888  0.2872  0.0566 -0.2610
27865W        W42996   6.783   9.953  13.205 -0.1003  0.1668 -0.3816
27866W        W42997  17.216   4.280  12.240 -0.1802  0.0510 -0.3169
27867W        W42998  13.194  11.373   2.346 -0.1880  0.2097 -0.2742
27868W        W42999   9.807  14.884   2.636 -0.0240  0.1967 -0.2208
27869W        W43000   7.551   8.203   0.452 -0.2180 -0.1477 -0.0131
27870W        W43001   3.102  12.209  12.887  0.2037  0.3823 -0.1328
27871W        W43002   5.194   3.271   2.681  0.3257  0.0187 -0.2693
27872W        W43003   8.474   9.073   3.683  0.0058  0.1408 -0.2010
27873W        W43004   3.904   2.495  15.333 -0.0742 -0.1532  0.0708
27874W        W43005   1.119   1.913   4.985 -0.0795  0.2639 -0.0060
27875W        W43006   3.199   9.631   5.343 -0.4168 -0.2681  0.0132
27876W        W43007   1.947   4.430   5.460 -0.2138  0.2315 -0.1541
27877W        W43008   2.996  15.304  11.386 -0.2715  0.0400 -0.1453
27878W        W43009   8.242  10.748  12.444 -0.4789  0.1026 -0.0054
27879W        W43010   0.635   8.316   3.613 -0.1655  0.2407 -0.1467
27880W        W43011   3.710  13.717  14.399 -0.0470  0.0944 -0.0252
27881W        W43012   3.801  15.287   1.318 -0.2689  0.1497 -0.5389
27882W        W43013   0.303   6.010   5.367 -0.0755  0.1925 -0.1804
27883W        W43014  15.991  18.217   1.497 -0.2726  0.0381  0.0354
27884W        W43015  16.917  10.644   3.594 -0.0551  0.1207  0.0789
27885W        W43016  13.915   6.658  15.254  0.0964 -0.0741  0.2206
27886W        W43017  17.317  14.169  15.401 -0.1180  0.1096 -0.0270
27887W        W43018   5.753   5.592   2.631  0.0902 -0.1894  0.2862
27888W        W43019   6.500  16.280  14.786  0.0303  0.0611  0.1610
27889W        W43020   3.629  11.564  13.827 -0.5400 -0.0486 -0.2788
27890W        W43021   3.885  18.216   4.635 -0.0146 -0.1738  0.0164
27891W        W43022  13.531   2.951  11.262  0.4699  0.1928 -0.0905
27892W        W43023  18.063   2.225   1.369 -0.0165  0.1652  0.0367
27893W        W43024   9.021   4.770   3.444 -0.4381  0.2832 -0.0793
27894W        W43025  13.121   5.636   2.585 -0.1406 -0.0104  0.1816
27895W        W43026   9.088   1.071  15.772 -0.0565 -0.1056  0.0418
27896W        W43027  17.090  17.844  12.268 -0.1869  0.1141 -0.0567
27897W        W43028   8.619   6.136  15.444  0.0261  0.0435 -0.1998
27898W        W43029   4.278   1.650  14.698  0.0765  0.5134 -0.2633
27899W        W43030  12.315   4.583  14.378  0.2483 -0.1103 -0.2450
27900W        W43031  13.082   6.157   1.277 -0.0808 -0.1833  0.2624
27901W        W43032   3.395   6.563   9.919 -0.1121  0.0545  0.1040
27902W        W43033   2.205   0.103   0.803  0.2496 -0.0548  0.0427
27903W        W43034  13.032  14.888   4.224  0.2803 -0.1206  0.0376
27904W        W43035  11.597   3.949   5.486  0.0810 -0.1595  0.2282
27905W        W43036  13.185   7.155  15.076  0.1183 -0.0997 -0.2987
27906W        W43037   9.305   3.412  15.900 -0.2265 -0.1229 -0.0650
27907W        W43038  16.158   7.660   5.151 -0.0143 -0.3927  0.0124
27908W        W43039   5.777  11.882   3.939  0.0471 -0.0938  0.2941
27909W        W43040  16.351   1.698   5.051 -0.1311 -0.0016 -0.1368
27910W        W43041   8.567   9.043  11.496  0.1225 -0.0233  0.1511
27911W        W43042  17.194   0.846  11.067 -0.3462 -0.0134  0.1493
27912W        W43043   7.294   6.101   0.735 -0.2691 -0.1765  0.4080
27913W        W43044  12.644  10.507   1.017  0.2994  0.3085 -0.0363
27914W        W43045   6.708   9.015   3.842  0.0972  0.0934 -0.0320
27915W        W43046   1.054   7.399   2.263  0.1806 -0.1775  0.2123
27916W        W43047  12.369  15.855  11.587 -0.0180 -0.0533  0.0249
27917W        W43048  12.510   2.607  13.795  0.1437 -0.1309  0.0665
27918W        W43049  11.266   1.714   1.138 -0.1742  0.0900  0.1977
27919W        W43050   0.652   0.374  11.311 -0.0675 -0.0441  0.2626
27920W        W43051   8.815  15.781  11.785  0.1785  0.2212 -0.2590
27921W        W43052   8.533  10.030  15.113  0.0046  0.0195 -0.1656
27922W        W43053  11.889   3.611  14.702  0.0366 -0.0362  0.1904
27923W        W43054  11.990  11.542   2.043  0.0373 -0.1774 -0.1469
27924W        W43055   0.764   0.578   0.494  0.2186  0.1575 -0.1831
27925W        W43056   5.668  11.339   0.199  0.0212  0.0889  0.1019
27926W        W43057  16.462  12.148   3.200 -0.1948  0.2149 -0.1546
27927W        W43058   9.824   6.192   3.569 -0.1398  0.0839  0.2611
27928W        W43059  14.535   5.874   0.731 -0.2211  0.0167  0.0397
27929W        W43060   9.767   8.199  12.330  0.1463 -0.2517 -0.0127
27930W        W43061   4.084   1.696   4.463  0.0468 -0.0662  0.1681
27931W        W43062   8.652  13.508   3.329  0.0049  0.2298  0.1622
27932W        W43063   2.910   1.280  14.883 -0.2383 -0.2958 -0.2428
27933W        W43064   1.510   6.374   0.210  0.1067 -0.2161  0.1520
27934W        W43065   9.736   1.216  11.244 -0.2960 -0.2868  0.1949
27935W        W43066   3.520   7.552   1.771  0.1610 -0.0392  0.0557
27936W        W43067   7.985  10.859  10.332  0.0089 -0.1516  0.2230
27937W        W43068   5.773  17.214   1.973  0.1258  0.0921 -0.0105
27938W        W43069  13.125  16.126   5.512 -0.0751 -0.1873  0.3320
27939W        W43070  10.196   1.382   3.769 -0.0035  0.0837 -0.2288
27940W        W43071   1.490   5.201  12.453  0.2241  0.3003  0.0576
27941W        W43072   1.235  17.231   4.626 -0.0767  0.2640  0.0628
27942W        W43073   1.377   4.576   3.226  0.0344  0.0188  0.3135
27943W        W43074   5.313   1.549  12.456 -0.0571 -0.3366 -0.1635
27944W        W43075  13.617  12.390   3.694  0.2390 -0.1747 -0.0646
27945W        W43076  16.709   6.760   5.586  0.3518 -0.0653  0.0386
27946W        W43077   5.423  13.289  13.899  0.1902 -0.2619 -0.0149
27947W        W43078  16.219  15.362  12.116  0.1134  0.1255  0.1182
27948W        W43079  17.691   5.208   1.302 -0.3348  0.1179 -0.2809
27949W        W43080  10.643   9.203   1.503 -0.0833  0.0445 -0.5319
27950W        W43081   2.846   2.274   5.389 -0.0192 -0.3605 -0.1341
27951W        W43082   2.101   7.583   5.919  0.0006 -0.2979 -0.2974
27952W        W43083   4.242  10.034  12.601 -0.2638  0.1270 -0.1140
27953W        W43084   2.891   0.872   2.693  0.1744  0.2775  0.1305
27954W        W43085   5.933  15.104  12.875 -0.0581 -0.0277 -0.1134
27955W        W43086  15.990   5.685   2.452  0.0663 -0.1023 -0.0122
27956W        W43087  16.620   4.004  15.791  0.1164  0.0277  0.0002
27957W        W43088   9.015   7.279  15.885  0.1567 -0.2559  0.1813
27958W        W43089   8.969   3.006   2.662  0.1918 -0.1743 -0.5519
27959W        W43090   2.787   5.329   4.362  0.1770  0.1609 -0.2415
27960W        W43091  14.512   8.430  13.585 -0.0831 -0.1365  0.0701
27961W        W43092   1.402  10.069   5.732 -0.0065 -0.1643 -0.3599
27962W        W43093   8.908   6.783   5.061 -0.2092  0.2638 -0.1755
27963W        W43094   9.485  18.028   4.006 -0.1546  0.2625 -0.0827
27964W        W43095   8.368   7.235   2.366  0.1713  0.0412  0.0038
27965W        W43096  13.212   7.937   3.853 -0.0937 -0.0949 -0.1491
27966W        W43097  10.345   2.620   0.497  0.1436 -0.0066  0.0184
27967W        W43098  11.852  10.258  13.448  0.1973  0.1222 -0.1265
27968W        W43099   4.261  11.935   0.128  0.1282 -0.3052 -0.1600
27969W        W43100  16.599  13.770  13.800  0.2347 -0.2618  0.1459
27970W        W43101  17.692  10.920   5.348 -0.0885  0.3521 -0.1710
27971W        W43102   3.613  16.713  14.673  0.3067 -0.0095  0.0531
27972W        W43103   4.099   7.377   1.710  0.0426  0.1085  0.2395
27973W        W43104   5.258   3.029  13.711 -0.1033 -0.2634  0.1821
27974W        W43105   6.576   7.016   2.251  0.0980  0.0069 -0.1275
27975W        W43106  17.448  15.223   0.632  0.1066  0.1306  0.0117
27976W        W43107   2.038   0.705   3.195  0.1453  0.1434 -0.3618
27977W        W43108  16.745  12.380  13.277 -0.0768 -0.0226 -0.3436
27978W        W43109   0.869  13.534  12.920  0.2075 -0.1615  0.1154
27979W        W43110   8.093   3.324   4.014 -0.1277 -0.0695  0.0098
27980W        W43111   8.634   8.457  12.521 -0.0818 -0.0426 -0.2319
27981W        W43112  10.245   3.533   4.505  0.0544 -0.0173  0.3174
27982W        W43113  10.556  18.052  13.405 -0.0858 -0.3157  0.0332
27983W        W43114  13.256   6.378   4.285 -0.2944 -0.0158  0.0937
27984W        W43115  10.135  15.068   5.314  0.0887 -0.0323 -0.0149
27985W        W43116   8.591   5.198   2.168 -0.0236 -0.1018  0.2775
27986W        W43117  11.426   5.386  10.621 -0.1296  0.1407 -0.0741
27987W        W43118  15.423   2.848  11.918  0.4198  0.1548 -0.0892
27988W        W43119   9.575  11.596   4.844 -0.0028 -0.1348 -0.0028
27989W        W43120   2.685   4.654  11.627  0.0324  0.1424  0.0885
27990W        W43121   1.019   6.058  11.307 -0.0833  0.0888  0.1534
27991W        W43122  10.159   9.400  13.795  0.1245  0.0811 -0.1168
27992W        W43123   0.677  16.519  14.038  0.0076  0.1289 -0.3317
27993W        W43124  11.415   1.844  13.778 -0.0205  0.0744 -0.2609
27994W        W43125   0.943   8.524  15.831 -0.1186  0.5844 -0.2404
27995W        W43126  13.391   2.373   2.797 -0.1173 -0.1190 -0.0492
27996W        W43127  15.942   3.755   2.560  0.2351 -0.2462 -0.0548
27997W        W43128   1.368   0.059  12.585  0.3246 -0.1702 -0.0359
27998W        W43129   7.614  18.013   0.636 -0.0326 -0.2263  0.1570
27999W        W43130   0.292  10.440  11.738 -0.0277  0.1996  0.0685
28000W        W43131   1.784   8.700  12.958  0.0095 -0.1115 -0.0178
28001W        W43132   4.053   5.453   4.808  0.0884 -0.1183  0.1883
28002W        W43133  10.817   5.686   4.238  0.4021 -0.1264 -0.1761
28003W        W43134   2.809   0.921  13.115  0.1578 -0.0642  0.0819
28004W        W43135   3.191   6.281   3.800  0.1686 -0.0164 -0.1524
28005W        W43136  14.493   8.343   1.994 -0.3708  0.0068  0.0209
28006W        W43137   4.949  14.604   5.923 -0.0839 -0.1925  0.1724
28007W        W43138  12.052  13.115   4.814 -0.0287 -0.2047 -0.0110
28008W        W43139   0.139   6.516  12.084 -0.2175  0.0101 -0.2527
28009W        W43140   0.454  13.722  10.372  0.0829  0.0349  0.0268
28010W        W43141  16.616  13.840   0.848 -0.3994  0.2557 -0.1790
28011W        W43142  17.757   9.313   3.580  0.2796  0.4151  0.3556
28012W        W43143  18.230   2.865  14.631  0.0822 -0.0184  0.1851
28013W        W43144   5.938  18.066  12.035  0.3971  0.0100 -0.1523
28014W        W43145  16.280   2.916  11.464 -0.4513  0.1798  0.3584
28015W        W43146  10.857  10.308  12.015 -0.0359 -0.2123  0.0204
28016W        W43147  13.352   8.930  14.400 -0.0734 -0.0171 -0.0259
28017W        W43148   3.085   5.648   4.158 -0.3987 -0.0905 -0.1190
28018W        W43149   0.746  18.215  14.335  0.3020  0.0151  0.0415
28019W        W43150  12.724   0.372   3.720  0.2300  0.1710  0.0890
28020W        W43151   4.962  15.151   0.166 -0.5145  0.2345 -0.0755
28021W        W43152  11.005   1.702   2.361  0.0828  0.1973 -0.1586
28022W        W43153   5.830  17.198   1.159  0.3728  0.2351 -0.1614
28023W        W43154   9.513  17.443  12.177  0.1150 -0.1677 -0.3720
28024W        W43155  15.944  10.473  11.838 -0.0680 -0.1125 -0.4096
28025W        W43156   4.872   7.990  13.402 -0.4080  0.2227 -0.1463
28026W        W43157  11.647   7.036   2.807  0.3084  0.4078 -0.2687
28027W        W43158   7.100  13.011  14.421  0.3102  0.0091  0.3916
28028W        W43159  12.890  14.961   0.177  0.0813  0.0260 -0.0087
28029W        W43160  14.443   6.998  11.638 -0.0252  0.0663  0.0532
28030W        W43161   4.358   5.946   4.804  0.0197  0.0983 -0.1136
28031W        W43162   5.579   8.036  15.000 -0.0364 -0.0500  0.0043
28032W        W43163  16.961   2.210  11.795 -0.0026 -0.1046 -0.2113
28033W        W43164   0.514  10.817   0.758 -0.0717  0.0700 -0.0138
28034W        W43165   5.526   1.785  12.853  0.0334  0.4515 -0.3368
28035W        W43166   3.555  12.688   1.027 -0.1542  0.0573 -0.1507
28036W        W43167   2.938   8.418  15.060 -0.0583  0.0480 -0.1926
28037W        W43168  11.800  11.731   2.934  0.1354  0.2570 -0.4166
28038W        W43169   6.548   6.054   5.061  0.1073 -0.0371  0.3941
28039W        W43170   2.654   6.113  10.001 -0.0344 -0.0997  0.2658
28040W        W43171   5.984   0.531  15.839 -0.2746  0.3080  0.0276
28041W        W43172  12.138  13.244   5.863 -0.0914  0.1242 -0.2632
28042W        W43173   9.536  14.358  11.756  0.1920 -0.0767 -0.0711
28043W        W43174  17.155   9.399   0.795 -0.1469  0.0067  0.2011
28044W        W43175   0.743   1.022  15.193 -0.1692  0.0862  0.2331
28045W        W43176   5.896   5.368  14.172 -0.0149  0.4113 -0.0626
28046W        W43177   2.924   9.824   2.723 -0.0154  0.2021  0.1429
28047W        W43178  16.779  17.546  13.248  0.0554  0.0690  0.0158
28048W        W43179  14.095   7.159   0.367 -0.1442  0.4488  0.2119
28049W        W43180  17.894  15.598  13.647 -0.0094 -0.1946  0.1265
28050W        W43181  14.075  13.781  14.963  0.0102 -0.1172 -0.0469
28051W        W43182   1.342  12.636  11.966 -0.0005  0.2426 -0.4240
28052W        W43183   0.550  12.575  15.243 -0.1302  0.0966  0.1041
28053W        W43184   3.762   5.871   4.992 -0.2631  0.0537  0.2565
28054W        W43185   8.816   1.481  13.583  0.1637 -0.0362  0.4069
28055W        W43186   9.455   8.206  15.403 -0.0075  0.0727 -0.1364
28056W        W43187   1.589   1.620   5.818  0.0585  0.0871  0.1508
28057W        W43188  11.809   0.120  14.016 -0.2100 -0.0423  0.1878
28058W        W43189  17.889  13.887  11.895  0.3628  0.1743 -0.2303
28059W        W43190   6.924   5.620  11.368  0.2441 -0.3106 -0.1756
28060W        W43191  16.951   3.353   0.909  0.1046 -0.1693  0.2631
28061W        W43192  15.150   2.350   0.753 -0.0664  0.0420  0.3031
28062W        W43193   2.225   6.081  15.246 -0.3249 -0.0311  0.2082
28063W        W43194   1.022  10.092  12.456  0.1770 -0.4884  0.2349
28064W        W43195   2.733  16.309  11.855  0.1277 -0.1136  0.0577
28065W        W43196  15.786   4.059   4.316 -0.0053 -0.0826  0.0129
28066W        W43197  14.372  10.030  14.452 -0.0383 -0.0442  0.1977
28067W        W43198   6.160   9.222   3.210 -0.0349 -0.3124  0.0224
28068W        W43199   3.567   9.556  14.904  0.0035  0.1438 -0.0589
28069W        W43200   6.838   4.715  13.444  0.1650 -0.0033 -0.0980
28070W        W43201  15.034  13.428   3.920  0.0228 -0.5439  0.1417
28071W        W43202   2.241  10.677   2.350  0.0329  0.1453 -0.0237
28072W        W43203  12.499   4.913  11.524  0.3054  0.0400 -0.2816
28073W        W43204   1.552   6.981   2.201  0.0575 -0.2926  0.0089
28074W        W43205   7.257   3.732   4.203 -0.0597  0.0779  0.0262
28075W        W43206   8.882  12.805   5.672  0.0607  0.0202 -0.0431
28076W        W43207  11.862   0.295  14.610  0.1186 -0.0087  0.2404
28077W        W43208   6.993   8.059  13.168  0.1859 -0.0590  0.0653
28078W        W43209  18.168   7.491   5.425 -0.0460  0.1813 -0.0855
28079W        W43210   9.763  12.712  14.659  0.0477 -0.1530  0.0004
28080W        W43211   6.637  18.070  12.074  0.0605  0.0507 -0.2560
28081W        W43212   7.349   5.284   1.971 -0.1247  0.1042 -0.1033
28082W        W43213  11.789   1.788   1.280  0.1637  0.2156 -0.1573
28083W        W43214   7.346   2.174  14.208 -0.1107 -0.1159  0.3829
28084W        W43215  14.902  11.944   5.902 -0.5384  0.1235  0.1690
28085W        W43216   5.924  18.033   2.975 -0.2108  0.1963  0.3572
28086W        W43217   1.718   9.556   2.805  0.1382  0.0374  0.0772
28087W        W43218   7.345  16.319  13.903  0.1662  0.0388 -0.1675
28088W        W43219   8.030  11.911   4.955 -0.0205  0.1283 -0.0231
28089W        W43220  11.061  17.088   4.512  0.0947  0.0035 -0.0482
28090W        W43221  11.690  10.796  12.150  0.2631 -0.2668  0.0129
28091W        W43222  12.842  17.101  10.725  0.1576  0.2202  0.2805
28092W        W43223  12.489  17.997  13.695  0.4499  0.0511 -0.0688
28093W        W43224   7.392  13.158  13.060  0.0755  0.2458  0.0812
28094W        W43225   2.863  17.912  14.403 -0.0198  0.1998 -0.3422
28095W        W43226   5.650  15.759   6.233 -0.3039 -0.0197  0.1173
28096W        W43227   7.401  13.743   2.935 -0.2134 -0.0440  0.2553
28097W        W43228   1.955  11.878   5.306 -0.1418  0.2043  0.0969
28098W        W43229   9.828   3.775   5.454  0.2470 -0.0264 -0.0615
28099W        W43230  11.687   4.443   5.809 -0.0393 -0.1905  0.1547
28100W        W43231   5.156   9.488  11.571  0.1477  0.0995 -0.1748
28101W        W43232  15.799  17.667  12.808  0.0735 -0.0719  0.1750
28102W        W43233  15.418   5.451   0.513  0.1848 -0.0209 -0.0880
28103W        W43234   2.027   1.397  15.308 -0.2789 -0.0632 -0.0203
28104W        W43235  11.550   8.311   3.826  0.0787 -0.0014 -0.1445
28105W        W43236   4.592   3.137  13.193  0.0061 -0.2312 -0.2820
28106W        W43237  13.881   9.004   0.169 -0.0736  0.1854  0.0523
28107W        W43238   4.263   5.828   5.277  0.3016 -0.1130  0.1035
28108W        W43239   7.892  17.451  12.621 -0.0713  0.3922 -0.1174
28109W        W43240   0.320   1.551   0.457 -0.1118 -0.0487  0.2235
28110W        W43241  15.981   5.833   0.714  0.2134 -0.1629  0.0931
28111W        W43242   9.097   2.111  11.730 -0.1331  0.0902 -0.2700
28112W        W43243   7.365  17.035   0.517 -0.0578  0.0094  0.1509
28113W        W43244  16.280   9.597  15.104  0.0747  0.0383  0.0214
28114W        W43245  15.678  10.044  14.859  0.0853  0.0028 -0.0832
28115W        W43246  14.452  11.616  15.166 -0.1950 -0.1587 -0.0753
28116W        W43247  12.887  13.536   4.555  0.0208 -0.1203 -0.2277
28117W        W43248   0.150   1.940   1.282  0.1145  0.1136  0.0894
28118W        W43249   0.681   5.019  13.347 -0.0385  0.1119 -0.0925
28119W        W43250  11.181  14.129  13.164  0.2060 -0.1244 -0.0032
28120W        W43251  16.349   1.742   5.608 -0.0863 -0.0219 -0.3548
28121W        W43252  10.332   3.581  12.544 -0.3142 -0.3863 -0.4122
28122W        W43253   3.255  11.869  12.540 -0.0031 -0.1986 -0.0090
28123W        W43254   7.671   6.110   1.380 -0.0471 -0.0791  0.1809
28124W        W43255   9.269  11.225   4.517  0.2821 -0.0085  0.1137
28125W        W43256   8.593   6.401   4.874  0.2339  0.0767 -0.0609
28126W        W43257  12.326   9.613   0.366  0.0897  0.0691 -0.0315
28127W        W43258  17.323   1.053   3.158 -0.0905  0.0978 -0.0117
28128W        W43259  15.255   6.204  10.905 -0.3816 -0.2298 -0.2626
28129W        W43260  17.293  10.315   0.666  0.1967  0.0537 -0.0027
28130W        W43261  11.532   8.975  10.918 -0.1270  0.1582 -0.0903
28131W        W43262   8.664   3.364  12.490  0.2777  0.0927  0.0858
28132W        W43263   1.306  10.075   4.964 -0.1396  0.1245  0.5396
28133W        W43264  14.508   1.535   3.604 -0.0269  0.0414 -0.0023
28134W        W43265   5.193   6.505   0.992 -0.1098 -0.2817 -0.0598
28135W        W43266  13.377   0.896  13.207 -0.1873  0.0640  0.1390
28136W        W43267  15.862   4.198   1.934 -0.0602  0.1162  0.2268
28137W        W43268  11.441  12.405  14.723  0.0603  0.4548 -0.0681
28138W        W43269   0.555  10.837  12.035  0.1121  0.0505 -0.1006
28139W        W43270  11.758  10.771   4.619  0.2001 -0.0818  0.4424
28140W        W43271  10.133   9.315   4.414 -0.1878  0.0805  0.2177
28141W        W43272   8.364  15.944  10.930  0.1717  0.2029 -0.1615
28142W        W43273   0.123  15.106   2.075 -0.2060 -0.0159  0.1646
28143W        W43274  14.099   9.026  14.834  0.0824 -0.1424  0.0495
28144W        W43275   7.263  13.916  10.655  0.1471  0.0019  0.2461
28145W        W43276   1.334  16.642  12.258 -0.0089  0.2658 -0.0539
28146W        W43277  16.302  11.309   1.503 -0.2381  0.0771  0.2001
28147W        W43278   3.508   7.198  15.416  0.3171  0.1725  0.2728
28148W        W43279  15.259  16.800   0.821  0.2270 -0.1763 -0.0054
28149W        W43280   4.460   8.035  12.121 -0.3997  0.2769  0.1537
28150W        W43281  12.669  17.041  11.520  0.1774 -0.2387  0.0923
28151W        W43282  17.557  10.693  12.362 -0.0480 -0.3975  0.2094
28152W        W43283   9.302  15.268   4.571 -0.1016 -0.0223  0.2242
28153W        W43284  10.422  15.367  14.545 -0.0073 -0.1495 -0.1343
28154W        W43285  16.733  16.608   2.169 -0.0690 -0.0621 -0.1334
28155W        W43286  10.679   7.471   2.411  0.1621  0.3746  0.2137
28156W        W43287   9.015   7.458   3.526  0.5883 -0.3318 -0.0320
28157W        W43288   2.765  11.547  11.517 -0.0263  0.0345 -0.0530
28158W        W43289   9.616   5.251  11.702  0.1688 -0.2035 -0.1266
28159W        W43290   0.776  12.245   1.158 -0.3088  0.0733 -0.0307
28160W        W43291   2.476   4.906   4.478  0.4608 -0.1969 -0.2707
28161W        W43292  14.774   7.533   4.294  0.1547 -0.1698 -0.0921
28162W        W43293   6.041  12.910  12.725  0.0977  0.2042 -0.0789
28163W        W43294   7.073  15.548  14.883  0.0615  0.2527 -0.0416
28164W        W43295  15.279   2.537   2.703  0.2109 -0.1277  0.0321
28165W        W43296   9.819  17.543  14.746  0.3406  0.0926 -0.0706
28166W        W43297   0.434   7.373  14.465 -0.2775 -0.1996  0.1024
28167W        W43298   5.465  10.703  12.309 -0.0639 -0.1193  0.0317
28168W        W43299  13.441  17.062   1.821  0.6509 -0.1662 -0.2225
28169W        W43300   1.900   6.125  12.674  0.3117  0.2688 -0.2710
28170W        W43301   8.462  15.109  11.161  0.0538 -0.1174  0.0164
28171W        W43302  17.293  10.769   4.536 -0.1205 -0.0228 -0.0197
28172W        W43303  15.843  13.667   2.850 -0.0443  0.4521 -0.3189
28173W        W43304  11.043  14.760  12.346  0.0099  0.2459  0.0163
28174W        W43305   6.666  17.970   5.441 -0.0462 -0.1483  0.1355
28175W        W43306  15.005   5.785  10.936 -0.2278 -0.1486  0.1873
28176W        W43307   1.686   9.661  15.253 -0.1871  0.0076 -0.2613
28177W        W43308   8.975  13.587   5.141 -0.0154 -0.0647 -0.2242
28178W        W43309   7.480  14.203   4.230  0.0613  0.0938 -0.1730
28179W        W43310  11.418   6.057   2.714  0.0583  0.0093 -0.0136
28180W        W43311  17.341   2.041   4.819  0.0238  0.1978 -0.0064
28181W        W43312  10.447   5.740  13.143  0.1679 -0.0155  0.0901
28182W        W43313  17.299   3.667  11.029 -0.2152  0.3175  0.2738
28183W        W43314  15.332   4.953   4.573  0.0823 -0.0424 -0.0830
28184W        W43315   2.784   7.730   0.863 -0.3251 -0.2135  0.4775
28185W        W43316  16.077  15.455   0.955 -0.0697  0.1732 -0.0966
28186W        W43317  17.241  10.862   2.365 -0.0474 -0.0804 -0.0210
28187W        W43318   3.813  15.731  15.408  0.1811  0.2532 -0.2857
28188W        W43319   9.211   1.118  14.113  0.0111 -0.1080  0.1690
28189W        W43320   4.636  18.013  11.911  0.1333 -0.0575  0.2270
28190W        W43321   5.571   4.948  13.389 -0.0126  0.0359 -0.1204
28191W        W43322   5.866   5.089  12.360  0.1326  0.3084  0.3278
28192W        W43323   0.982  12.965   5.537 -0.3177  0.1295  0.0902
28193W        W43324  11.592  18.253   1.146 -0.0375 -0.0549 -0.1040
28194W        W43325   9.779   4.275  14.814  0.0178 -0.0062  0.1799
28195W        W43326  17.460   6.622   2.406  0.3240  0.3243 -0.1914
28196W        W43327   4.721  11.216  11.895 -0.4583 -0.0178 -0.0578
28197W        W43328   7.547  15.458  12.959  0.2084 -0.4075 -0.0878
28198W        W43329   6.196  11.703  13.651  0.2190  0.3086  0.1912
28199W        W43330   2.912  10.050   3.269  0.2241 -0.0200  0.0449
28200W        W43331   7.295   6.706   2.007  0.0501  0.1215 -0.2838
28201W        W43332  10.184  18.158   1.692 -0.1550 -0.1743  0.1785
28202W        W43333   1.239   1.050  16.003 -0.0405 -0.2985 -0.2716
28203W        W43334   5.365  13.730   2.888  0.1163 -0.2400  0.1547
28204W        W43335   6.696   8.926  13.189 -0.1056  0.0544  0.2570
28205W        W43336  10.280   8.001   0.541 -0.1120 -0.0246 -0.2975
28206W        W43337  12.631   3.987  14.744  0.2315 -0.0288 -0.0962
28207W        W43338   0.511  18.046   4.356  0.0063 -0.2442 -0.0751
28208W        W43339   6.408   8.818   0.164 -0.0245  0.1022 -0.0118
28209W        W43340   4.242   1.333   1.857  0.0851 -0.2851  0.2876
28210W        W43341   8.496  10.388  12.130  0.3324  0.1107 -0.3064
28211W        W43342  13.262   3.662  14.329  0.0115  0.2186 -0.1974
28212W        W43343  18.158   3.192  11.782  0.0228  0.0088  0.0324
28213W        W43344   2.099  11.354   3.006  0.0364  0.0718 -0.1076
28214W        W43345  15.297   1.886   3.931 -0.1425  0.0446  0.0851
28215W        W43346   2.284   3.733   3.844  0.0254 -0.2028  0.1592
28216W        W43347  14.325   6.391   2.057 -0.0246 -0.0199 -0.0227
28217W        W43348   5.663  15.567   3.179 -0.2044  0.0716 -0.1770
28218W        W43349  13.564   1.311   1.041  0.1867 -0.0129 -0.1309
28219W        W43350  10.476  13.494  14.635  0.0657  0.0647 -0.0931
28220W        W43351  10.641   8.995  13.295  0.0049 -0.1613  0.1733
28221W        W43352  14.984   3.869   1.301  0.2526  0.2377 -0.4593
28222W        W43353   6.345   1.907   3.050  0.1230 -0.1268 -0.1572
28223W        W43354   8.951   7.599   4.030  0.1300 -0.0474  0.1834
28224W        W43355   8.147   2.347   1.726 -0.4527 -0.0917 -0.0158
28225W        W43356   0.511  12.630   4.368  0.0690  0.1091  0.0860
28226W        W43357   1.161  15.231  15.480  0.0790  0.0850  0.1865
28227W        W43358   7.566  13.238   3.908 -0.1282  0.0639  0.1670
28228W        W43359   0.753  15.881  14.788  0.1820 -0.0211 -0.0407
28229W        W43360  13.529   5.809   0.548  0.0167 -0.1481  0.3782
28230W        W43361  16.801   4.152   2.992 -0.3879 -0.1426  0.2371
28231W        W43362   1.276   4.499   5.667 -0.0252 -0.0373 -0.2034
28232W        W43363   1.693   3.880  12.507  0.2509 -0.0276 -0.0824
28233W        W43364   0.068   0.394   2.336 -0.4030 -0.1445  0.0021
28234W        W43365  16.800   1.171  11.144 -0.1831  0.1294  0.2352
28235W        W43366  18.292  14.415  11.485 -0.2669  0.0934  0.2443
28236W        W43367   4.906  11.786   2.241 -0.0816 -0.0158 -0.0055
28237W        W43368  17.824   3.779   4.753 -0.3819 -0.3652 -0.1945
28238W        W43369  13.495  12.339   0.706  0.1036 -0.2684  0.1993
28239W        W43370   7.160  18.014  15.803 -0.1946  0.3069 -0.0716
28240W        W43371  11.205  17.055  14.535 -0.1352 -0.0372 -0.0765
28241W        W43372   4.633   2.889   3.962 -0.0055 -0.0867  0.1736
28242W        W43373   6.429   0.597   5.545 -0.2657  0.0631  0.1265
28243W        W43374   5.649   8.734   3.927  0.1716 -0.0706 -0.1652
28244W        W43375  12.947  11.889   3.154 -0.1875 -0.2660 -0.2867
28245W        W43376   5.058  11.925  11.778  0.1797  0.0407  0.0667
28246W        W43377  14.283   9.800  11.905  0.0094 -0.4450  0.1673
28247W        W43378   4.191  11.248   3.370 -0.1661 -0.3166  0.1591
28248W        W43379  14.728   3.858  14.715 -0.3227 -0.1762 -0.0900
28249W        W43380  16.634  15.412   2.326 -0.0808  0.0284  0.1624
28250W        W43381  12.899  16.823   3.407 -0.0326 -0.1404 -0.0036
28251W        W43382   4.029  12.791  15.468  0.0415  0.0420  0.2306
28252W        W43383   8.468   1.923   4.856  0.0305  0.0160  0.0097
28253W        W43384  14.586   9.906   4.589 -0.1819  0.2091  0.2086
28254W        W43385   9.033   5.688   4.255  0.1910  0.1733 -0.0430
28255W        W43386   3.398   9.922   4.357 -0.1181  0.0010  0.2071
28256W        W43387  13.946   6.470  13.258 -0.0151 -0.1899 -0.2119
28257W        W43388   5.848   0.174  12.395 -0.1555 -0.1427  0.0334
28258W        W43389  15.525   1.957  14.461  0.0013 -0.1843 -0.0446
28259W        W43390   0.192  11.733   5.978  0.0322  0.1095 -0.3589
28260W        W43391  13.279  11.285   1.718 -0.1181  0.1205  0.1736
28261W        W43392  16.837   7.748  14.600  0.1949 -0.1601 -0.3837
28262W        W43393   9.175   7.283   1.903  0.2412  0.2292 -0.2077
28263W        W43394  15.420  16.108   4.375 -0.1928  0.3827  0.0159
28264W        W43395   6.287   9.316   2.024  0.1694 -0.0416  0.0815
28265W        W43396   9.178  15.860   5.922 -0.1260 -0.0444  0.1705
28266W        W43397   0.520   3.720  13.080  0.1765  0.1362  0.0893
28267W        W43398  17.435   3.442  13.404 -0.2784  0.0934 -0.0322
28268W        W43399   7.622  16.586  12.844 -0.2547 -0.0537  0.2710
28269W        W43400   7.726   8.967   4.198  0.1637 -0.2823  0.2382
28270W        W43401   6.717   1.938   0.838 -0.0637 -0.2111 -0.1609
28271W        W43402   2.571   6.532  13.654  0.0076 -0.2184 -0.3006
28272W        W43403   1.933   5.293  12.250  0.0590  0.1204 -0.2326
28273W        W43404  15.231  12.610  13.953  0.0120 -0.3501  0.1126
28274W        W43405   2.430   1.798   2.549 -0.4446 -0.3259  0.0814
28275W        W43406   6.288   8.681   3.037  0.1513 -0.1605 -0.1169
28276W        W43407   6.692   3.263   2.341 -0.1628  0.1692  0.2213
28277W        W43408   7.505  17.413   5.523 -0.0048  0.1468  0.2411
28278W        W43409   4.146   8.049   9.817  0.1868  0.2554 -0.1315
28279W        W43410  14.475  10.253  11.689  0.1169  0.0196  0.1353
28280W        W43411   4.279  11.260  14.611  0.2543 -0.2850  0.0589
28281W        W43412   9.179  13.236   0.101 -0.2130 -0.2174 -0.0231
28282W        W43413  16.202   8.941   3.244  0.2058 -0.4144 -0.1261
28283W        W43414  10.166  11.016   3.071  0.0629 -0.0594 -0.3912
28284W        W43415  10.183  18.281   0.564  0.1364  0.0414 -0.0062
28285W        W43416  17.487  10.514  13.832  0.1498 -0.2228 -0.2121
28286W        W43417  13.869  13.661  13.881 -0.2176 -0.1642  0.0896
28287W        W43418  12.105   7.035  13.310  0.3316  0.1243 -0.2512
28288W        W43419  17.591  14.402  11.114  0.0898  0.0347  0.2051
28289W        W43420  17.024  17.270   2.784  0.0364 -0.0272 -0.2783
28290W        W43421  16.698  14.711  15.892 -0.0518  0.2099  0.0960
28291W        W43422  14.120   3.264  15.488  0.0359  0.0857  0.1834
28292W        W43423  10.547  10.482  14.486  0.2459  0.0425 -0.0740
28293W        W43424  16.445  12.129  16.088  0.2416 -0.0317 -0.1049
28294W        W43425   1.361  12.080  11.212 -0.0085 -0.0820 -0.0005
28295W        W43426  16.927   7.192  15.622 -0.1133 -0.1080  0.1638
28296W        W43427   0.630   6.443  12.573 -0.2100  0.3323  0.2059
28297W        W43428   5.884   6.529   3.142  0.5087  0.1354 -0.0725
28298W        W43429   6.176  12.538  11.821  0.1524 -0.1248  0.2664
28299W        W43430  17.480   1.377   3.506 -0.1330  0.1927  0.4067
28300W        W43431  12.909   6.302  11.140 -0.2291 -0.1464  0.0385
28301W        W43432  17.769   8.953   1.820 -0.1418 -0.2694  0.1205
28302W        W43433   4.435   8.767   2.719 -0.2771  0.0277  0.0014
28303W        W43434   2.758  10.685   2.312  0.1653  0.2403  0.1622
28304W        W43435   8.411   4.779   3.321  0.0855  0.0040 -0.2597
28305W        W43436  17.188   5.148  15.882  0.0828 -0.1103 -0.0435
28306W        W43437   6.117  17.636  11.009  0.2023 -0.2673 -0.1653
28307W        W43438   0.185  17.022   0.063 -0.0089 -0.2522  0.1005
28308W        W43439   7.632  11.213  14.725  0.0163 -0.0907 -0.3547
28309W        W43440   4.241  16.538  15.425  0.0134 -0.4729  0.0250
28310W        W43441  12.850  15.325  12.031 -0.1030 -0.1611 -0.0955
28311W        W43442  11.509   9.303   5.723 -0.1142 -0.1374  0.1801
28312W        W43443  11.202   0.022  12.851 -0.0115  0.1287 -0.1696
28313W        W43444   8.362  13.864  15.538  0.2870 -0.0178 -0.0005
28314W        W43445   6.519   3.766   2.283 -0.2002 -0.3866  0.1885
28315W        W43446   0.322   3.660   0.932  0.1918 -0.0791  0.0676
28316W        W43447   1.763  16.366  13.894 -0.1971 -0.0290  0.1490
28317W        W43448   9.738   3.314   5.639  0.1448  0.0870 -0.3151
28318W        W43449  15.897   6.263   3.995 -0.3085  0.0375  0.0482
28319W        W43450   9.418  10.751   2.999 -0.0239 -0.1203  0.1647
28320W        W43451   8.931   8.038   0.427 -0.1571 -0.0418 -0.2991
28321W        W43452  15.807  11.739  13.888 -0.1225 -0.2883  0.0637
28322W        W43453  10.827  17.447   3.999  0.2362 -0.1044 -0.3439
28323W        W43454   7.626   0.811   0.924 -0.0897  0.3105  0.1899
28324W        W43455  11.623  15.579   0.575  0.1929 -0.2452  0.1019
28325W        W43456   8.334  16.876   1.749 -0.3873  0.1343 -0.0920
28326W        W43457  15.125  11.833   1.052 -0.1045  0.3362  0.1795
28327W        W43458   2.243   7.727   2.826  0.2550  0.0492 -0.2762
28328W        W43459  12.425   7.216  12.883 -0.0916 -0.1869 -0.4890
28329W        W43460   1.848   7.292   3.022 -0.0116  0.2033  0.0826
28330W        W43461  16.456  14.343   2.449  0.1662 -0.2490 -0.0165
28331W        W43462   2.861  14.694   3.691  0.2069  0.0551  0.1546
28332W        W43463   7.050   2.178   3.704  0.0463  0.2711 -0.3612
28333W        W43464  13.173   6.805  12.123  0.0163  0.1907  0.3141
28334W        W43465   7.862   9.884   4.117  0.0436  0.0764  0.1177
28335W        W43466  16.320  16.868   3.469  0.0290 -0.2198 -0.2047
28336W        W43467   1.609  10.217  11.667  0.0058 -0.0179  0.0451
28337W        W43468  15.579   6.359   4.930  0.2068  0.0631  0.0144
28338W        W43469  16.819   1.465  13.596  0.4069  0.1235  0.0556
28339W        W43470  16.318   6.614  13.707 -0.0489  0.1194  0.3047
28340W        W43471  14.577  10.097  11.143  0.3380  0.0440 -0.0229
28341W        W43472  10.244   4.975   5.309 -0.2581 -0.1210 -0.0915
28342W        W43473  13.394  11.390   4.924  0.0096 -0.1382 -0.0779
28343W        W43474   4.928   2.703   2.166 -0.1057 -0.1450  0.0858
28344W        W43475  16.627  17.455   3.064 -0.1387  0.3833 -0.0186
28345W        W43476   5.410  16.947   5.237 -0.3016  0.0063  0.1305
28346W        W43477   3.212   5.136  10.975 -0.0099 -0.1390 -0.3017
28347W        W43478  12.979   3.337   2.001  0.0633  0.1020  0.1134
28348W        W43479   0.062  16.118   5.966  0.1182  0.0993 -0.0862
28349W        W43480  14.840   1.956   4.852 -0.1423 -0.2530  0.0308
28350W        W43481  11.441  11.074   0.780  0.0127  0.0189  0.1125
28351W        W43482  18.075   4.803   2.995 -0.1858  0.1710  0.0072
28352W        W43483   5.530  10.856   3.044 -0.0370 -0.1460  0.3068
28353W        W43484  12.535  13.975  12.106  0.1669  0.1280  0.0130
28354W        W43485  12.057  12.893   1.441  0.0679  0.0332  0.0403
28355W        W43486   2.009   1.807   5.092 -0.2106 -0.1981  0.1210
28356W        W43487   0.789   8.627  10.973 -0.3180 -0.1055 -0.1363
28357W        W43488   0.534  16.029  11.599  0.0084 -0.0881 -0.1355
28358W        W43489  10.279   0.498   0.865  0.1642 -0.0731  0.2134
28359W        W43490   7.073  10.217   3.545  0.2426 -0.1347  0.0425
28360W        W43491   9.981  14.280  12.026 -0.0102  0.0616 -0.1455
28361W        W43492  13.225  13.664   4.152 -0.0239  0.1346 -0.0168
28362W        W43493  16.664  13.438   2.707  0.0271 -0.0723  0.0006
28363W        W43494   3.136  10.579   2.682  0.3237  0.0533 -0.1168
28364W        W43495   2.222  11.466   5.120 -0.1736 -0.0993  0.0533
28365W        W43496  16.168  12.036   0.899 -0.6696  0.2823 -0.0400
28366W        W43497  14.464   6.221   1.567  0.0471 -0.3577  0.1980
28367W        W43498  12.503   2.298  14.647 -0.0506  0.1318  0.0581
28368W        W43499   6.774   4.040   3.436  0.0403  0.0053  0.2152
28369W        W43500   2.850  17.331   0.596 -0.1281 -0.2138  0.1144
28370W        W43501  12.380   6.061  10.933  0.2416 -0.4148 -0.0706
28371W        W43502   3.553  18.314  11.148  0.1774  0.0965  0.1337
28372W        W43503  14.207  17.139   0.517  0.0115  0.0165  0.0268
28373W        W43504   9.676   8.602  12.684  0.0160  0.1387 -0.0362
28374W        W43505   2.885   1.686   1.972  0.3190 -0.3060  0.3687
28375W        W43506   2.663   7.879  13.925  0.2110  0.1732 -0.0140
28376W        W43507  10.912  10.782  11.135 -0.1785 -0.1844  0.0586
28377W        W43508   4.372   5.957  11.441 -0.1175 -0.0874  0.0174
28378W        W43509  17.019  16.873  15.435 -0.1494  0.1101  0.1454
28379W        W43510   9.283   8.880  11.185 -0.2453  0.3756  0.1736
28380W        W43511  10.350   3.109  13.382 -0.2541  0.5023 -0.0384
28381W        W43512   7.483  17.031  13.012 -0.1415  0.1775 -0.3417
28382W        W43513   9.783  13.044   4.441 -0.0840  0.0691  0.1215
28383W        W43514   3.532   9.530   4.081 -0.1629 -0.2096 -0.1079
28384W        W43515   3.761  10.368   5.951 -0.0296  0.0539  0.4242
28385W        W43516   6.632   9.918  11.695 -0.1465 -0.1998 -0.2482
28386W        W43517  15.044   7.766   5.151  0.0852 -0.0957  0.1124
28387W        W43518  10.322   9.828   3.507  0.1405  0.0916 -0.2555
28388W        W43519   9.711  13.331   0.175 -0.1027 -0.1954  0.0936
28389W        W43520  14.275  13.108  14.208 -0.1999 -0.0004 -0.0674
28390W        W43521   4.663  11.718  11.907  0.2760  0.4682 -0.1639
28391W        W43522   0.154   6.334  14.255 -0.2909  0.2379 -0.0419
28392W        W43523   8.188  12.459   4.307  0.2527 -0.0293 -0.0062
28393W        W43524  17.835   3.538  11.705 -0.0430  0.2260 -0.0388
28394W        W43525   9.354   9.174  15.804  0.3512 -0.1795 -0.0680
28395W        W43526   9.561   9.922   3.056  0.1685  0.1933  0.0416
28396W        W43527   9.587  15.909  13.866 -0.2463  0.2014 -0.3864
28397W        W43528  18.117   1.224  14.083 -0.1359 -0.0840  0.1773
28398W        W43529  12.095   6.998   1.204 -0.2745  0.1276 -0.2676
28399W        W43530  18.148   4.739  11.425  0.0051  0.0328  0.1389
28400W        W43531   0.566  12.116   0.728 -0.1398  0.1262 -0.1111
28401W        W43532  10.970  17.047  12.379 -0.2400  0.1748  0.2064
28402W        W43533   2.730  10.715  12.488  0.1412  0.0527  0.2117
28403W        W43534   2.704   0.995  15.774 -0.1153 -0.0902 -0.7741
28404W        W43535  15.419   3.700  13.952 -0.0010 -0.1168 -0.0700
28405W        W43536   6.663   1.212  15.771 -0.1461  0.3126  0.0222
28406W        W43537   8.280   6.475  16.045 -0.0076 -0.3125  0.2098
28407W        W43538   2.927   6.645  14.786  0.1456 -0.0509  0.0022
28408W        W43539  15.192   5.423   2.045  0.1539 -0.0186  0.1217
28409W        W43540   8.649  16.341  11.821 -0.1424 -0.2084  0.0640
28410W        W43541   2.911  11.965   0.182  0.1193 -0.1486 -0.2543
28411W        W43542   2.564   2.182  14.528  0.1551  0.0788 -0.2107
28412W        W43543  13.309  10.757  11.222  0.1765 -0.4402 -0.0147
28413W        W43544  16.145   4.745   4.764  0.2417 -0.0440  0.1689
28414W        W43545   0.945   8.749  11.442 -0.0447 -0.0897  0.3133
28415W        W43546   0.995   3.469  10.939  0.0153 -0.1033  0.1530
28416W        W43547   7.986   2.759   5.301 -0.0502  0.0442 -0.0148
28417W        W43548   8.146  14.526  14.369  0.0665 -0.0277 -0.2212
28418W        W43549  11.031   9.031   5.667 -0.0364  0.0016  0.2201
28419W        W43550   3.203   8.794  15.657 -0.1122  0.0636 -0.0506
28420W        W43551   4.244   5.942  13.270 -0.3269  0.0066 -0.2275
28421W        W43552  15.337   3.306  11.698  0.0186  0.0545 -0.2898
28422W        W43553   9.052  13.214  12.234  0.1178  0.0714 -0.3065
28423W        W43554  18.090   1.580   4.099 -0.1338  0.0059  0.2298
28424W        W43555   8.845   3.298  13.779 -0.1640 -0.1102  0.1297
28425W        W43556  12.578   3.233  15.022 -0.1342 -0.1886 -0.0660
28426W        W43557  13.014  13.667   0.732  0.0116 -0.2014  0.1276
28427W        W43558   3.203   3.750   3.542 -0.1642 -0.0020 -0.0775
28428W        W43559   6.093   8.332  12.898  0.4179 -0.1741 -0.0009
28429W        W43560  15.218   5.958   1.899 -0.4324  0.2848 -0.2177
28430W        W43561  16.918   6.782   2.438 -0.0567  0.0539 -0.0923
28431W        W43562  10.358  18.015   5.224 -0.0613  0.2390  0.0210
28432W        W43563   9.547  14.162  12.374 -0.3471  0.1633 -0.1777
28433W        W43564   7.394  16.866   4.390 -0.3387 -0.1420  0.0474
28434W        W43565   4.841  11.935   4.321 -0.0099 -0.2514  0.0974
28435W        W43566   2.451   0.349   1.391  0.3278  0.0376 -0.2133
28436W        W43567   4.046  13.648  15.785 -0.0659 -0.1242 -0.2776
28437W        W43568  11.689   6.043   1.182 -0.1714 -0.3955  0.0453
28438W        W43569   6.339   1.670   1.659  0.0937  0.1978 -0.0510
28439W        W43570  10.789   4.722   3.069  0.1858 -0.0497  0.0222
28440W        W43571  13.290   4.528  12.328  0.0912 -0.2295  0.1260
28441W        W43572   6.467   8.398  13.386 -0.0286 -0.0302  0.2876
28442W        W43573   1.175  12.844   1.677 -0.2430 -0.0051 -0.1174
28443W        W43574  16.559   9.735   1.922  0.0639 -0.1402  0.0586
28444W        W43575   9.100  15.828  15.334 -0.1511 -0.0110  0.1269
28445W        W43576   5.825  15.153  10.067  0.3084 -0.1509  0.0326
28446W        W43577   8.882   1.453  14.889  0.2242 -0.0178 -0.0480
28447W        W43578  13.615  10.803   4.021 -0.2027 -0.0424 -0.1145
28448W        W43579   6.261  16.502  12.490  0.0519 -0.3009 -0.0055
28449W        W43580   1.531   5.068  13.832  0.0346 -0.1843  0.1998
28450W        W43581  14.086   8.501   0.884 -0.2281 -0.0292  0.0024
28451W        W43582  12.954  13.683   2.031 -0.0433 -0.1872 -0.0826
28452W        W43583   9.905  14.301  15.263  0.2684  0.1064 -0.0066
28453W        W43584  10.108  11.202  10.054  0.1181 -0.2156 -0.1004
28454W        W43585   3.079   7.131  11.512  0.2199  0.0220  0.4117
28455W        W43586   6.401  12.207  12.802 -0.0950 -0.0620  0.1615
28456W        W43587   0.598   0.564  15.743  0.1725 -0.2815 -0.1297
28457W        W43588  14.819  11.788   2.291  0.2066  0.3421  0.0566
28458W        W43589   1.628  13.423  14.610 -0.2806 -0.0098  0.0985
28459W        W43590  14.842  16.627   0.480 -0.0446  0.1613  0.0865
28460W        W43591   5.200  17.469   5.006  0.0475 -0.3528 -0.1929
28461W        W43592   6.175   2.834  14.613 -0.3417  0.0350  0.1591
28462W        W43593  15.673  14.183   2.125 -0.2940  0.1713  0.1674
28463W        W43594   0.453   3.156  12.013  0.1684  0.0806  0.5106
28464W        W43595   6.713   2.997   1.917  0.0315  0.4345 -0.1169
28465W        W43596   0.627  10.177  13.649  0.1170 -0.0242  0.3613
28466W        W43597  10.968   7.889  16.004 -0.2598 -0.3999  0.0426
28467W        W43598  11.068   4.740  16.104  0.1151 -0.0982  0.2996
28468W        W43599  15.526   2.542   0.988 -0.0771  0.0743  0.0970
28469W        W43600  10.377   1.692  14.718  0.0416 -0.0474 -0.3620
28470W        W43601  10.756  10.634  12.408 -0.2655  0.0666  0.0760
28471W        W43602  16.640  14.762   4.000  0.2142  0.1398 -0.0423
28472W        W43603   0.187  15.401  15.265 -0.0118 -0.1837 -0.0051
28473W        W43604  15.222   1.415  12.049 -0.0790 -0.1248  0.1048
28474W        W43605  18.208  10.065   0.484  0.3169 -0.2476  0.3206
28475W        W43606   8.976   8.574   0.364  0.2484 -0.0988  0.1577
28476W        W43607   2.404   4.430  11.935 -0.1538  0.0479 -0.1588
28477W        W43608   8.105  15.729  15.535  0.1812 -0.0527  0.0306
28478W        W43609   1.506   2.055   1.656  0.2573  0.0552 -0.0555
28479W        W43610  15.922   5.564  15.667 -0.0171  0.3198 -0.4911
28480W        W43611   2.283   4.883   2.155 -0.1053  0.0844 -0.3269
28481W        W43612  16.416   1.249   6.103 -0.0725  0.1199  0.0164
28482W        W43613   9.021  17.626   1.958  0.0580  0.2965 -0.4993
28483W        W43614  13.289  14.639  13.269  0.0902  0.0046 -0.2319
28484W        W43615  18.192   9.657   2.130 -0.0392  0.0195 -0.1872
28485W        W43616   0.753   4.406  15.686 -0.0037 -0.1949  0.2329
28486W        W43617   8.347  17.748   5.990  0.0452 -0.1464 -0.0508
28487W        W43618   5.912   7.088   5.382  0.2368  0.1725 -0.0971
28488W        W43619  13.043  10.389   0.735 -0.2381  0.1048  0.0484
28489W        W43620  11.874   5.036   4.517  0.0133 -0.0265  0.0267
28490W        W43621   4.811   5.287   0.139 -0.3820 -0.2921  0.0875
28491W        W43622  17.076  16.729  12.580  0.0111 -0.1093  0.1768
28492W        W43623   9.255   5.560   3.743  0.2855  0.2757 -0.1891
28493W        W43624   0.136   1.532   0.992 -0.1263  0.2553 -0.1143
28494W        W43625   5.510   5.450  13.139 -0.1180 -0.0297 -0.0766
28495W        W43626  15.163   2.730  15.647 -0.4715  0.0902 -0.1445
28496W        W43627   6.103   6.602  10.872  0.0169 -0.0115  0.1728
28497W        W43628   5.409   7.352   4.171 -0.0589  0.0858 -0.0392
28498W        W43629  17.058   4.199   0.306  0.2744 -0.0962  0.2376
28499W        W43630   6.107   6.048   3.999  0.0528 -0.1731 -0.0629
28500W        W43631   1.151  15.189   0.905  0.1618 -0.0291 -0.4971
28501W        W43632  13.268  11.179   1.243 -0.0824 -0.1481  0.1612
28502W        W43633   5.898  11.272  14.864  0.0734 -0.0658  0.0127
28503W        W43634   5.034  12.173   2.867  0.1573 -0.0770  0.0714
28504W        W43635   0.848   7.355  12.309  0.0847 -0.2112  0.2663
28505W        W43636   6.758  15.914  15.026 -0.2290  0.4328 -0.1862
28506W        W43637   7.739   2.120   2.689  0.0024  0.2321  0.0459
28507W        W43638   6.833   8.377   1.670 -0.0806 -0.1992  0.2261
28508W        W43639   1.891  14.610   6.293 -0.1080 -0.2234  0.0638
28509W        W43640   5.671   6.120   5.666  0.0524  0.0398  0.0639
28510W        W43641   2.416  11.728  12.783 -0.0125  0.0267  0.0930
28511W        W43642   4.444  10.112   0.149 -0.0616  0.4080  0.4299
28512W        W43643  17.763   0.017  10.833  0.0742 -0.2285 -0.2960
28513W        W43644  14.438  12.956   2.972  0.1086 -0.0457  0.0513
28514W        W43645  15.164   1.494  15.043  0.1912  0.0053 -0.2649
28515W        W43646   6.790  14.268  14.776 -0.0525 -0.1956 -0.1007
28516W        W43647   4.242   4.210   1.157  0.1838  0.1324 -0.0215
28517W        W43648   8.661   1.026  16.066 -0.1146  0.0557  0.1460
28518W        W43649   7.684   7.675   1.650  0.0184  0.0850 -0.0943
28519W        W43650  16.642  16.873  12.364 -0.1182  0.0273 -0.2450
28520W        W43651  14.837  14.673  10.269  0.0697  0.0795  0.0735
28521W        W43652   5.430   5.053  14.019  0.1772 -0.1000  0.0513
28522W        W43653   2.963  13.401   5.076  0.2920  0.1653 -0.2364
28523W        W43654  12.635  17.351  15.380 -0.0348  0.0167  0.2190
28524W        W43655  13.761  12.534   2.477  0.0085 -0.1572 -0.0420
28525W        W43656  11.828   3.230  13.300 -0.1862 -0.0440 -0.0467
28526W        W43657  15.453   5.813   2.424 -0.2296  0.1618 -0.0511
28527W        W43658  11.194  13.949   4.949  0.4011 -0.0365  0.2303
28528W        W43659   9.811   6.025   0.837 -0.0440  0.2849  0.0239
28529W        W43660   9.965   5.479   4.291  0.0950 -0.1385  0.2305
28530W        W43661  16.002   0.634  16.045 -0.0474  0.3855  0.1983
28531W        W43662   7.164   4.309  13.315  0.0959 -0.2440  0.0825
28532W        W43663  10.920   7.598   2.869  0.1265 -0.0462 -0.1712
28533W        W43664  18.279  10.297   2.185 -0.1789 -0.0107 -0.0166
28534W        W43665  15.680  11.354  11.526 -0.0624 -0.1342  0.0442
28535W        W43666   8.843  16.364   1.091  0.0389 -0.2319  0.0955
28536W        W43667  16.266  10.787   9.627 -0.1474  0.1055 -0.1675
28537W        W43668   6.131   4.560  13.722  0.0993 -0.0707  0.2163
28538W        W43669   0.688   4.961  11.046 -0.2006  0.0300  0.1514
28539W        W43670   1.860  17.924   2.667  0.1054 -0.3351 -0.2301
28540W        W43671  11.462  15.180   1.183  0.0469  0.0681  0.3938
28541W        W43672   1.668   2.353   4.536  0.1790 -0.0944  0.1997
28542W        W43673   3.378   0.271  15.605 -0.0089 -0.0508  0.0838
28543W        W43674   2.336   8.242   2.991 -0.2494 -0.2216 -0.1758
28544W        W43675   4.223   6.275  14.778 -0.1401  0.1695  0.0065
28545W        W43676   2.368   7.242  13.267  0.2839 -0.2993  0.0567
28546W        W43677   1.231  13.577   1.021  0.0059  0.4302 -0.0504
28547W        W43678   2.757  15.773  13.184  0.1333  0.1961 -0.0708
28548W        W43679   0.515   4.681   5.204 -0.0371  0.0923  0.0179
28549W        W43680   7.175   2.825  12.543  0.0394  0.2341 -0.1844
28550W        W43681  11.034  12.573  11.114 -0.0647 -0.1824 -0.0394
28551W        W43682  11.215   3.696   0.289  0.0929  0.1259  0.1875
28552W        W43683   1.879  16.108   6.199 -0.0456  0.0455 -0.3690
28553W        W43684  13.981  12.802  10.651  0.0565  0.2389  0.0616
28554W        W43685  11.176  17.863   4.090 -0.0422  0.1539  0.2974
28555W        W43686  16.470  18.001   6.210  0.0990  0.2172 -0.0806
28556W        W43687   2.074  18.030   0.440 -0.0462  0.1655 -0.1901
28557W        W43688  16.402  10.390  13.050  0.1326  0.0343  0.0120
28558W        W43689  14.952  14.869   3.046  0.2356  0.2085  0.1026
28559W        W43690   2.039   4.042  11.762 -0.0378  0.0829  0.3531
28560W        W43691  15.088  17.444  11.640  0.1171  0.2075  0.0226
28561W        W43692  18.026   7.549   1.363  0.0983  0.2356 -0.4752
28562W        W43693  12.699  10.409   0.261 -0.2400 -0.2269  0.0636
28563W        W43694  12.587  10.000   3.720 -0.2400 -0.0241 -0.0093
28564W        W43695   4.038   4.035   1.730  0.2936 -0.1498  0.0441
28565W        W43696   7.767  15.232   3.406 -0.1245 -0.1897 -0.0179
28566W        W43697  15.736  16.832   3.617  0.0586 -0.1367 -0.1919
28567W        W43698   1.294   5.478   2.254  0.1000  0.0673 -0.1780
28568W        W43699  11.824  18.313  15.477  0.0938 -0.1512  0.2713
28569W        W43700   2.131   4.919   1.181  0.3917 -0.0271 -0.3454
28570W        W43701   1.413  16.749   4.549 -0.2059 -0.0298 -0.0988
28571W        W43702  16.209  10.957  14.815  0.0064  0.0825 -0.0847
28572W        W43703  12.706   2.120   1.051  0.0522  0.1080 -0.2201
28573W        W43704   5.965   3.730   1.122 -0.1679 -0.0680 -0.4147
28574W        W43705   4.774  15.864  11.440  0.0628  0.3175 -0.0371
28575W        W43706   6.690   9.168  14.990  0.2048 -0.0840 -0.0548
28576W        W43707   1.367   8.599  13.310  0.1206 -0.0198 -0.3019
28577W        W43708   9.208  14.796  11.213 -0.1146  0.1957 -0.1065
28578W        W43709  13.659   9.565  13.160  0.5820  0.1854  0.1301
28579W        W43710   8.797  15.739  14.241 -0.0248 -0.0402  0.0497
28580W        W43711  10.410  12.599   2.492 -0.3001  0.0576 -0.1510
28581W        W43712  14.300   2.232   0.626 -0.3484  0.0440 -0.0859
28582W        W43713   4.696   1.912  14.770 -0.1077  0.0869  0.3123
28583W        W43714  12.670   0.731  11.268 -0.2879  0.0133 -0.0364
28584W        W43715   4.859   6.807  10.833 -0.0514  0.1331  0.1092
28585W        W43716  11.409  13.570   3.184 -0.0405  0.0659  0.2825
28586W        W43717   5.650  13.387   4.718  0.0211  0.0406  0.1511
28587W        W43718   3.496   0.758  14.271  0.2127 -0.1343 -0.3989
28588W        W43719   3.239   8.380   3.058 -0.0678  0.1328 -0.1326
28589W        W43720  12.285  12.890  10.321  0.1561 -0.1499 -0.0224
28590W        W43721  12.307   3.880  12.272  0.1100  0.0702 -0.0065
28591W        W43722   1.267  15.692   2.178 -0.0099 -0.0716 -0.2637
28592W        W43723   8.500   8.467  15.357  0.4102 -0.1749  0.1173
28593W        W43724  13.422  18.330  12.010  0.1225  0.2747  0.2925
28594W        W43725  12.465   7.894   0.220 -0.1376  0.2850  0.1511
28595W        W43726  18.200  13.669  13.316  0.4032  0.1634  0.3950
28596W        W43727   4.455  10.082   0.684  0.0568 -0.2713 -0.1201
28597W        W43728   3.324   1.757  13.777 -0.1783 -0.0570 -0.0285
28598W        W43729  14.472   4.138  15.702 -0.2145  0.1609  0.1600
28599W        W43730  10.233  17.705   4.766 -0.0414  0.0618  0.3473
28600W        W43731   1.659  18.101   4.113 -0.0080  0.0511 -0.1082
28601W        W43732   1.568   2.232   3.867  0.2959 -0.2095 -0.0086
28602W        W43733   6.101   6.081  12.018  0.1668  0.1460 -0.2005
28603W        W43734   9.409   8.643  15.701 -0.2165 -0.1906 -0.3188
28604W        W43735   3.590   7.787   2.687 -0.0831 -0.0700 -0.2114
28605W        W43736  11.103  16.591   4.296 -0.3504  0.0006 -0.1818
28606W        W43737  16.070   0.274  14.029  0.1498 -0.0018  0.2549
28607W        W43738  15.430  16.291  11.032  0.0750 -0.1497 -0.3120
28608W        W43739  13.669  13.632   0.040 -0.0995  0.3638  0.2187
28609W        W43740  12.324  12.683   3.831  0.2336 -0.0407  0.6707
28610W        W43741  14.729  15.058  11.452  0.1648 -0.0642 -0.0744
28611W        W43742   9.989   0.352  10.902 -0.2674  0.3516  0.4580
28612W        W43743   0.425  13.117  15.090  0.2247  0.0904  0.2509
28613W        W43744   5.457   5.107  12.652 -0.1184 -0.0035  0.1808
28614W        W43745   1.748  13.410   3.330  0.1709 -0.1197  0.1823
28615W        W43746  10.211   1.301  11.343 -0.0192  0.0977  0.1444
28616W        W43747  10.896  17.852  14.317  0.0919 -0.2167  0.0749
28617W        W43748  15.120  17.884  13.031 -0.1186  0.1601  0.2909
28618W        W43749   0.859  12.215   4.216  0.0765  0.0712 -0.2139
28619W        W43750   8.587   8.425   0.601  0.1762  0.1622  0.1970
28620W        W43751  14.528   1.830  15.867  0.0237 -0.1817 -0.1256
28621W        W43752   5.691  10.862  11.740 -0.3883 -0.2106 -0.0341
28622W        W43753   6.855  12.566  13.595 -0.0273  0.2380  0.1753
28623W        W43754  10.456   5.825  14.781  0.2157 -0.1577 -0.2399
28624W        W43755  11.943  15.265   2.925 -0.1072 -0.1762 -0.1419
28625W        W43756   3.794   3.267  14.825  0.1178  0.1544  0.1916
28626W        W43757   7.271   1.855   2.665 -0.1513 -0.3189  0.2390
28627W        W43758   1.367  12.151  12.192  0.2769 -0.2260  0.0229
28628W        W43759   0.670  12.010  11.964  0.0039 -0.0311 -0.0010
28629W        W43760  17.535  15.322  15.054 -0.1746 -0.0327 -0.3037
28630W        W43761   8.321   9.947  12.925 -0.0905  0.0768  0.2877
28631W        W43762   6.888  15.998   0.862 -0.1460  0.0180 -0.1578
28632W        W43763   9.390  13.889   4.970 -0.0733 -0.1573 -0.0879
28633W        W43764  14.484   2.373  13.721  0.1394  0.1563 -0.0429
28634W        W43765  13.836   8.444   4.475  0.1205  0.0269 -0.1762
28635W        W43766  13.912  14.694   2.350 -0.1347  0.1567  0.3212
28636W        W43767   3.204  17.916  15.239  0.1842  0.2986  0.0202
28637W        W43768  10.715  13.512  12.107 -0.0358 -0.1344  0.0205
28638W        W43769   8.484   4.144   0.277 -0.1690  0.1262 -0.0273
28639W        W43770  17.963   6.052  11.102  0.1307 -0.1335  0.1713
28640W        W43771   2.840  12.496   3.715  0.0520  0.0486  0.1438
28641W        W43772  12.305  15.676   4.132  0.2210 -0.3303  0.0277
28642W        W43773  14.688  14.372  11.139  0.0412 -0.0882  0.3697
28643W        W43774  15.183  17.990   5.990 -0.0151 -0.3443  0.5653
28644W        W43775  16.301  17.516   4.161  0.3726 -0.2774  0.1531
28645W        W43776   3.339   6.300   4.713  0.2420  0.2302 -0.0062
28646W        W43777  15.898  11.832  14.877  0.0482  0.1936  0.2649
28647W        W43778   5.389  12.482  11.025 -0.4988  0.0091  0.0466
28648W        W43779   8.728  16.238  12.681  0.0102 -0.2267 -0.1130
28649W        W43780   7.324   3.206   1.509 -0.1200  0.0519 -0.0393
28650W        W43781  11.932   7.134  11.907 -0.0094 -0.0965  0.0220
28651W        W43782  15.090  17.313   5.195 -0.1485  0.0187  0.0530
28652W        W43783  13.979  13.162   5.123 -0.1023 -0.2319 -0.2737
28653W        W43784  12.056  15.069  15.485  0.0299  0.0203 -0.1448
28654W        W43785  16.599   9.845   4.258 -0.1271 -0.1358  0.0539
28655W        W43786  17.115  11.599   5.609 -0.0682 -0.0350 -0.3062
28656W        W43787  15.875   9.365   4.759 -0.0220  0.0694 -0.0210
28657W        W43788  15.960   6.202  15.175  0.0288 -0.4955  0.1139
28658W        W43789  15.822   7.537  13.825 -0.2095  0.0242  0.2408
28659W        W43790   2.228  15.213   4.588 -0.0818  0.0299  0.1854
28660W        W43791  10.069   8.204   4.279 -0.2572  0.3068  0.1282
28661W        W43792   5.406  10.325  13.293  0.1156 -0.0768  0.0952
28662W        W43793   2.051   7.929   3.598  0.0428  0.1738  0.2944
28663W        W43794   7.467   0.511   1.723  0.0039  0.0797  0.0964
28664W        W43795  14.258   0.896   0.689 -0.2707  0.2544 -0.0590
28665W        W43796  17.956  10.527  14.332 -0.0073 -0.1807 -0.0502
28666W        W43797  13.757  13.846  12.805  0.1370  0.0725  0.1473
28667W        W43798  10.352   5.657   0.818  0.0510  0.0277  0.0267
28668W        W43799   4.280   5.113   0.034  0.0172 -0.0463 -0.3554
28669W        W43800   7.128  17.444   0.485 -0.0214 -0.3527 -0.2704
28670W        W43801   8.124  16.066   2.396  0.0625  0.2750  0.0516
28671W        W43802   7.301  12.744   1.173 -0.0142  0.3255  0.0696
28672W        W43803   2.885  14.879  11.130 -0.1461  0.0945  0.1343
28673W        W43804   1.115   8.736  15.039 -0.0528 -0.2153  0.2483
28674W        W43805   8.490   1.482   0.090 -0.1802 -0.1573  0.1730
28675W        W43806   8.691  18.316  14.914  0.1720  0.0520 -0.0776
28676W        W43807   1.457   6.279  15.081  0.1296  0.0759 -0.2328
28677W        W43808   1.344   1.979  15.257 -0.2432  0.0152 -0.2176
28678W        W43809   1.403  14.437   1.233 -0.1689 -0.0959 -0.2494
28679W        W43810  16.938  12.518  12.220 -0.0075  0.0649 -0.0008
28680W        W43811   2.934   8.109  13.264  0.0975 -0.1633 -0.2909
28681W        W43812  15.182  13.088  12.249 -0.1910  0.1180  0.1302
28682W        W43813  10.120   2.794  10.535  0.0947  0.1394 -0.0677
28683W        W43814  12.834  12.243  12.937  0.0366  0.5233 -0.0018
28684W        W43815   4.259   3.758   3.458 -0.0178 -0.1202  0.0981
28685W        W43816  11.079   0.806  10.503  0.4512  0.3593  0.2310
28686W        W43817  12.548   3.308  10.389 -0.0946 -0.2504 -0.0412
28687W        W43818   0.507   6.037  11.317 -0.0359 -0.0526 -0.0581
28688W        W43819   2.965  10.051  14.992 -0.0552  0.1121  0.2689
28689W        W43820   1.726   4.975  11.453 -0.1013 -0.1161 -0.3904
28690W        W43821  18.187  15.321   5.547  0.0630 -0.2362 -0.0207
28691W        W43822  12.933  18.218  13.760  0.0296 -0.4351  0.0047
28692W        W43823  17.929   0.840  15.734  0.1951 -0.0492  0.0445
28693W        W43824   7.561   7.825   2.893  0.0913 -0.2307 -0.1045
28694W        W43825  18.298   8.538   3.029 -0.3690  0.0707  0.0896
28695W        W43826  13.522   9.759  14.948  0.2606 -0.2069 -0.1066
28696W        W43827  16.311  14.427  12.476 -0.2183  0.0788  0.2227
28697W        W43828   3.959   6.280  12.992 -0.1916  0.0882 -0.1918
28698W        W43829   5.040  10.618   2.161  0.2863  0.0297 -0.0450
28699W        W43830   3.492   3.489  15.524 -0.0153 -0.2151  0.2715
28700W        W43831   2.035  10.672  10.362  0.2545  0.0929  0.1606
28701W        W43832  10.232  16.081   5.840  0.0576  0.1497 -0.0331
28702W        W43833   9.910  12.212   4.774 -0.3150  0.2302 -0.0297
28703W        W43834   4.449  13.621   5.974  0.2075  0.0519 -0.0776
28704W        W43835   8.684   9.692   9.997  0.2385 -0.2329 -0.1300
28705W        W43836   7.809   8.026  12.729  0.0900  0.0761  0.0911
28706W        W43837  16.438   3.486   0.880 -0.2111  0.0101  0.0086
28707W        W43838  16.494   2.315  11.766  0.0139 -0.0385  0.1374
28708W        W43839   7.304   1.932  15.460 -0.1609 -0.0702  0.0676
28709W        W43840  14.112  15.501  14.299  0.3732  0.1097  0.1946
28710W        W43841   0.196  14.075   0.810 -0.0341 -0.0829 -0.0709
28711W        W43842   8.967   8.200   1.507  0.1656  0.0399  0.4405
28712W        W43843   3.135   2.768   2.515 -0.0232 -0.0683  0.0769
28713W        W43844   6.180  14.086  12.998 -0.0775 -0.0122 -0.0972
28714W        W43845   9.597  15.190   1.767 -0.2388  0.0363  0.1337
28715W        W43846  17.204   9.188   3.485  0.1771 -0.0512  0.0556
28716W        W43847  14.477   4.806  15.961  0.0978  0.1416  0.0970
28717W        W43848   4.109  17.166  11.724  0.0201 -0.2387 -0.2666
28718W        W43849   5.460   0.368   3.062 -0.0534  0.2809 -0.1378
28719W        W43850   2.949   6.553   0.473 -0.1881 -0.4290  0.3853
28720W        W43851   2.754  12.012  12.448 -0.1984  0.1712 -0.3412
28721W        W43852   2.472   3.702   1.176  0.1162  0.0393  0.0347
28722W        W43853   3.024   8.212   0.262 -0.2109  0.2599 -0.2746
28723W        W43854   0.260   3.993   4.110 -0.0245 -0.3342 -0.0879
28724W        W43855   2.980   9.929  12.032  0.3543 -0.2696  0.0233
28725W        W43856   5.874   7.945   5.560  0.2354 -0.0852  0.0404
28726W        W43857  10.074   8.971  15.518 -0.0690  0.0814  0.1469
28727W        W43858  12.028   0.533   0.988  0.0799  0.0425 -0.2629
28728W        W43859  12.129  10.800   2.486 -0.2484  0.0342  0.0969
28729W        W43860   3.731  17.962  11.487 -0.4052 -0.2027 -0.1066
28730W        W43861   0.713  13.781   4.288 -0.1016  0.2635  0.1043
28731W        W43862  11.661  13.551  13.957  0.3522 -0.0659 -0.1523
28732W        W43863   3.791   7.561  12.029  0.0395 -0.0962  0.1743
28733W        W43864  11.910   7.570  12.191 -0.1545  0.0964  0.0668
28734W        W43865   0.413   1.213  15.521 -0.0242 -0.1590  0.0579
28735W        W43866   3.683  14.994  15.444  0.0361 -0.0319  0.1195
28736W        W43867  15.008   6.019   0.033  0.0574  0.1490  0.0106
28737W        W43868  13.518   8.479  10.477  0.2824 -0.3411  0.0555
28738W        W43869   4.658   8.554  11.150  0.0119 -0.5031  0.1427
28739W        W43870  11.696   5.936   0.238 -0.3771  0.0914 -0.0651
28740W        W43871  13.523  10.257  15.149 -0.0533  0.4036  0.0763
28741W        W43872  12.881  13.117  11.934  0.1991 -0.0323  0.1530
28742W        W43873  14.542  16.251   0.650  0.4423 -0.0790 -0.2886
28743W        W43874   3.763   0.512  11.149 -0.0060 -0.3000 -0.0818
28744W        W43875   5.479   8.840   9.913 -0.1312 -0.3560 -0.1983
28745W        W43876   1.949   4.590  11.697 -0.3098 -0.2355 -0.2443
28746W        W43877  15.038   1.415   1.869  0.0752  0.2922  0.1130
28747W        W43878   8.083  17.774  12.934 -0.3183 -0.0871  0.1327
28748W        W43879   2.972   8.890   4.081  0.1451  0.3318  0.2120
28749W        W43880   3.848  12.500  13.969 -0.0890  0.0663  0.6572
28750W        W43881   9.031  14.955   4.842 -0.0445  0.0647  0.0780
28751W        W43882  14.875  17.069  15.169  0.0343  0.0290  0.1090
28752W        W43883  10.208   4.626   1.034 -0.1044 -0.5034  0.0376
28753W        W43884  17.278   5.921   5.158 -0.0928  0.2913 -0.1245
28754W        W43885   0.579   7.582   3.506 -0.0224 -0.0392 -0.1820
28755W        W43886  17.581  14.068   1.889 -0.1262  0.0522  0.2101
28756W        W43887   6.856  11.910  11.484 -0.1172 -0.0755 -0.0668
28757W        W43888   2.969  11.813   5.448  0.2131 -0.0808  0.0735
28758W        W43889   5.187   8.450  12.534  0.3790  0.0379  0.1961
28759W        W43890   1.481   4.859   0.587 -0.1619 -0.0546 -0.0615
28760W        W43891  16.090  16.623   0.101  0.3613  0.0311 -0.3323
28761W        W43892   1.521  10.474   4.652 -0.0159 -0.2415 -0.0899
28762W        W43893   5.562   5.506  15.892  0.1800  0.4177  0.0424
28763W        W43894  14.336   5.815   1.258 -0.1094 -0.1728  0.2646
28764W        W43895   8.623   7.130  11.911  0.0244  0.2969 -0.4107
28765W        W43896  10.920  10.246  13.720 -0.2446  0.0607 -0.1634
28766W        W43897  16.761  12.811   2.442 -0.4091  0.2086  0.2140
28767W        W43898   8.534   3.764   1.758  0.1173  0.1980  0.0059
28768W        W43899  16.325  13.285   4.460 -0.3327  0.1418  0.0595
28769W        W43900   9.041   2.766   0.298 -0.1195  0.0830  0.1077
28770W        W43901  13.963   6.721  11.835  0.0746 -0.3013 -0.1241
28771W        W43902   7.668  13.260   4.885  0.0916 -0.0888  0.0130
28772W        W43903   6.549   8.527  12.295  0.0980 -0.0543  0.0224
28773W        W43904  10.737   5.977  15.614  0.0311 -0.1296  0.2589
28774W        W43905   0.194   4.091  13.690  0.0276 -0.0569  0.0317
28775W        W43906  16.391   2.689  12.025  0.4556  0.1012 -0.2420
28776W        W43907  12.154   0.406   5.175  0.0196  0.1063  0.1199
28777W        W43908   0.255  11.671   0.477 -0.2444 -0.1160 -0.1293
28778W        W43909  15.062  17.555   2.029 -0.2148  0.1212  0.1447
28779W        W43910  10.513   8.307   3.603  0.1340 -0.2332 -0.0774
28780W        W43911  13.648  12.574   4.406  0.0490 -0.0662 -0.0363
28781W        W43912  10.558   7.406   1.870  0.0694  0.1758  0.2803
28782W        W43913  16.199   9.912  10.797  0.0949  0.0822 -0.0000
28783W        W43914  16.053   2.540  13.039  0.0728 -0.3238 -0.2424
28784W        W43915   2.144  14.276   4.206 -0.1172 -0.0666  0.0303
28785W        W43916  13.139   2.091   3.639  0.6302 -0.0493  0.0207
28786W        W43917   5.978  16.357   0.506 -0.1429  0.1348  0.1312
28787W        W43918   1.087  16.602   2.491 -0.0823  0.0162  0.1482
28788W        W43919   3.673   8.571   3.429 -0.2076 -0.0228  0.0987
28789W        W43920  16.229   9.932   4.635  0.1126 -0.0146  0.0283
28790W        W43921   0.076   0.666   1.083 -0.3751 -0.4102  0.1006
28791W        W43922   3.433   2.366  12.641  0.3535 -0.1543  0.1030
28792W        W43923   5.962   9.988  11.119 -0.0163  0.0927 -0.0314
28793W        W43924  16.291  16.719  15.273 -0.0364 -0.0802  0.0556
28794W        W43925   6.295   4.232  14.032 -0.1148 -0.0114  0.0401
28795W        W43926  13.688   9.887  11.371 -0.1631  0.0132  0.1772
28796W        W43927   5.043   0.744   5.008  0.1263 -0.1288  0.2444
28797W        W43928   3.210  15.710  11.017  0.2331 -0.1418 -0.1055
28798W        W43929  14.798  10.166   1.477 -0.3805  0.1633  0.1779
28799W        W43930  11.439   6.674  13.069  0.0748  0.1292  0.1132
28800W        W43931  14.355   3.692  15.547  0.0968  0.1067  0.0678
28801W        W43932   6.798  12.024  13.500 -0.0005 -0.3641 -0.0882
28802W        W43933   1.582  15.286   3.421  0.1881 -0.0032 -0.0850
28803W        W43934  14.408  13.774   1.242 -0.1486 -0.1833  0.2940
28804W        W43935   6.151   0.575   5.096 -0.1591 -0.2437  0.1582
28805W        W43936   0.887   4.506  10.888  0.0999 -0.0436  0.2541
28806W        W43937  12.921  15.808   4.285 -0.0956 -0.1280 -0.1896
28807W        W43938   9.846   0.702  11.328 -0.0309  0.2856 -0.2671
28808W        W43939  15.609  12.300  13.954 -0.2016  0.3221 -0.0348
28809W        W43940   7.502   5.013   0.264 -0.0089  0.1511  0.1533
28810W        W43941   5.682  11.194   5.060 -0.2942 -0.2488  0.2647
28811W        W43942   0.419   9.897  13.274  0.0423 -0.0325  0.2222
28812W        W43943   7.964   2.097  11.483 -0.2564  0.0327 -0.1775
28813W        W43944  15.247   4.415  15.415  0.1669 -0.1785 -0.4193
28814W        W43945  16.023  12.667   3.900  0.3968 -0.1779  0.0234
28815W        W43946  17.249  17.906   5.844 -0.0818  0.0767  0.0366
28816W        W43947  13.163  15.999   2.487  0.0309 -0.2047  0.0941
28817W        W43948  10.211   4.518   3.507  0.2372 -0.2787 -0.1504
28818W        W43949  10.154   3.534  10.217 -0.2500 -0.0268  0.0308
28819W        W43950  14.053   3.292   0.637  0.2403 -0.1357 -0.4193
28820W        W43951   3.807  14.053  11.263 -0.0210  0.3586  0.0011
28821W        W43952  12.737  17.409  14.360  0.0369  0.0644 -0.1267
28822W        W43953  14.492  10.913  15.672 -0.1496  0.0338 -0.2121
28823W        W43954  12.062  15.361   0.232 -0.3009  0.0328  0.1476
28824W        W43955  17.274  12.202  13.053  0.1637  0.1842  0.0415
28825W        W43956  14.667   2.709  12.007 -0.0221 -0.1801  0.4667
28826W        W43957   7.838   5.163  12.609  0.1169 -0.1938 -0.2268
28827W        W43958   6.278   4.758   0.822  0.1355  0.1685 -0.0025
28828W        W43959   6.634   9.232   2.352  0.2142 -0.2890 -0.0860
28829W        W43960   8.202  14.042  12.534 -0.0330  0.0297  0.0938
28830W        W43961  14.749   1.971  11.316  0.2161 -0.1200 -0.0499
28831W        W43962   0.127  10.592  14.742 -0.1915  0.3669  0.0944
28832W        W43963   6.781  16.514  12.385 -0.0271  0.0474 -0.4268
28833W        W43964  11.573   0.971   1.805 -0.2475  0.2086 -0.2146
28834W        W43965   0.945   2.897   1.212  0.2091 -0.0194  0.3493
28835W        W43966  10.080  11.994  13.421  0.0135 -0.1425  0.0189
28836W        W43967   3.087   0.350  12.531  0.0684  0.1188 -0.1000
28837W        W43968  14.020   1.692   3.730  0.3023 -0.1616  0.1657
28838W        W43969  11.865  14.521  13.142 -0.0687  0.3768 -0.1259
28839W        W43970  11.195   6.248  10.318  0.4576 -0.1231 -0.1474
28840W        W43971   7.306   9.567  11.452  0.0204  0.1984  0.2296
28841W        W43972   4.126  17.086  15.555 -0.1989 -0.2113 -0.1789
28842W        W43973  12.790  15.214   3.317  0.0561 -0.4268  0.0936
28843W        W43974   2.412  15.235  14.501  0.3738 -0.1738 -0.1066
28844W        W43975   1.396   4.093   9.976 -0.1971  0.0659  0.0978
28845W        W43976   1.360   9.880  12.004 -0.3156 -0.0801  0.0740
28846W        W43977   1.583  16.469  13.198 -0.1715 -0.1524  0.0006
28847W        W43978  12.465  11.737  10.627 -0.0408 -0.0471  0.2128
28848W        W43979  15.557  11.990  13.438 -0.2251 -0.4178  0.2468
28849W        W43980  17.633   1.609  12.975  0.0827 -0.2365  0.1758
28850W        W43981  17.946  10.141   1.822  0.0419  0.0156 -0.2774
28851W        W43982  13.524  12.379  13.736 -0.1581 -0.0796 -0.1967
28852W        W43983  11.380  10.269  11.959 -0.1784 -0.0737  0.2458
28853W        W43984  16.753  13.702   1.909 -0.1491 -0.2929  0.0246
28854W        W43985   9.281   5.188   1.459 -0.1491 -0.1659  0.0890
28855W        W43986   4.821   4.572   3.926 -0.1009 -0.0174  0.1142
28856W        W43987  14.802   2.069   3.674 -0.1051  0.2901  0.0836
28857W        W43988   9.707  15.315   2.946 -0.2032  0.3035 -0.2309
28858W        W43989  15.064  14.932  14.238  0.1671  0.2666 -0.0964
28859W        W43990  18.195  14.177   5.348  0.0644 -0.0436 -0.1317
28860W        W43991   5.864   0.597  14.378 -0.1780 -0.0214 -0.2549
28861W        W43992   4.444  10.292  13.111  0.1355 -0.0234  0.1360
28862W        W43993   2.935   6.298  13.439 -0.2042  0.2568 -0.1294
28863W        W43994  12.914  15.495  13.396 -0.0175  0.2314 -0.2535
28864W        W43995   4.579   0.432   4.727 -0.0046  0.0029 -0.1554
28865W        W43996  16.925  15.557   3.602 -0.0968 -0.2736 -0.0692
28866W        W43997  11.130  15.017   1.683  0.0690  0.1011 -0.0712
28867W        W43998  10.605  15.340   3.954  0.1851  0.0473 -0.3065
28868W        W43999  15.996  14.581   2.287 -0.0832  0.1373 -0.2725
28869W        W44000  13.623   9.203   2.688 -0.1588 -0.2455  0.1875
28870W        W44001   9.766   0.891   2.027 -0.0631 -0.0260  0.0386
28871W        W44002   4.562  18.194   3.008  0.0450  0.1202  0.1238
28872W        W44003   6.157  10.862  11.636 -0.0828 -0.2476  0.0611
28873W        W44004   7.163   4.907   9.988  0.1700  0.0658  0.2549
28874W        W44005   4.746  12.529   4.933  0.2171  0.2322  0.1439
28875W        W44006  13.202  16.506  13.267  0.0240  0.0840  0.4235
28876W        W44007  10.758   1.404   5.911  0.0285 -0.1575  0.1191
28877W        W44008  10.368   2.777  14.832  0.0738 -0.0205 -0.0074
28878W        W44009   6.387  15.621  14.713  0.3679 -0.2137 -0.2790
28879W        W44010  11.242  13.603   4.129  0.1599 -0.1281  0.2938
28880W        W44011   3.033   8.016   5.491  0.3429  0.4339  0.2021
28881W        W44012   2.344  16.749   2.661  0.0241 -0.3106  0.0100
28882W        W44013   7.558   8.661   1.730 -0.1977  0.0597  0.0352
28883W        W44014  17.681   5.818  15.302 -0.2623 -0.3775  0.1072
28884W        W44015  12.916   9.844   4.839 -0.0146 -0.1322 -0.1817
28885W        W44016   0.823   3.322   6.305  0.3835  0.0994  0.2650
28886W        W44017   9.641   5.105  11.214 -0.5180 -0.1095 -0.0152
28887W        W44018   7.766   2.372  11.912  0.0270 -0.0058 -0.2203
28888W        W44019  12.829  15.620  15.058 -0.0678  0.0228 -0.0479
28889W        W44020  11.488   1.420  11.397 -0.2452  0.1985 -0.1172
28890W        W44021   0.286  16.598   5.899  0.3515  0.2786 -0.0657
28891W        W44022   6.791   9.721   3.506  0.0934  0.1373  0.1832
28892W        W44023  15.958   7.469  14.766 -0.1493 -0.0884  0.0835
28893W        W44024   3.145   5.850   5.045  0.1756  0.1613 -0.6079
28894W        W44025   9.726   3.747   3.307  0.2563  0.0046  0.0249
28895W        W44026   0.463  13.577  15.984 -0.3459 -0.3118  0.3465
28896W        W44027   7.997   2.767  15.287  0.2069  0.2033  0.3326
28897W        W44028   0.390  12.343   3.378  0.1547  0.2581 -0.0905
28898W        W44029  14.838  11.278   4.468 -0.2831 -0.0711  0.1005
28899W        W44030  18.142   7.183  13.288 -0.4327  0.0854 -0.2808
28900W        W44031   9.347  16.665   4.399 -0.1691  0.0390  0.1881
28901W        W44032   3.386   8.139   3.702  0.2076  0.0652  0.1320
28902W        W44033  14.953  10.157  14.243 -0.1028 -0.3511  0.2323
28903W        W44034   1.885   0.764   4.005 -0.1516  0.2040 -0.1148
28904W        W44035   9.975  16.174   1.898 -0.0520  0.0674 -0.0990
28905W        W44036   8.097  10.675  11.948 -0.0269  0.0410 -0.3805
28906W        W44037   7.419  13.654  14.555 -0.0378 -0.4358 -0.2418
28907W        W44038  15.032   1.011  11.799  0.0076  0.2343 -0.0662
28908W        W44039   4.102   2.215   1.175  0.2084  0.2388 -0.2767
28909W        W44040  18.143  17.738   2.099  0.0464 -0.1195  0.1995
28910W        W44041  17.881   9.220  15.158  0.1002  0.0650  0.0456
28911W        W44042  10.455  16.658   1.036 -0.1538  0.5139 -0.1022
28912W        W44043   3.362   2.017   4.991 -0.0301 -0.1082 -0.0087
28913W        W44044   1.889   4.495   4.901  0.0745 -0.1549  0.2532
28914W        W44045  12.877  14.395   4.460  0.1017 -0.1786  0.2027
28915W        W44046   5.925  13.897   4.669 -0.0961  0.0553  0.2820
28916W        W44047   6.577   0.171   2.767 -0.0185  0.0269  0.4482
28917W        W44048   2.621   1.291   3.477  0.0464 -0.1004 -0.0660
28918W        W44049   4.025   7.338  14.364  0.0941 -0.1720 -0.1135
28919W        W44050   4.972  14.947   3.124  0.0831  0.0570 -0.1479
28920W        W44051  10.080  11.135  13.595 -0.2144  0.0330 -0.0058
28921W        W44052  12.512  16.979   0.912  0.1659  0.0370 -0.3307
28922W        W44053   3.723   2.173   1.936  0.1634  0.2421 -0.3598
28923W        W44054   5.182   2.967   4.711  0.1805  0.0320  0.2243
28924W        W44055  14.390   4.128  11.524  0.0318 -0.0394  0.4776
28925W        W44056  14.846  13.674   1.913  0.3155 -0.1787 -0.3219
28926W        W44057   5.535   1.464  16.106  0.2297  0.1704 -0.2296
28927W        W44058   3.855  13.531   5.853  0.1256  0.1285  0.0930
28928W        W44059  17.362  11.888   2.483 -0.2110 -0.3690  0.1575
28929W        W44060  15.687   3.632  11.777  0.3286 -0.1400  0.0808
28930W        W44061   2.853   5.771   3.683  0.1190  0.1090  0.0376
28931W        W44062  10.284   8.145  14.933  0.1146 -0.0804  0.0577
28932W        W44063   6.355  11.150  13.756 -0.0953 -0.0936 -0.0263
28933W        W44064   0.623  13.529   3.820  0.0321  0.0717  0.3443
28934W        W44065   4.447   9.770   1.654 -0.1807  0.2240  0.1290
28935W        W44066  11.348   2.992   5.384 -0.1012  0.1155 -0.2707
28936W        W44067   6.283   2.737   3.682 -0.1926 -0.0658  0.1429
28937W        W44068  10.224   6.361  12.312  0.3870  0.0803 -0.0982
28938W        W44069  10.055  17.318   1.640 -0.1577 -0.1041  0.2632
28939W        W44070  10.456  16.649  11.628  0.1406 -0.3576  0.0188
28940W        W44071   0.878  11.892  11.347 -0.2769 -0.0898 -0.0923
28941W        W44072  12.230  15.711  10.346  0.2612  0.2443 -0.1513
28942W        W44073  18.177   5.019  14.627 -0.0922  0.1124  0.3528
28943W        W44074   7.118  15.547   2.802  0.1023 -0.3530 -0.0886
28944W        W44075   7.474   5.875  11.280 -0.0076  0.4184  0.0665
28945W        W44076   3.350   3.358   4.877  0.1327 -0.3737  0.0074
28946W        W44077   0.959   6.324   2.307  0.0776 -0.1989  0.0236
28947W        W44078   4.343  15.298   3.533 -0.1669  0.2197 -0.0060
28948W        W44079   4.198  11.131  16.066  0.0285  0.1819 -0.0428
28949W        W44080   6.247  14.410  12.444 -0.3468  0.0452 -0.0179
28950W        W44081   0.839   6.124   1.811  0.1872  0.1366  0.0495
28951W        W44082   2.458   0.519   6.272  0.3064 -0.0238  0.1205
28952W        W44083   3.496  10.262   3.333 -0.1200 -0.1628 -0.1614
28953W        W44084   1.163   5.562   5.198  0.3539 -0.0167  0.2119
28954W        W44085   5.183   4.859   3.099 -0.1886 -0.1618  0.0701
28955W        W44086   7.827   2.437  10.527  0.0430 -0.0634 -0.0236
28956W        W44087   4.509  17.825   4.448 -0.3729  0.4066  0.0934
28957W        W44088  10.352  14.312  15.712 -0.0163 -0.1937  0.0017
28958W        W44089  17.954   1.200  14.981 -0.0420  0.1092 -0.2792
28959W        W44090   0.748   2.027   2.029 -0.0387  0.2280 -0.1405
28960W        W44091   5.990   5.722  15.791  0.2066  0.2626  0.2691
28961W        W44092   4.337  10.559   3.985 -0.0425 -0.1745 -0.3847
28962W        W44093   0.753  17.901   2.449 -0.1368 -0.2492 -0.0358
28963W        W44094   3.536   7.593  11.047  0.1073 -0.0050 -0.3010
28964W        W44095  15.445  15.133  15.897 -0.0781  0.0846  0.0526
28965W        W44096   4.730   0.652   0.222  0.3124 -0.1417 -0.2199
28966W        W44097   0.760  18.198  13.368 -0.2130  0.0725  0.0332
28967W        W44098   6.183  16.207  10.909  0.1016 -0.1624  0.3435
28968W        W44099   1.951   8.304  13.624 -0.2255  0.1409  0.0875
28969W        W44100   7.158  15.270   2.258  0.1412 -0.0944 -0.1694
28970W        W44101  12.127   8.582   2.809  0.2756  0.0341  0.3279
28971W        W44102  12.738   6.869   1.896  0.3410  0.1290 -0.2149
28972W        W44103   3.065  12.786   3.336  0.0191  0.0179  0.1469
28973W        W44104   6.772  15.327  11.250 -0.2966 -0.2071 -0.1284
28974W        W44105   5.787  15.452   5.010  0.0004  0.0424 -0.1057
28975W        W44106  14.728  12.335  14.284  0.0335  0.3523  0.0352
28976W        W44107  10.752   6.770   4.564 -0.2283 -0.0931 -0.1232
28977W        W44108  13.793   9.316   4.439  0.1890 -0.0784 -0.2493
28978W        W44109   8.513  12.828  13.066  0.1871 -0.0598  0.2962
28979W        W44110   9.155   5.310   9.711  0.0746 -0.2564 -0.0289
28980W        W44111   0.469   8.364   6.661 -0.0913 -0.3168 -0.1546
28981W        W44112  15.291  16.453   1.793  0.0590  0.1702 -0.0146
28982W        W44113   8.462  14.406  12.818 -0.1548  0.2962 -0.1012
28983W        W44114  17.283   9.773  14.997  0.0965 -0.3858 -0.0698
28984W        W44115  18.029  13.560   6.292  0.2791  0.0425 -0.1256
28985W        W44116   2.441   7.765  15.411 -0.0539 -0.0944 -0.0420
28986W        W44117  11.358   1.532   4.291 -0.0502  0.2915  0.0372
28987W        W44118  11.814   6.696  14.239  0.1214 -0.0407 -0.2902
28988W        W44119  17.171  17.493   0.532 -0.3581 -0.1321 -0.2956
28989W        W44120  15.550   3.696   4.622  0.0028  0.1520 -0.0786
28990W        W44121  16.854   0.397   2.827 -0.0730  0.0354  0.0733
28991W        W44122  13.390   1.246   1.967 -0.0569  0.0515 -0.2186
28992W        W44123   1.424   0.866   2.674 -0.1334  0.0955  0.1453
28993W        W44124   2.065  15.731  12.600 -0.0838  0.2692  0.4582
28994W        W44125   0.333  11.367  13.633 -0.1825  0.0703 -0.1086
28995W        W44126  15.779   3.329   4.885 -0.0582  0.0129 -0.1137
28996W        W44127  13.338   3.464   2.603 -0.2305 -0.2844  0.0667
28997W        W44128   1.316   0.317   0.948 -0.2995 -0.0473 -0.1305
28998W        W44129  17.493   1.437  13.607  0.0108  0.2856 -0.0923
28999W        W44130   4.506   1.647   0.257 -0.0719  0.2652 -0.3810
29000W        W44131   9.610   4.859   4.117  0.2251  0.2850  0.2773
29001W        W44132   9.974  17.820   0.501 -0.3191  0.1322  0.1393
29002W        W44133  14.060   5.612   2.662  0.2824 -0.0680  0.0051
29003W        W44134   9.274  15.573  10.951 -0.0419 -0.1933 -0.0042
29004W        W44135   2.457   8.083   0.372 -0.2769 -0.0260 -0.1484
29005W        W44136  14.023  12.869  15.646  0.2745 -0.1170  0.2841
29006W        W44137   6.715   7.822   3.045 -0.1284  0.1441  0.0445
29007W        W44138   9.166  16.921  13.749 -0.3211 -0.2271 -0.0886
29008W        W44139   1.197  18.025   3.975 -0.1420  0.1695 -0.0717
29009W        W44140   3.344  13.930   0.752  0.0829 -0.1501 -0.2232
29010W        W44141   4.718   8.521  13.221 -0.0862  0.1009 -0.1022
29011W        W44142  11.469  11.867  10.720 -0.1302  0.0922  0.1407
29012W        W44143  16.148   1.958  10.928 -0.1526  0.2011  0.1424
29013W        W44144  15.715  12.037   1.722  0.0593  0.1913  0.1612
29014W        W44145  15.545   1.405   1.600 -0.0283 -0.1503  0.4973
29015W        W44146  17.694  10.315   5.997  0.2794 -0.3507 -0.0046
29016W        W44147   2.049  11.137  15.487  0.2495 -0.2458 -0.2397
29017W        W44148  14.023   5.886   0.886  0.0613  0.0939 -0.0783
29018W        W44149   3.845  13.692   5.369 -0.0039 -0.1089  0.0894
29019W        W44150   6.640   2.822  14.414 -0.1980  0.0590  0.1585
29020W        W44151  14.718   0.102  11.974  0.0590 -0.4186  0.2346
29021W        W44152   5.185  13.139  11.058 -0.1759 -0.0124  0.1635
29022W        W44153   0.755   7.266   6.257  0.1656 -0.0096  0.1364
29023W        W44154   2.609   9.729  11.505  0.1106 -0.1246 -0.2032
29024W        W44155  17.313  17.720   1.546 -0.0735  0.1090  0.2682
29025W        W44156  16.099   6.444  11.600  0.0288  0.3343 -0.0812
29026W        W44157   0.996  10.603  12.011 -0.0544 -0.1863  0.0226
29027W        W44158   2.154  16.829  14.524 -0.2226  0.1584 -0.0962
29028W        W44159   3.741   6.875  10.821  0.3912  0.1909  0.1119
29029W        W44160   1.552   6.489   1.388  0.0110  0.1161  0.1475
29030W        W44161   9.580  17.639   5.780 -0.3047 -0.0712  0.1961
29031W        W44162   5.992  15.344   3.745 -0.0627  0.0162  0.0183
29032W        W44163  16.237   8.091  13.456  0.5359  0.2502  0.1311
29033W        W44164   9.520   5.769  11.766 -0.2908 -0.2195  0.2938
29034W        W44165  13.914   7.451  10.475  0.2142  0.2602 -0.2788
29035W        W44166   1.567  17.820  13.633 -0.1989  0.3949  0.3332
29036W        W44167   5.597   5.796  11.359 -0.0316 -0.4050 -0.0650
29037W        W44168  17.727   6.261   5.034  0.2092  0.2923 -0.0152
29038W        W44169   1.049   6.700  10.381 -0.1897  0.1226  0.0345
29039W        W44170  10.734   5.767  13.840 -0.0438  0.0101  0.1733
29040W        W44171  15.456  12.214   4.600  0.0757 -0.0830  0.2809
29041W        W44172   8.130  12.258   2.981 -0.1137  0.0525  0.0823
29042W        W44173   0.522   5.327  12.026 -0.3799  0.0124  0.0449
29043W        W44174  14.473  11.542   5.174  0.1305 -0.4599  0.0363
29044W        W44175  15.959   0.474   3.158 -0.1861 -0.1288 -0.0100
29045W        W44176   7.725   0.227   3.384  0.1231  0.0983 -0.0613
29046W        W44177  15.909  17.504   0.760 -0.3379 -0.0361  0.1475
29047W        W44178  12.264  14.724  11.467  0.2276 -0.0056 -0.3350
29048W        W44179  12.838  15.161  12.870 -0.1010  0.1766  0.1227
29049W        W44180   4.929  17.239  16.111  0.0699  0.2393 -0.2489
29050W        W44181   5.005   0.384   6.383  0.2140 -0.3036  0.4062
29051W        W44182  11.676   1.731   1.862  0.0341  0.0558 -0.0273
29052W        W44183  11.631   5.048  12.674  0.0770  0.1059  0.0035
29053W        W44184   9.740  17.181   3.406  0.2508  0.3172  0.2084
29054W        W44185  11.677  12.270   3.670  0.0795 -0.0614  0.4202
29055W        W44186   8.388  12.180   5.243 -0.1306 -0.0578  0.0706
29056W        W44187  10.965  10.134   2.734  0.0162 -0.1478  0.2175
29057W        W44188  15.659  17.364  14.313  0.1341  0.0443 -0.0788
29058W        W44189   7.376  17.559  15.763  0.0663  0.0004 -0.0900
29059W        W44190   7.091   5.375   4.438  0.4032  0.3537  0.2771
29060W        W44191   7.390  12.714  11.419  0.0350 -0.1101 -0.1678
29061W        W44192  16.871   1.784   4.871  0.0393  0.0828 -0.2704
29062W        W44193   7.478  14.241  15.190 -0.0995  0.1867  0.3159
29063W        W44194  14.615   4.951   2.285 -0.1924  0.2023 -0.1371
29064W        W44195   6.910  17.960   0.906 -0.0840  0.0025 -0.2254
29065W        W44196  16.761   8.704  12.246  0.1683  0.0001  0.0633
29066W        W44197  12.898   2.036  13.957  0.1766  0.2033  0.3594
29067W        W44198   3.400  11.330  12.584  0.1436  0.0547  0.0232
29068W        W44199   5.928  10.407  13.345  0.0214  0.0835  0.2610
29069W        W44200  16.488   4.349  12.589 -0.2824  0.0180 -0.3701
29070W        W44201   0.296   0.587   3.074 -0.1406  0.1470 -0.0984
29071W        W44202   8.511  15.547   1.581 -0.0339  0.0253  0.1167
29072W        W44203  11.610   5.578   3.541  0.0825  0.3009 -0.0815
29073W        W44204  15.191  15.238  15.019  0.0845  0.1348  0.0554
29074W        W44205   8.343   0.719  13.726 -0.0207 -0.0277 -0.2637
29075W        W44206   5.663   6.421  13.636  0.2462 -0.3439  0.2754
29076W        W44207  11.217   2.482  12.061  0.0771  0.2806 -0.1043
29077W        W44208   7.593  17.348  15.369 -0.1911  0.1533 -0.2715
29078W        W44209   5.746  10.399   2.322  0.0551  0.2041 -0.1832
29079W        W44210   6.341   4.345   5.743  0.1934 -0.0528 -0.1851
29080W        W44211   9.600   2.932  14.066 -0.2887 -0.0595  0.0253
29081W        W44212  13.290   2.889   2.638 -0.1100  0.2416 -0.1907
29082W        W44213   3.037  16.288   3.742 -0.4075  0.0330  0.1664
29083W        W44214  11.819  17.098  12.423 -0.0562  0.1124  0.0795
29084W        W44215   7.918  13.171  15.737  0.3246 -0.0404 -0.0753
29085W        W44216  10.069   2.868   3.587 -0.1566 -0.0176  0.0920
29086W        W44217  14.774   2.577   3.849 -0.1060 -0.0389  0.0206
29087W        W44218  14.925  10.795   3.203  0.1380  0.1092  0.0531
29088W        W44219   2.079   3.244  13.910  0.2610  0.0650 -0.1000
29089W        W44220   8.466   4.061   1.089  0.0560 -0.0774 -0.0712
29090W        W44221   7.338  10.865  13.832 -0.1824 -0.0159 -0.2373
29091W        W44222  16.104   8.391  10.729 -0.0697 -0.0930  0.1440
29092W        W44223  17.341  14.393  14.905  0.0777  0.1513 -0.0559
29093W        W44224  15.175   1.161  12.470  0.0073  0.0016  0.1423
29094W        W44225  18.071   7.172  11.342  0.1803 -0.0044 -0.0018
29095W        W44226   3.677  10.528  14.916  0.1236  0.1514  0.0055
29096W        W44227  13.164  11.220  11.348 -0.1513 -0.0007 -0.2015
29097W        W44228  16.365   2.727  13.398 -0.2496  0.3061  0.1842
29098W        W44229   5.964  17.762  15.982  0.1477  0.2920  0.0959
29099W        W44230   1.459  11.040   2.979  0.1323  0.0934  0.0457
29100W        W44231   3.784  14.293   6.212 -0.1892  0.3138  0.0580
29101W        W44232   4.158   0.617  12.948 -0.1031  0.0491  0.2341
29102W        W44233   9.695  10.280   1.493 -0.0354  0.0245  0.0362
29103W        W44234  11.706   1.430  13.666  0.2335 -0.2541 -0.1265
29104W        W44235   9.017   8.826   4.834 -0.1458 -0.1132  0.0462
29105W        W44236   0.331   3.506   0.357  0.1645  0.1837  0.1347
29106W        W44237   6.399   7.747   4.024  0.1822 -0.1203  0.1461
29107W        W44238   5.352   6.206   0.215  0.1739  0.1316 -0.1228
29108W        W44239   9.092   9.359  13.971  0.0530  0.0308  0.0919
29109W        W44240   6.390  14.153   0.853 -0.2207 -0.0327  0.2913
29110W        W44241   9.586  12.712  13.694 -0.1870  0.0780  0.1227
29111W        W44242  16.974   7.178  12.410  0.0050 -0.0166  0.3344
29112W        W44243  18.017   2.029  14.653  0.1974  0.3414 -0.2281
29113W        W44244   8.892   9.566   3.922 -0.2817 -0.0397 -0.3435
29114W        W44245  14.930   2.999   3.513 -0.3787 -0.3467  0.0646
29115W        W44246  13.658  17.799  14.429 -0.0426 -0.2139 -0.1546
29116W        W44247   6.835   1.639   2.873 -0.0513 -0.2014 -0.5132
29117W        W44248   0.328   6.117  12.397  0.0869 -0.1212 -0.1736
29118W        W44249   4.635  15.890  12.026 -0.1841 -0.1150 -0.2880
29119W        W44250   4.536   9.552   3.874 -0.1090 -0.0694 -0.1507
29120W        W44251   8.557  10.957   3.184  0.3678 -0.3038 -0.1535
29121W        W44252   5.741  11.038  11.098 -0.2370  0.0652 -0.0762
29122W        W44253  10.250  17.457  11.139 -0.4060  0.1517 -0.0362
29123W        W44254  13.212  15.654  13.031 -0.0583 -0.2488  0.0600
29124W        W44255   3.794   5.829  12.678 -0.1021 -0.0142 -0.2679
29125W        W44256  16.853  12.426  15.821 -0.0368  0.1857 -0.0115
29126W        W44257   7.273   0.871   0.545 -0.1496 -0.1339  0.1067
29127W        W44258  14.573   2.083  11.953  0.1255 -0.0132  0.0633
29128W        W44259   8.817   8.767   4.016  0.1485 -0.1207  0.4890
29129W        W44260   8.590   9.884  11.094  0.2026  0.0019 -0.1179
29130W        W44261  17.153  17.135   2.031 -0.2142 -0.1031  0.4138
29131W        W44262   9.071   2.520  10.888 -0.1331 -0.0584 -0.1737
29132W        W44263  12.552  18.127   0.447 -0.4039 -0.0138  0.1510
29133W        W44264   9.188  12.015  13.096  0.1842  0.1306 -0.1743
29134W        W44265  12.949   4.825   0.681 -0.1222  0.2303  0.1217
29135W        W44266  12.203  17.817   9.863  0.1703  0.0724  0.1440
29136W        W44267   3.828   7.930  15.427  0.2121 -0.0733  0.1462
29137W        W44268  11.932   8.786   0.625 -0.1958  0.2002  0.4773
29138W        W44269   5.903  15.194   2.846  0.1073 -0.0726 -0.0225
29139W        W44270   1.665   0.338  15.972 -0.1221  0.1784  0.0041
29140W        W44271   8.989   0.699   1.936  0.0004 -0.0317  0.1276
29141W        W44272   3.671   9.332   5.056  0.2368 -0.1505 -0.0225
29142W        W44273   2.756  15.359  10.343 -0.0355  0.4205 -0.0870
29143W        W44274   8.587   9.581  12.640  0.0542 -0.0098  0.1174
29144W        W44275   5.324   7.142   4.669  0.2469 -0.1087 -0.1904
29145W        W44276   3.092  12.968  13.248 -0.1051  0.0720 -0.1858
29146W        W44277  16.197  14.693  12.902  0.1584  0.0554  0.0564
29147W        W44278   0.770   0.910   0.013 -0.1173  0.2048 -0.2571
29148W        W44279   9.675  11.555   2.544 -0.2695  0.2038 -0.3981
29149W        W44280   4.172   0.344   4.089 -0.0687  0.2195  0.2088
29150W        W44281   9.307  11.738   2.941  0.3306 -0.2625  0.0221
29151W        W44282   6.530  14.196  15.196 -0.0585 -0.1960  0.0667
29152W        W44283   0.079   6.493   5.309  0.2387  0.0589 -0.3376
29153W        W44284  12.361  13.569   4.317 -0.0603 -0.1276  0.0675
29154W        W44285  18.254  17.551   3.968 -0.2189  0.1993  0.1773
29155W        W44286   7.190   4.574  12.435  0.0670 -0.2232  0.0117
29156W        W44287  17.474   7.786  10.887  0.1801 -0.1871  0.1884
29157W        W44288   6.677   3.845   1.682 -0.1657  0.0281  0.0894
29158W        W44289   5.212  12.743   3.631  0.0268  0.0437  0.3176
29159W        W44290  16.395   4.511   5.431  0.2645  0.2747  0.2635
29160W        W44291  18.320   3.632  15.546  0.1995  0.1345  0.2830
29161W        W44292   7.793  13.159   0.160 -0.0555 -0.0236 -0.1220
29162W        W44293  10.629   7.111   3.716  0.0332  0.1135  0.1135
29163W        W44294   4.811   6.487  11.459  0.2404 -0.2234  0.2649
29164W        W44295   3.603   1.069   5.672 -0.5780  0.0830  0.1418
29165W        W44296   9.734   0.154   3.188  0.0130 -0.2144  0.1654
29166W        W44297   8.935  10.075   0.592 -0.0731  0.2978 -0.3526
29167W        W44298   9.825   8.479   1.307 -0.1130  0.2228 -0.0023
29168W        W44299  18.309  12.814  14.273  0.2184  0.0183  0.1458
29169W        W44300  15.677   6.036   1.752  0.0427  0.1421  0.0754
29170W        W44301   0.051  18.266   0.573  0.2710  0.1129  0.1902
29171W        W44302   4.022   7.160  11.268 -0.2402  0.0794  0.0612
29172W        W44303   1.707   2.176  15.612  0.1654  0.1899 -0.0687
29173W        W44304   9.980  10.733   2.646  0.0218 -0.3644  0.2793
29174W        W44305  10.377   8.862   4.969  0.1779  0.1758  0.0092
29175W        W44306  17.667   5.197  13.613 -0.0124 -0.1240  0.0904
29176W        W44307  17.478  10.149   2.049  0.0341  0.0745  0.0360
29177W        W44308   0.727   0.596   3.358 -0.1246 -0.2339 -0.0495
29178W        W44309   1.945   0.390  11.359 -0.0288  0.0380 -0.1591
29179W        W44310   6.675   8.307   2.910 -0.3222  0.0262  0.0499
29180W        W44311   5.878   3.857  16.058 -0.0462  0.0243 -0.0573
29181W        W44312  12.056   4.539  13.448 -0.0384  0.0267 -0.0559
29182W        W44313   5.932   6.892  12.249 -0.2662 -0.3397 -0.0893
29183W        W44314   7.547  16.149   1.611  0.0035  0.2837 -0.1434
29184W        W44315   9.478   8.072   1.142 -0.2276 -0.0262  0.1816
29185W        W44316   5.868   1.628   1.986 -0.2946  0.0460  0.0597
29186W        W44317   3.129  12.431  13.913  0.1602  0.1546  0.0180
29187W        W44318   4.078  14.546  13.688 -0.0238  0.0031  0.0221
29188W        W44319  16.319   2.058   0.906  0.0947 -0.1528  0.1833
29189W        W44320   6.023   4.132   4.831 -0.0608 -0.1255 -0.3159
29190W        W44321  10.865   6.311  13.716 -0.0511  0.1210  0.0374
29191W        W44322  14.787   2.384   2.896  0.0427  0.2867 -0.2448
29192W        W44323   0.902   4.014  13.257  0.4209  0.3463  0.1410
29193W        W44324   8.622   8.229  10.986  0.2007 -0.1274  0.0135
29194W        W44325  12.134  16.559  13.579  0.0228  0.3028  0.0626
29195W        W44326   2.298   0.603   5.185  0.0130  0.1203 -0.0943
29196W        W44327  14.673   2.710  10.566 -0.2082  0.1010  0.1059
29197W        W44328  10.888  12.420  14.037  0.0605 -0.2709 -0.1299
29198W        W44329   9.895  17.103   0.630 -0.0762  0.0587 -0.1697
29199W        W44330   4.202  14.291   4.413  0.1321 -0.1138 -0.1206
29200W        W44331   1.513  11.366  12.749  0.2710 -0.2854 -0.1656
29201W        W44332  14.483   7.606   1.697  0.0968  0.0760 -0.0417
29202W        W44333  10.967   9.109   3.112  0.0137 -0.0818  0.2004
29203W        W44334   6.021   5.752   3.594  0.4898  0.3744  0.1048
29204W        W44335  11.052  16.114   5.100 -0.0242 -0.0712  0.0501
29205W        W44336  10.813   3.299  12.554 -0.2145 -0.2588  0.2700
29206W        W44337   7.518   0.466  12.683 -0.1783 -0.1675 -0.1538
29207W        W44338  14.228   3.921   5.267 -0.0437 -0.1065 -0.0646
29208W        W44339  16.775  12.714  10.891 -0.0085 -0.1022 -0.0924
29209W        W44340  12.386  11.902   0.452  0.0871 -0.2014  0.1606
29210W        W44341   5.004   0.427   2.858  0.0238  0.1218 -0.1476
29211W        W44342  11.406   9.630  13.880  0.3763 -0.0642  0.2485
29212W        W44343   8.216   1.592  11.809 -0.3198 -0.2380  0.1573
29213W        W44344  10.719  13.653   0.581 -0.1346  0.0623 -0.2636
29214W        W44345   3.061   3.345  12.548  0.3205  0.0868  0.0510
29215W        W44346   5.285   6.108   5.176  0.1792  0.0255 -0.3719
29216W        W44347   0.462  13.213  14.005  0.1402 -0.0540 -0.0524
29217W        W44348  15.819  18.197  11.240  0.3061 -0.1232 -0.0493
29218W        W44349  11.914  17.390   1.369  0.2496 -0.3452  0.1934
29219W        W44350   2.012  10.403   3.212  0.2891 -0.0932 -0.1773
29220W        W44351   4.165   8.717   4.050  0.1776 -0.3201 -0.3373
29221W        W44352   6.233  16.813   0.599  0.0311 -0.1850  0.3313
29222W        W44353   9.074  10.001   4.118  0.0205  0.1429  0.0209
29223W        W44354  14.014  12.440  10.277 -0.0922  0.1551  0.1111
29224W        W44355   4.530  10.290   3.578 -0.3189 -0.2255  0.2001
29225W        W44356  10.936   5.464   2.038 -0.0861  0.1292  0.2458
29226W        W44357   3.247   9.143   3.594 -0.1227 -0.2236  0.1154
29227W        W44358   6.886  14.057   3.635 -0.2848  0.1665  0.1669
29228W        W44359  13.731   8.074   2.218  0.1760 -0.1316  0.0043
29229W        W44360   9.691   9.890   2.563  0.2934 -0.1686  0.1800
29230W        W44361  10.344  13.307  13.285 -0.0236  0.1617  0.1794
29231W        W44362  14.519   5.210   4.556  0.2388  0.1832  0.0852
29232W        W44363   8.716  17.226  15.816  0.1047  0.1308  0.1177
29233W        W44364  13.512  15.722  10.341 -0.0694 -0.0009  0.0485
29234W        W44365   7.584   5.831   1.015  0.0467  0.1253  0.3069
29235W        W44366  17.115   3.746   3.710  0.0424 -0.2491  0.0895
29236W        W44367  16.190  15.062   3.911  0.0254  0.2586  0.1521
29237W        W44368   5.514   6.883   2.463 -0.2645 -0.0464  0.4153
29238W        W44369   3.217  16.124   1.193  0.0263  0.1513 -0.0496
29239W        W44370  11.406   9.339   3.205 -0.1002  0.0530  0.5273
29240W        W44371  17.581   9.048  12.591  0.0817  0.3233  0.0244
29241W        W44372  17.677  11.615  13.332 -0.1473 -0.1503 -0.0983
29242W        W44373   8.882  11.817  15.452  0.0067 -0.2519 -0.0331
29243W        W44374   7.469  12.681  12.149 -0.0206 -0.0927  0.1808
29244W        W44375   3.975   3.258   5.477 -0.3054 -0.2563  0.2119
29245W        W44376   3.025  14.510  14.092 -0.0571  0.1054 -0.2435
29246W        W44377   8.793   2.306   4.026  0.3335 -0.0137 -0.1851
29247W        W44378  15.041   6.226   9.971  0.1709 -0.0856 -0.0793
29248W        W44379   5.263   3.420   5.086 -0.2789  0.2166  0.0028
29249W        W44380   9.557   7.093  15.724 -0.0056  0.2136 -0.1399
29250W        W44381   9.413  13.984  15.911 -0.0420 -0.0410 -0.1213
29251W        W44382  12.134   1.160   0.403  0.1309 -0.2108  0.1069
29252W        W44383  16.039  10.902   1.366 -0.1114 -0.2949  0.3698
29253W        W44384  17.704  14.403   3.966  0.1644 -0.0295  0.0088
29254W        W44385  12.518  10.515  15.881  0.1983  0.1414  0.1111
29255W        W44386  16.609  13.075  15.317  0.1008  0.0681 -0.2614
29256W        W44387   8.376   0.171  11.245  0.0366  0.2596  0.0955
29257W        W44388   9.065   2.856  13.048  0.0939  0.1532  0.0501
29258W        W44389   6.875  10.824  13.549  0.1337  0.0962  0.0606
29259W        W44390  12.006  11.219  12.631  0.1310 -0.2459  0.2809
29260W        W44391  14.358   6.641  13.464 -0.1300 -0.0461  0.2427
29261W        W44392  14.232   6.869   3.531 -0.1809  0.0539  0.1178
29262W        W44393   0.501  13.248  10.632  0.2395 -0.2202  0.1352
29263W        W44394   3.276  17.896   3.316  0.2784  0.1440 -0.1222
29264W        W44395  12.558   0.053   4.825  0.2783  0.1740  0.2276
29265W        W44396   1.025  10.801  14.828  0.0385  0.0182 -0.0219
29266W        W44397   4.318  14.076   0.872  0.3270 -0.2491 -0.0061
29267W        W44398   0.149   0.460   5.366 -0.5642 -0.3236  0.3309
29268W        W44399   4.347  13.850   2.560 -0.2082  0.0681 -0.0330
29269W        W44400  15.434  16.724  15.810  0.2521  0.3821 -0.0130
29270W        W44401  17.260  16.818   3.502 -0.3347 -0.0349  0.1740
29271W        W44402  12.054  14.519  15.091  0.0981 -0.0213 -0.3626
29272W        W44403   8.434  14.232   3.965  0.1940  0.2386  0.0196
29273W        W44404  18.092   8.650   0.151  0.2812  0.1919  0.0383
29274W        W44405  17.612   6.877  10.499 -0.0941 -0.3944 -0.0415
29275W        W44406  15.915   1.823  14.150 -0.0973  0.1816 -0.1290
29276W        W44407  12.227   5.996  14.482  0.1641 -0.0662  0.0824
29277W        W44408   2.411   1.979  15.127 -0.2034 -0.1720  0.1491
29278W        W44409   5.093   8.023  11.641  0.1440  0.4038 -0.0145
29279W        W44410  13.690   1.556   4.262 -0.1370  0.2894  0.1177
29280W        W44411   8.484   1.780  13.874 -0.2283  0.3209 -0.1476
29281W        W44412   0.569  18.047  16.018  0.0094 -0.2238 -0.3687
29282W        W44413  15.439  13.618  14.143  0.2300 -0.0716 -0.1825
29283W        W44414  14.563  11.948   1.904  0.1982  0.2437 -0.0669
29284W        W44415   9.555  11.146  12.028  0.2697  0.1193 -0.0969
29285W        W44416   6.297   7.163  14.867  0.0985 -0.1434 -0.0072
29286W        W44417   2.136  13.798   4.991  0.1702 -0.0307 -0.0510
29287W        W44418  11.648   5.156  15.492  0.2052  0.0875 -0.3784
29288W        W44419   5.839   4.964  12.921  0.4273  0.1168  0.3310
29289W        W44420   5.751  15.788  12.472  0.2043  0.0746  0.0148
29290W        W44421   7.099   6.219   4.341  0.2236 -0.2695 -0.2962
29291W        W44422   9.544  11.560   4.207 -0.2811  0.1544  0.0133
29292W        W44423  13.114  16.237   3.186 -0.0399 -0.4160  0.1492
29293W        W44424   4.448  14.333  13.303  0.0624 -0.0299 -0.1990
29294W        W44425  10.623   4.557  15.223  0.0264  0.1131  0.1998
29295W        W44426  10.335   2.248  13.967 -0.2738 -0.0565 -0.0668
29296W        W44427   8.024   1.570   0.271  0.0034  0.0547  0.0447
29297W        W44428   0.602  16.232  14.494 -0.0274  0.1884  0.1325
29298W        W44429  10.972  16.642   2.511 -0.0761  0.1490 -0.1561
29299W        W44430   2.883  15.335   1.497 -0.0037 -0.2321 -0.3218
29300W        W44431   6.145   7.996   1.554  0.0053 -0.1785 -0.0859
29301W        W44432  14.495  12.149  13.427 -0.3708  0.1083  0.2128
29302W        W44433  15.211  13.987   1.804 -0.0213 -0.2351  0.1695
29303W        W44434  14.166   5.039  12.710  0.1674  0.1629  0.2460
29304W        W44435   6.789   3.058  11.215  0.0587 -0.1573  0.1279
29305W        W44436  15.189  16.746  10.318  0.1242 -0.0336  0.0103
29306W        W44437   0.477   5.545   5.389 -0.5362 -0.0634 -0.1449
29307W        W44438  14.837   2.128   0.005 -0.0872  0.1246  0.0155
29308W        W44439  16.324  15.961  13.392  0.1590 -0.1817 -0.0685
29309W        W44440  17.156   4.009  14.576 -0.1371  0.0238 -0.0207
29310W        W44441   1.255  13.700   3.509 -0.3355  0.1890  0.3468
29311W        W44442  15.457  13.954  15.645  0.3308 -0.0583  0.1370
29312W        W44443  13.097  13.597  13.314  0.0045 -0.0064  0.0515
29313W        W44444  18.123  10.222  13.401  0.2617 -0.2086  0.2028
29314W        W44445   0.569  14.779   4.362  0.0942 -0.1254  0.1180
29315W        W44446  11.181  16.602  10.692 -0.1459  0.0864  0.1478
29316W        W44447   1.393   0.334   4.879 -0.3977 -0.1931  0.1151
29317W        W44448  10.424  17.601   1.975 -0.1499  0.2872 -0.2865
29318W        W44449  17.141  14.836   1.963  0.0074 -0.4647  0.2196
29319W        W44450   9.632  17.402   5.233  0.1248  0.1408 -0.0871
29320W        W44451   9.666  12.222  14.823 -0.1756 -0.1786  0.0515
29321W        W44452   6.572  12.535  15.007  0.1944 -0.2037 -0.0517
29322W        W44453   7.967  10.277   1.485  0.1038 -0.2162  0.0210
29323W        W44454  14.243  10.499  15.698 -0.0577  0.0050 -0.0708
29324W        W44455  16.219   7.593  10.967  0.1067  0.0860  0.1369
29325W        W44456   0.245  11.436  14.823  0.1999 -0.2322  0.4249
29326W        W44457  18.155   2.751  15.144  0.2242 -0.0146 -0.0154
29327W        W44458  18.000  14.594   4.393 -0.1655 -0.1993 -0.0384
29328W        W44459  10.818   6.495   2.934  0.1339  0.3454 -0.1234
29329W        W44460   0.630  13.153  14.529  0.1020 -0.0351  0.3211
29330W        W44461   6.032  17.547   4.259  0.2915 -0.3101 -0.3364
29331W        W44462  14.656  15.378   4.338  0.1245  0.0660 -0.3784
29332W        W44463   7.464   0.620  10.327 -0.0589 -0.0589  0.1249
29333W        W44464   2.894  13.877  13.079  0.0954 -0.3062  0.0901
29334W        W44465   3.067   4.631   2.568  0.2840  0.1593  0.2057
29335W        W44466   0.522   4.096   2.428 -0.1790  0.1124 -0.1201
29336W        W44467  10.469   0.114   3.178 -0.2185 -0.0787 -0.0830
29337W        W44468   4.394   8.820  11.528  0.0249  0.0076  0.0825
29338W        W44469  12.638  14.616   4.128  0.0969  0.3221 -0.1802
29339W        W44470   8.839  15.460  12.579  0.0957 -0.1428 -0.1778
29340W        W44471   8.148  12.102   3.987  0.0238  0.1096  0.1759
29341W        W44472   1.729   2.267   0.458  0.1836 -0.0968  0.0443
29342W        W44473   5.775   3.391  12.829  0.2146  0.0122 -0.0560
29343W        W44474   0.794  16.408   3.222  0.1306 -0.0237  0.0715
29344W        W44475   1.229   4.703   3.672  0.4161 -0.2129 -0.1298
29345W        W44476  15.863   9.840   5.014 -0.1002 -0.0013  0.2781
29346W        W44477  14.183  11.149   0.274 -0.0900 -0.0824 -0.1526
29347W        W44478   0.330   5.750  10.150  0.0421  0.2136  0.1904
29348W        W44479  17.313  13.687  11.897  0.0710 -0.2093 -0.0369
29349W        W44480   5.584   4.713   3.343 -0.1807  0.2987 -0.0046
29350W        W44481  12.801   2.075  12.830 -0.0071 -0.1357  0.0037
29351W        W44482  13.001  12.062  11.917  0.2053 -0.1639  0.3009
29352W        W44483   1.523   6.458  12.382 -0.1037 -0.0561 -0.0358
29353W        W44484   1.473  16.635   1.584  0.3941  0.0619 -0.0144
29354W        W44485   2.518  16.455  14.300  0.1810 -0.0283  0.1709
29355W        W44486  14.069  16.191   0.945  0.0591  0.0720  0.2486
29356W        W44487   3.408   6.686   5.480 -0.0347 -0.0501 -0.2912
29357W        W44488   4.471   3.057   2.932  0.3757  0.2561 -0.1126
29358W        W44489  16.639  12.273   0.678  0.0335  0.2265  0.2434
29359W        W44490   0.866  11.758   0.652 -0.1545 -0.3735  0.0888
29360W        W44491   9.474   1.977  16.033  0.0546  0.1024 -0.1146
29361W        W44492   1.706  15.895  13.084  0.0952  0.0323  0.1355
29362W        W44493   2.133   3.606  14.290  0.0792  0.4672  0.2016
29363W        W44494  17.461   2.543  11.404  0.0842 -0.1978  0.0311
29364W        W44495   5.297   2.046   1.588 -0.1525 -0.0621 -0.2027
29365W        W44496  16.834  10.694   4.676  0.1637 -0.0730  0.2738
29366W        W44497   2.440   6.304  13.082 -0.0986  0.3057  0.0033
29367W        W44498   5.759  15.546   0.649  0.3041 -0.0829 -0.0078
29368W        W44499   3.943   0.371   4.633  0.0570 -0.2879  0.3094
29369W        W44500  13.996   1.332  10.819  0.0750  0.2550  0.2138
29370W        W44501  17.525   4.888   0.187  0.0294 -0.1325 -0.3013
29371W        W44502   1.753   3.150   5.241  0.2195  0.6163  0.2526
29372W        W44503  13.326   1.188   4.954 -0.5329  0.2631  0.0581
29373W        W44504  16.404  13.571  12.040  0.1372 -0.2754 -0.1947
29374W        W44505  12.343   3.417   3.364 -0.0402  0.0726  0.2916
29375W        W44506  10.835  15.308   9.932 -0.2538  0.2557 -0.0368
29376W        W44507  10.802   9.907   0.082  0.0983 -0.2026 -0.0480
29377W        W44508   5.940  15.860  11.240  0.0834 -0.0291 -0.3752
29378W        W44509   2.528  12.819   3.920 -0.1141 -0.1117 -0.2496
29379W        W44510   2.439   1.246  13.950 -0.0611  0.0520 -0.1414
29380W        W44511  14.067   3.771  11.454  0.1346 -0.0686 -0.2057
29381W        W44512  17.063   3.198  10.889 -0.1197  0.1486 -0.1275
29382W        W44513   6.708  14.903   1.590 -0.0167 -0.0731  0.4627
29383W        W44514   1.240   6.675   4.196 -0.0478 -0.0914 -0.1839
29384W        W44515   6.003   0.251   4.381 -0.0787  0.0651  0.1160
29385W        W44516   9.279   6.478   2.324  0.0432  0.1938 -0.1410
29386W        W44517  14.871   9.981   3.009 -0.0647 -0.1753  0.0771
29387W        W44518   1.332  10.469  14.567  0.2836 -0.1251 -0.1984
29388W        W44519  15.980   8.580  13.377 -0.2282  0.1433  0.1504
29389W        W44520  10.759  12.513  14.581  0.1449 -0.1641 -0.3356
29390W        W44521   4.372   9.816   2.881 -0.1188  0.0214  0.0573
29391W        W44522   9.257   2.601   3.428 -0.0845  0.0359 -0.2072
29392W        W44523   2.910  13.964  11.760 -0.0392 -0.2538 -0.1338
29393W        W44524   1.741  14.362   2.197 -0.2795  0.1198  0.2976
29394W        W44525   8.204  11.105  13.737 -0.2974  0.0460 -0.0773
29395W        W44526   8.429  14.398   4.978 -0.0147  0.0331 -0.0607
29396W        W44527   7.647   7.562  10.700 -0.2590  0.0748  0.3237
29397W        W44528   1.934  16.362   2.429 -0.2279 -0.1816 -0.3017
29398W        W44529   8.210  18.118  15.724  0.1162 -0.2257  0.3655
29399W        W44530  12.145  17.206  11.444  0.1539 -0.2387 -0.3303
29400W        W44531   8.528  14.411   4.423  0.1740  0.0833 -0.0455
29401W        W44532   0.593   0.119  12.665 -0.3175 -0.1610 -0.2255
29402W        W44533  12.444  16.010  14.064 -0.1641  0.0366 -0.1653
29403W        W44534   0.220   1.217  11.893  0.2251  0.0511 -0.0011
29404W        W44535  12.553   0.228   3.252 -0.0236 -0.1405 -0.0597
29405W        W44536  15.338   9.667  13.416  0.0231  0.1947 -0.0261
29406W        W44537  11.531   0.414   1.129  0.3644 -0.1473  0.4521
29407W        W44538  13.245   7.827  11.847 -0.1956 -0.0381 -0.0000
29408W        W44539   1.821   0.401   5.181 -0.4095 -0.1220 -0.1136
29409W        W44540   3.922   0.592  14.008  0.3260 -0.0851 -0.0857
29410W        W44541  13.763  17.063   3.327  0.1453 -0.2894  0.1138
29411W        W44542   0.097   2.223  12.901  0.0033  0.0260 -0.1253
29412W        W44543   4.621   7.509   1.491  0.1807  0.0492 -0.0828
29413W        W44544  14.064   3.002  12.026  0.0916 -0.1377 -0.1170
29414W        W44545   5.393   4.721  14.428  0.1919 -0.1058 -0.1258
29415W        W44546   6.075   4.566   4.997 -0.0863 -0.0663 -0.3025
29416W        W44547  10.089  13.593  16.007 -0.1405 -0.3447  0.1826
29417W        W44548  17.904  16.006  13.319  0.1568  0.2077 -0.0371
29418W        W44549  10.605   1.225   3.519 -0.0940  0.1738 -0.1637
29419W        W44550  13.054  12.691   0.319  0.0824  0.0036 -0.2748
29420W        W44551   3.351  13.221   0.845 -0.1926 -0.0561 -0.0384
29421W        W44552   2.183   1.316  10.791 -0.0622  0.0593  0.0435
29422W        W44553   3.528  10.777   3.084  0.0812 -0.2293  0.2621
29423W        W44554   3.036  13.432  13.159 -0.0877 -0.0909  0.0385
29424W        W44555   5.915   2.751   4.178 -0.3173  0.0093  0.1383
29425W        W44556  13.123   3.800   1.631 -0.3747 -0.2263 -0.1733
29426W        W44557  17.117  14.834   0.278 -0.1093  0.3659  0.1213
29427W        W44558  11.642   5.964  14.882  0.1236  0.2340 -0.4320
29428W        W44559   5.107  13.472  10.705 -0.0292 -0.0512  0.1061
29429W        W44560  10.610  10.931   2.448 -0.0674 -0.0482 -0.2635
29430W        W44561  10.777  16.620  13.892  0.2804  0.1165  0.2511
29431W        W44562   7.583  12.740  13.142  0.0815  0.0558 -0.0726
29432W        W44563  11.466   6.984   2.347 -0.0692 -0.1938  0.1821
29433W        W44564  12.559   1.712  11.654  0.0549  0.0301 -0.2058
29434W        W44565   9.761  13.776  12.215 -0.0918  0.0367  0.2253
29435W        W44566   2.248   8.118  15.779 -0.2748  0.2053 -0.0039
29436W        W44567  12.366   9.597  13.600 -0.0098  0.0347  0.2046
29437W        W44568   7.389  14.875  11.498  0.1541 -0.1135  0.1648
29438W        W44569  18.051  16.344  11.208 -0.4483 -0.0061 -0.4532
29439W        W44570   0.089  11.333  11.708 -0.3961 -0.1119 -0.3096
29440W        W44571  17.564   0.863   2.792 -0.0403  0.1111 -0.2615
29441W        W44572   8.576   6.307   3.514  0.1540  0.0018 -0.0221
29442W        W44573  14.159  17.193   4.127  0.0794  0.4601 -0.2631
29443W        W44574   4.447   7.093   0.546 -0.1776  0.2473  0.0889
29444W        W44575   2.039   0.471   1.548  0.1440 -0.1031 -0.0801
29445W        W44576  15.116  10.378   4.159  0.0889 -0.1766 -0.0919
29446W        W44577   8.534  12.822   4.652  0.2693 -0.3576  0.3063
29447W        W44578   4.963   0.955  14.970 -0.1804  0.2392  0.0887
29448W        W44579  12.075   3.366  14.223 -0.0434  0.2158  0.1872
29449W        W44580  18.126  13.783   0.729  0.2221  0.3179  0.2553
29450W        W44581   7.988   3.073   1.055  0.0377 -0.3771  0.0378
29451W        W44582   6.038  10.880   2.818  0.1637  0.4573  0.0147
29452W        W44583  14.218  13.644  12.638  0.0476  0.2454 -0.0192
29453W        W44584   3.270  12.411   2.989 -0.0305 -0.1867 -0.1129
29454W        W44585   9.423   8.391  11.509  0.0872  0.3340 -0.0292
29455W        W44586  17.428   5.527  15.621  0.1232  0.2495 -0.2842
29456W        W44587   8.465   1.477   5.091  0.0114 -0.0260  0.3218
29457W        W44588   0.581  16.380   0.718  0.0871 -0.0948  0.1515
29458W        W44589  14.987   4.206  14.113  0.0305 -0.0668  0.0201
29459W        W44590   0.925   1.756  12.687  0.1975 -0.1937  0.1297
29460W        W44591   0.343   9.692   2.033  0.1727 -0.0241 -0.2016
29461W        W44592  13.931  15.753  15.336  0.1219  0.2774 -0.1111
29462W        W44593   6.756   3.786   4.210 -0.0412  0.1775  0.1712
29463W        W44594   2.348   7.208  10.953 -0.0923 -0.1934 -0.0746
29464W        W44595   7.671  18.076  15.893  0.0760  0.2097  0.1199
29465W        W44596  16.396   0.943  12.354 -0.2086  0.1740  0.1279
29466W        W44597   4.239  16.126   3.245 -0.1039 -0.0879 -0.1827
29467W        W44598  12.774  10.980  13.453  0.0292  0.1562 -0.0761
29468W        W44599   8.781  14.486   5.949  0.1061  0.0349 -0.5570
29469W        W44600   5.597   5.171  14.491 -0.0439  0.1288  0.1356
29470W        W44601   5.754  10.883  15.422  0.0820  0.0991  0.1673
29471W        W44602  17.253   4.628   0.536 -0.0558 -0.0508  0.1840
29472W        W44603   5.955   5.559  11.082 -0.0151  0.1888  0.0241
29473W        W44604  11.129  10.283   1.193  0.1789  0.2734  0.0709
29474W        W44605   7.608  15.642  14.931  0.0794 -0.2044  0.3035
29475W        W44606  17.472   5.229   2.615  0.1897 -0.0460 -0.2239
29476W        W44607  16.981   1.734  15.484  0.0427  0.1911  0.0859
29477W        W44608  14.573   9.638  15.967 -0.1288  0.0785  0.0719
29478W        W44609   5.198   6.698  11.228  0.2469  0.2344 -0.1644
29479W        W44610  16.643   8.822  14.535  0.1518 -0.2068  0.0382
29480W        W44611   7.081   1.448  16.029  0.1458  0.1766  0.4044
29481W        W44612   7.072  12.232   0.562 -0.0991  0.2133  0.1448
29482W        W44613   6.967   7.830   0.112  0.0074  0.0125 -0.0511
29483W        W44614  12.068  13.311   9.502  0.0678  0.0406 -0.0808
29484W        W44615  18.224   1.240   1.953  0.3297 -0.1364 -0.1427
29485W        W44616  18.142  15.296   4.577 -0.1570  0.3218 -0.0887
29486W        W44617   1.315   3.947  12.001  0.0290 -0.1009  0.2189
29487W        W44618   2.234   7.684   4.084  0.0806  0.2245  0.1555
29488W        W44619   4.716   0.365   1.367  0.2208 -0.1751  0.1836
29489W        W44620  15.607   1.184   5.478  0.0771  0.1429 -0.1064
29490W        W44621   3.421   4.752   1.318 -0.1541 -0.0750  0.2191
29491W        W44622  11.833   7.934   2.696  0.0499  0.1896  0.1505
29492W        W44623   0.059  16.772   4.863  0.1955  0.1685 -0.0379
29493W        W44624  13.716   0.527   2.426  0.1469 -0.1837  0.0968
29494W        W44625  10.693  13.236  12.741  0.1225 -0.0648  0.3331
29495W        W44626   6.706  13.060  11.008 -0.2241 -0.1776 -0.1093
29496W        W44627   4.715  17.805  13.570 -0.1266  0.1929 -0.2256
29497W        W44628  17.992   1.964  12.856 -0.0266 -0.0965 -0.1151
29498W        W44629  16.599  12.164  15.216  0.0412 -0.1092 -0.1503
29499W        W44630  15.534   2.894   5.642 -0.4442 -0.0653  0.0460
29500W        W44631   2.994  14.828   1.500  0.1253 -0.1400 -0.0772
29501W        W44632  15.384   3.036  14.598  0.0065  0.1510  0.2616
29502W        W44633  11.311   7.425   2.615 -0.2761 -0.1856  0.0995
29503W        W44634   9.019  14.853  13.414  0.3178  0.1832 -0.1475
29504W        W44635   6.840   2.488   4.017  0.1784  0.3046 -0.2651
29505W        W44636   9.982   0.172   0.138  0.3785 -0.0459 -0.2118
29506W        W44637   4.997  14.845  13.634 -0.2268 -0.0002 -0.0960
29507W        W44638   9.826   5.172  12.688  0.1682 -0.0137  0.1615
29508W        W44639  16.556  14.037   3.303 -0.0831 -0.3298  0.1628
29509W        W44640   2.680   8.548   0.262  0.1408 -0.1849  0.4085
29510W        W44641   0.358   1.707  15.865 -0.0047 -0.2723  0.1244
29511W        W44642   8.475   9.039  16.035  0.1137  0.0299  0.1117
29512W        W44643  10.003  12.956  13.082  0.2057 -0.0976 -0.2387
29513W        W44644   2.371   5.175   0.004  0.0317  0.0875 -0.3169
29514W        W44645   0.376  17.215  14.362  0.0254 -0.1503 -0.2109
29515W        W44646   6.925  17.310  13.078 -0.0179 -0.1725 -0.3671
29516W        W44647  13.878  10.803  11.186 -0.1365 -0.1576  0.1984
29517W        W44648   9.412  16.319   5.219  0.1515  0.0854  0.3059
29518W        W44649  12.025   6.844   0.226 -0.1498  0.0479  0.1455
29519W        W44650   3.525   0.266   5.538 -0.1567 -0.1799 -0.1404
29520W        W44651  18.148  15.349  14.001  0.2357 -0.2887 -0.4051
29521W        W44652  11.313   2.021  11.642  0.3496 -0.1835  0.1077
29522W        W44653   3.027  16.244  13.165  0.0444 -0.3675 -0.2584
29523W        W44654   0.077  17.853   1.585  0.1239 -0.2713  0.0274
29524W        W44655  11.074  13.791   3.458 -0.1850 -0.0477 -0.2739
29525W        W44656  14.369  12.665  11.041  0.2838  0.2599  0.2205
29526W        W44657   3.478   4.510  15.158  0.0102 -0.2336 -0.2984
29527W        W44658  10.474   5.630   2.077 -0.3085  0.3425 -0.0016
29528W        W44659   7.919   8.551   4.527 -0.3869 -0.1481  0.0253
29529W        W44660   6.389   2.833   4.485 -0.1154  0.0929 -0.0421
29530W        W44661  16.350  18.261  13.822  0.2199 -0.4407 -0.1434
29531W        W44662  15.811   8.286  12.074 -0.0448  0.3155  0.0116
29532W        W44663   2.702   4.819  12.131  0.2500  0.0539  0.1479
29533W        W44664   0.572  13.672   5.078 -0.0983 -0.2087 -0.1278
29534W        W44665   5.288  15.845   3.386  0.0868  0.0969  0.0005
29535W        W44666   4.746  14.476   2.977 -0.1569  0.2117 -0.1786
29536W        W44667   4.059   9.297  11.247 -0.2581 -0.1170 -0.0136
29537W        W44668   9.030   3.825  16.102  0.3898  0.0157 -0.6130
29538W        W44669   8.653  15.002  12.468  0.0927 -0.0594  0.2733
29539W        W44670   3.582  12.724   1.575 -0.1933  0.1156  0.0024
29540W        W44671   7.713   0.971   5.661  0.1548  0.2335  0.3120
29541W        W44672   5.466   3.651   3.075 -0.0370 -0.1531  0.0776
29542W        W44673  16.317   1.708   4.547 -0.4048 -0.3525  0.1402
29543W        W44674   7.452   6.931   3.882 -0.1694  0.0534  0.2020
29544W        W44675  14.330  12.389   1.138 -0.1670  0.5894 -0.1534
29545W        W44676  17.979  11.016  14.207 -0.1845  0.3087 -0.2638
29546W        W44677   8.204  14.947  15.499  0.3054 -0.1570  0.0326
29547W        W44678   1.123   9.483   1.495  0.0438 -0.1764  0.1077
29548W        W44679   1.983  14.226   2.936  0.0747 -0.2420 -0.2729
29549W        W44680  16.481   8.554   4.255  0.1023  0.0347  0.3158
29550W        W44681   9.136   6.672  10.160  0.1673 -0.0626 -0.0049
29551W        W44682   0.490   7.000   5.162 -0.0061 -0.2216 -0.0678
29552W        W44683   2.752  16.499   2.946 -0.0355 -0.1945  0.0534
29553W        W44684   6.226  11.714   4.099 -0.0552  0.4991  0.1489
29554W        W44685   8.925  16.901   2.709  0.0571 -0.0942 -0.1054
29555W        W44686  15.805  17.316   5.963 -0.2765  0.0142 -0.0675
29556W        W44687  11.394   1.093   3.977  0.1487 -0.0331 -0.0389
29557W        W44688  15.363   8.192  12.696 -0.0859 -0.0523  0.3046
29558W        W44689  10.307   4.461  16.073 -0.1674  0.0225  0.1155
29559W        W44690  16.000  12.536  12.824  0.3283  0.1652 -0.4483
29560W        W44691   3.164  11.376  14.006  0.0184  0.0585  0.2210
29561W        W44692  13.419   4.930  12.061 -0.1421  0.0769  0.2520
29562W        W44693   2.269  18.064  13.455  0.1453  0.3160 -0.2941
29563W        W44694  17.465  12.619  11.621  0.0811 -0.1012 -0.0859
29564W        W44695  14.151  15.094   2.268 -0.1855 -0.0484  0.0462
29565W        W44696   4.197   5.951  10.981 -0.0560  0.2118 -0.1247
29566W        W44697   7.712  14.505  14.842  0.2194 -0.0447  0.1034
29567W        W44698   6.144  16.099  11.697 -0.3515  0.0979 -0.1523
29568W        W44699   5.954  17.456  13.472 -0.2755  0.1230 -0.2955
29569W        W44700   9.851   3.448   0.142  0.0965 -0.0623 -0.0801
29570W        W44701  12.100  17.999  11.884  0.1057  0.0525 -0.0643
29571W        W44702   2.992   8.512  14.586 -0.1603 -0.3456  0.2739
29572W        W44703   3.309   8.192   4.825 -0.3623 -0.0739  0.0596
29573W        W44704  13.361   2.600   0.638 -0.2272 -0.0849 -0.0736
29574W        W44705  16.880   3.806   2.627  0.0697 -0.0707  0.2371
29575W        W44706   3.935  13.737  13.161 -0.0387  0.0697  0.0700
29576W        W44707   6.113  10.531  12.882  0.0193 -0.1276 -0.0009
29577W        W44708  13.285   0.569  14.946  0.2230 -0.1802  0.0143
29578W        W44709   5.680   2.763  13.618  0.0792  0.1224 -0.2819
29579W        W44710  13.670  10.719   2.317  0.1199  0.2087  0.1174
29580W        W44711   8.800  12.772  15.429  0.1478  0.2794 -0.0110
29581W        W44712   0.750  14.057  12.835 -0.0429  0.1949  0.0176
29582W        W44713  12.996  14.074  12.222  0.2213 -0.2965 -0.0251
29583W        W44714  12.607   1.225  12.463 -0.0144 -0.3667  0.1330
29584W        W44715   3.930   7.047   1.329 -0.1263 -0.1070  0.0442
29585W        W44716  17.457  13.528   2.515 -0.0968  0.0928 -0.0612
29586W        W44717  12.738  17.464   1.821 -0.1135 -0.1554 -0.3574
29587W        W44718   8.138  11.611   1.139  0.1730 -0.0402 -0.1892
29588W        W44719  17.590  14.663  12.116  0.2050 -0.0824 -0.0859
29589W        W44720   0.622   2.815   4.503 -0.0537  0.0392  0.2079
29590W        W44721   0.470  15.847  13.508 -0.0756 -0.1919 -0.1235
29591W        W44722   2.923  18.003   2.423 -0.2866  0.1870  0.1467
29592W        W44723   5.044   1.618  13.783  0.1131 -0.1917  0.0213
29593W        W44724   4.641   4.327   5.685  0.2082 -0.3874  0.1081
29594W        W44725  11.558  15.217   0.186  0.2317 -0.0443 -0.3064
29595W        W44726   6.010  14.242  14.307  0.1326 -0.0216  0.0591
29596W        W44727  11.379   6.496  13.911 -0.1100 -0.0287 -0.0238
29597W        W44728   0.766   7.129   1.168  0.0088 -0.0824  0.1281
29598W        W44729  12.120  12.089  12.599 -0.1814 -0.1238  0.3819
29599W        W44730   5.269   2.789   1.449  0.2206 -0.1935 -0.1847
29600W        W44731   2.236   8.472  16.095 -0.0090 -0.0754  0.0441
29601W        W44732  15.819  17.477  15.374 -0.0467  0.0993 -0.2371
29602W        W44733   0.570   1.933   3.410  0.0674  0.1639  0.0112
29603W        W44734  13.675  10.373  10.998  0.1094  0.2217  0.1680
29604W        W44735  11.371   7.472  11.377 -0.3286  0.1099  0.1096
29605W        W44736  12.701  12.310   0.354 -0.1164  0.4142  0.2715
29606W        W44737  16.595   9.357  14.005  0.0914 -0.0540  0.3253
29607W        W44738   4.068   7.821   3.083  0.2613 -0.3118  0.0827
29608W        W44739   3.236   9.262   1.630  0.2590  0.0934  0.1882
29609W        W44740   4.858  16.855   1.130  0.1615 -0.1324 -0.0877
29610W        W44741  13.185   7.770   3.366 -0.0535  0.1670 -0.1376
29611W        W44742   0.124   4.696   1.820 -0.0348 -0.1741  0.0436
29612W        W44743  10.770   0.870  14.655  0.0611  0.1520  0.0862
29613W        W44744   6.946   3.398   1.744 -0.0825  0.0984 -0.2606
29614W        W44745   4.161   1.977  12.728  0.3206  0.0493  0.3620
29615W        W44746  11.031   9.488   0.140 -0.0688  0.1383 -0.1734
29616W        W44747   5.467  16.307   3.185  0.1308  0.0850 -0.0822
29617W        W44748  15.735  17.816   1.476  0.1972  0.0497  0.3803
29618W        W44749  10.653  10.809   4.335 -0.0970  0.2361 -0.0320
29619W        W44750   3.221   9.404   1.127  0.1513  0.1155 -0.1285
29620W        W44751   5.045  14.744  10.938 -0.2113 -0.0032 -0.0501
29621W        W44752  13.562  16.129  15.332  0.0687 -0.2110 -0.4163
29622W        W44753  15.538  16.619  12.347  0.1334 -0.2132  0.2726
29623W        W44754   2.987  17.833  13.491  0.0052  0.3272 -0.1754
29624W        W44755  15.455  17.789   0.640  0.1791 -0.0317 -0.2581
29625W        W44756   1.562   9.151  12.819  0.2857  0.0296  0.1084
29626W        W44757  17.590   8.536   0.052  0.4293  0.1359 -0.1692
29627W        W44758   1.568  13.135  15.829  0.4475 -0.0731  0.4288
29628W        W44759   9.869  14.645  12.432  0.0367 -0.0077  0.1088
29629W        W44760   1.009  11.206  12.051  0.0397 -0.0329 -0.3254
29630W        W44761   4.036  12.033  14.893 -0.0687 -0.0125  0.1754
29631W        W44762  14.672  16.225   0.182  0.3705 -0.1723  0.1067
29632W        W44763   2.130   0.003   4.178 -0.1152  0.2990  0.1644
29633W        W44764  14.593   3.450   1.333 -0.0005  0.0211  0.2257
29634W        W44765   5.253   9.527  15.330 -0.2793 -0.0231  0.0703
29635W        W44766   7.012   3.721  13.466  0.0629  0.2135  0.3490
29636W        W44767   5.531   8.894   4.836  0.1957  0.1209 -0.3398
29637W        W44768   0.417   3.918  11.766 -0.1877  0.2074 -0.2172
29638W        W44769  16.027  12.105   2.936 -0.2222 -0.0262  0.2699
29639W        W44770   4.355   6.304   4.421  0.1022  0.2214  0.1325
29640W        W44771  18.245  13.601  15.758  0.0498 -0.0501 -0.0420
29641W        W44772   3.825  14.339   1.005 -0.0919 -0.2458  0.0439
29642W        W44773  17.874  15.183  13.373 -0.2320  0.0202  0.0930
29643W        W44774  14.191   7.606   1.266  0.1090 -0.1989  0.0121
29644W        W44775   3.732  13.182   4.578 -0.0153  0.0522  0.2305
29645W        W44776   2.313   4.539  16.046 -0.1533 -0.0226  0.2929
29646W        W44777   3.230   0.028  10.689 -0.1568 -0.0521 -0.2114
29647W        W44778  14.801   2.814  13.740 -0.2156 -0.1640  0.0046
29648W        W44779   3.321   0.003  15.056 -0.1589 -0.2743  0.0999
29649W        W44780  14.461  15.350  13.375  0.0197  0.0922  0.0161
29650W        W44781   5.401  11.073   0.566  0.0146 -0.1225  0.1923
29651W        W44782  11.432  16.103   1.709 -0.0171 -0.0851 -0.0670
29652W        W44783  10.612  13.968  13.905 -0.0860  0.0865  0.1356
29653W        W44784   8.170   6.931   1.313  0.1397  0.0285  0.1401
29654W        W44785  12.032  10.151  12.611  0.0454 -0.0262 -0.1148
29655W        W44786   7.767   7.786  10.026 -0.0983 -0.0947 -0.2896
29656W        W44787  11.277   0.883   1.234 -0.0635 -0.1386 -0.1903
29657W        W44788   5.364   1.075   0.887 -0.0367 -0.3081  0.1514
29658W        W44789   6.808   8.803   2.122 -0.0429  0.1555 -0.1816
29659W        W44790  16.485  10.432  14.748 -0.0854  0.1268  0.1645
29660W        W44791  16.413   4.154  10.152 -0.0626 -0.0627  0.2750
29661W        W44792  17.034  12.898  14.695  0.0049  0.1985 -0.2314
29662W        W44793   8.317   5.097   2.941 -0.0025 -0.1475 -0.3669
29663W        W44794  17.386  17.243   2.446  0.1800 -0.1209  0.2282
29664W        W44795  17.692  17.352  12.129  0.0759 -0.0144  0.0146
29665W        W44796  10.944  11.368  12.727  0.2126  0.0940 -0.2499
29666W        W44797   4.353   1.497  13.494 -0.2469  0.0637 -0.1033
29667W        W44798  12.720   5.134   4.876  0.1400  0.2423  0.1459
29668W        W44799   5.148  14.180   3.056  0.0868  0.2267 -0.2700
29669W        W44800   3.144  16.263   4.243  0.1979 -0.3246 -0.0189
29670W        W44801   8.976   3.960   1.473  0.1183 -0.0476 -0.0813
29671W        W44802   0.486   8.543  13.373 -0.1122 -0.0793  0.2608
29672W        W44803   8.347   3.088   5.396 -0.0326  0.0634 -0.1125
29673W        W44804  16.698  16.558  10.960  0.1133  0.2329  0.4675
29674W        W44805   9.867  15.353  13.078  0.3924 -0.0464  0.0849
29675W        W44806   9.050   2.189   2.622 -0.1927  0.1163 -0.0330
29676W        W44807   3.775  16.973   0.140 -0.0190 -0.2724  0.0498
29677W        W44808   9.389   2.123   3.326  0.3561 -0.0103 -0.0337
29678W        W44809   7.062   1.813  12.402 -0.1090 -0.0646  0.0549
29679W        W44810   9.407   6.320   1.805  0.1787  0.0199  0.2926
29680W        W44811   3.571   9.996   5.346 -0.1152 -0.2332  0.0640
29681W        W44812  17.676  13.952   5.685  0.0203 -0.2467 -0.0141
29682W        W44813  13.702  15.807   3.910  0.1824  0.0257 -0.0079
29683W        W44814  15.522  13.535  12.136  0.0350  0.1009  0.1885
29684W        W44815   6.983   3.392   3.322 -0.0348  0.1213 -0.2014
29685W        W44816   6.637   8.598   3.365  0.3291 -0.0640  0.0780
29686W        W44817  13.784  10.545   3.596 -0.1208  0.1447  0.3134
29687W        W44818   3.352   8.423   5.274  0.2111 -0.1490 -0.5615
29688W        W44819   1.844   0.180   2.001 -0.1427  0.0257  0.0137
29689W        W44820  13.337  10.769   1.490 -0.0164 -0.3252  0.1415
29690W        W44821   0.273  16.920   0.568 -0.1017 -0.0994 -0.1515
29691W        W44822  17.613  10.179  15.449 -0.1772 -0.3150  0.1863
29692W        W44823  12.168  11.533  14.024  0.0553 -0.0655 -0.0648
29693W        W44824  16.906  11.687  14.928 -0.1211  0.3100  0.1867
29694W        W44825  10.945   0.701  11.453  0.1146  0.0698  0.1763
29695W        W44826  14.714   4.613   5.784  0.0807 -0.2610  0.2239
29696W        W44827   0.515   6.366   5.068 -0.2200  0.2169  0.1587
29697W        W44828  15.903  13.583  12.560  0.4315 -0.0298 -0.0813
29698W        W44829  11.149  14.454   0.812  0.0621 -0.0163  0.0412
29699W        W44830  12.978  13.657  12.466  0.2080  0.1016  0.1431
29700W        W44831   8.539   8.663   1.667 -0.1121 -0.1761 -0.0433
29701W        W44832  11.882  15.098  10.841  0.0149 -0.2391  0.1066
29702W        W44833   5.382  14.410  11.989 -0.1526  0.0293 -0.0061
29703W        W44834  14.936   0.377   4.593 -0.0292 -0.1458 -0.0373
29704W        W44835  16.800   9.227   1.173  0.3230  0.1558  0.1132
29705W        W44836  13.032   8.834  15.588 -0.0224  0.0288 -0.0837
29706W        W44837  12.279  10.596   3.091 -0.1219  0.1985  0.2071
29707W        W44838  16.244   3.946  14.871 -0.0948  0.0031  0.0276
29708W        W44839   0.722  14.414   3.408  0.1301 -0.0681 -0.0575
29709W        W44840   6.047  15.734  15.817  0.0043 -0.0500 -0.0938
29710W        W44841  17.069  11.219  13.864 -0.1090 -0.0460 -0.1365
29711W        W44842  13.668  16.115   5.712 -0.0284  0.2403 -0.0532
29712W        W44843  17.037  13.782   5.052 -0.1308 -0.0102 -0.0646
29713W        W44844  16.449  13.500  15.143 -0.0161 -0.2768  0.1262
29714W        W44845  11.380  17.423   1.719  0.0172 -0.0850  0.2842
29715W        W44846  17.499   6.667  15.186 -0.0609  0.2001 -0.0978
29716W        W44847  15.540   4.147  12.506 -0.0533 -0.0039 -0.0473
29717W        W44848   7.723   6.946   1.059 -0.0541 -0.0417  0.2993
29718W        W44849  13.544  10.213  10.360  0.2933 -0.0542 -0.1076
29719W        W44850  11.407  16.517  14.563 -0.2705  0.1721 -0.0562
29720W        W44851   2.517   5.458   3.890  0.2658 -0.1908  0.0343
29721W        W44852   1.001   5.040  13.790  0.0242 -0.0944  0.2895
29722W        W44853  16.513  12.881  14.512  0.1207 -0.0546 -0.1355
29723W        W44854   8.581   6.893  15.863 -0.2175 -0.2879  0.1905
29724W        W44855   4.088   7.333   5.354 -0.1284 -0.3953  0.2400
29725W        W44856   4.810   2.870  13.563 -0.0718 -0.0710  0.3595
29726W        W44857  14.293   7.472  15.184  0.1469  0.0288  0.0691
29727W        W44858   5.729  15.236   4.510  0.0951  0.0829 -0.0471
29728W        W44859  12.333   5.196   0.078 -0.0087 -0.2148 -0.0653
29729W        W44860  11.253   6.773  14.360 -0.1699  0.0333 -0.3149
29730W        W44861  11.324   6.166   0.413 -0.0305 -0.3496  0.2647
29731W        W44862  16.453  16.897  14.775 -0.1087  0.0461  0.0183
29732W        W44863   3.414   0.837   3.889  0.2609  0.4472 -0.2334
29733W        W44864  17.141  12.051   0.602  0.0480 -0.1803  0.0351
29734W        W44865  13.754   3.133   2.700 -0.0120 -0.0128  0.1547
29735W        W44866  13.180   8.711  11.419 -0.0813 -0.0073  0.0069
29736W        W44867   7.841   4.799  15.509 -0.0486  0.0402  0.1005
29737W        W44868   6.035  14.624  11.453 -0.2093 -0.0014 -0.0295
29738W        W44869   8.389   4.733  15.670  0.1384  0.0355 -0.2944
29739W        W44870  17.074   2.067   1.542  0.0489 -0.0710 -0.2921
29740W        W44871  13.608   3.816   4.601  0.0038  0.0987 -0.2745
29741W        W44872  10.577   4.279  11.284 -0.2722 -0.0605  0.0128
29742W        W44873   4.261   6.478   1.371  0.2160 -0.0271  0.1575
29743W        W44874   3.362  18.181  13.861 -0.1498 -0.0846  0.0252
29744W        W44875  16.014  14.336  13.309 -0.1855  0.1281 -0.1049
29745W        W44876   1.560   6.985  11.632 -0.0484  0.1713  0.0617
29746W        W44877   9.522   7.182   5.101 -0.0607 -0.0380  0.0751
29747W        W44878  11.029   6.606  10.967 -0.3475 -0.2241  0.3424
29748W        W44879  16.164   3.044   0.644  0.1229 -0.2723 -0.0136
29749W        W44880   2.355   4.408   0.369 -0.3576 -0.0429 -0.0362
29750W        W44881   9.891   4.058  12.413 -0.1474  0.2574  0.3426
29751W        W44882   0.716   4.461  12.424  0.1304  0.1130  0.1719
29752W        W44883   6.972  12.109  15.576 -0.0577 -0.0978 -0.1723
29753W        W44884   8.539  14.177   0.842  0.1561  0.0349 -0.0078
29754W        W44885   4.262   1.144   3.626  0.0196  0.0275  0.1422
29755W        W44886   9.027   0.722  14.390  0.3464  0.0757 -0.0799
29756W        W44887   0.083  14.726   1.775 -0.1369 -0.2221 -0.0275
29757W        W44888   7.410   1.365  12.408 -0.3443  0.1466 -0.0816
29758W        W44889   4.922  16.399   5.085  0.0249  0.1008  0.0775
29759W        W44890   5.972   8.438   3.431 -0.1026  0.1328 -0.4618
29760W        W44891   3.681  15.809   3.863 -0.0292  0.1128  0.1390
29761W        W44892   5.063   4.213  11.434  0.1801  0.0011  0.0475
29762W        W44893   1.606  10.079   1.097 -0.2784 -0.0808  0.1013
29763W        W44894  15.249  15.138  12.714  0.1022 -0.1204  0.0993
29764W        W44895  14.483   0.328   3.259 -0.0706 -0.1155  0.0670
29765W        W44896   8.423   6.786   0.320  0.1216 -0.3052 -0.1235
29766W        W44897   3.354  18.146   0.408  0.1211 -0.3116 -0.3836
29767W        W44898   4.653  17.751   2.750  0.3636 -0.2478  0.0579
29768W        W44899  18.036  12.670   4.162  0.1305 -0.2310  0.0685
29769W        W44900  13.707   6.473   2.873  0.1414 -0.0420  0.0479
29770W        W44901  13.058   6.936  13.985  0.4448 -0.2702 -0.0868
29771W        W44902   1.045   6.814  11.653  0.2408 -0.0560 -0.1011
29772W        W44903  12.681  13.965   1.094  0.0751 -0.2164  0.0518
29773W        W44904   7.042   6.039  14.599 -0.3092 -0.1926 -0.3575
29774W        W44905   3.273   8.875  11.223 -0.0913  0.1061 -0.1767
29775W        W44906  13.856  11.438  16.076  0.0216  0.1362 -0.0216
29776W        W44907   2.444   9.491   4.042 -0.2968 -0.1431 -0.1440
29777W        W44908  13.185  17.657   3.161  0.1201 -0.1382  0.0305
29778W        W44909  11.481  18.198   4.396  0.0984  0.0075 -0.2676
29779W        W44910  14.106  12.860   0.965 -0.2586 -0.3231 -0.2695
29780W        W44911  10.989  11.325   2.551  0.2235 -0.1240 -0.1315
29781W        W44912   1.524  13.423   0.610 -0.0970  0.3052  0.3377
29782W        W44913  13.175   2.697   1.542  0.0806 -0.2582 -0.0359
29783W        W44914   6.216   9.181   1.075 -0.1026  0.0454  0.2020
29784W        W44915   6.663   7.705   4.418  0.0007 -0.2959  0.2484
29785W        W44916  10.040  18.247   3.507  0.0168  0.2112  0.1549
29786W        W44917   1.851  16.173   3.363  0.2417 -0.0226  0.1964
29787W        W44918   5.970  12.228  13.061  0.2089  0.0758 -0.0393
29788W        W44919   5.258   9.153   5.774 -0.1183  0.0519 -0.1081
29789W        W44920   9.986   3.058   1.930  0.1521  0.1875 -0.2146
29790W        W44921  14.766  13.476  15.935 -0.1179 -0.3166  0.1045
29791W        W44922  15.186  14.371  10.975  0.3248 -0.1168  0.0426
29792W        W44923  15.088   4.627  13.677  0.1765 -0.1926  0.0466
29793W        W44924  13.136  17.437   2.663 -0.2022 -0.1832  0.2096
29794W        W44925   6.902   6.121   1.665 -0.0545  0.2196  0.0738
29795W        W44926   7.439   1.347   3.668  0.0333 -0.1110 -0.0854
29796W        W44927   4.121   1.955   3.990 -0.1710 -0.2032 -0.0213
29797W        W44928   4.210  10.317  14.931  0.0532 -0.1899 -0.2352
29798W        W44929  11.476   3.534  10.550  0.3198 -0.1142 -0.1623
29799W        W44930  13.451  17.008  14.121  0.2763  0.2062 -0.0286
29800W        W44931  11.378  10.832   4.868  0.4402 -0.1655  0.1573
29801W        W44932   5.752  17.096   4.282  0.4242  0.1125  0.1940
29802W        W44933  11.850  14.589   1.881  0.3740 -0.0131  0.0601
29803W        W44934   6.448   4.155  14.536 -0.0805  0.1799 -0.1585
29804W        W44935  10.875  10.928   4.753 -0.1284 -0.0924  0.0258
29805W        W44936  16.084   9.835   3.258  0.0057 -0.2260  0.1497
29806W        W44937   7.799   2.488  11.124  0.0604  0.2795 -0.0954
29807W        W44938   3.818  17.328  13.549 -0.1116  0.1750 -0.0120
29808W        W44939   9.851  13.524   4.175  0.2407  0.0540 -0.2351
29809W        W44940  15.875  10.531   1.600 -0.2327 -0.0574 -0.3193
29810W        W44941   8.561   5.715   0.876  0.1207 -0.0883 -0.1256
29811W        W44942   0.236  13.619  12.101  0.1305  0.0537 -0.1254
29812W        W44943   3.788   3.202  15.896 -0.0077  0.2235 -0.1085
29813W        W44944   2.071  17.238  13.109 -0.1337 -0.1490  0.1487
29814W        W44945   7.584  12.472   1.606  0.1115 -0.0128  0.1798
29815W        W44946   4.990   0.963  11.639  0.1058 -0.3300 -0.0027
29816W        W44947   2.273  11.835  13.729 -0.3178  0.3259  0.1177
29817W        W44948   4.845   3.618   4.373 -0.1088 -0.2565  0.2290
29818W        W44949   3.538  11.867   1.942 -0.2304  0.2057 -0.0393
29819W        W44950   5.599   4.701   2.808 -0.0716  0.0990 -0.1384
29820W        W44951   3.901   0.868  12.090  0.0973  0.0400  0.5700
29821W        W44952   2.993  11.113   2.435 -0.1045 -0.2554 -0.0139
29822W        W44953  15.519  14.248   0.143  0.2018 -0.2801  0.0012
29823W        W44954  14.098   4.412  10.298 -0.3367  0.0515  0.0064
29824W        W44955   2.688   9.734   3.690 -0.1086 -0.0298 -0.2567
29825W        W44956   8.119   7.887  13.165 -0.2580  0.0905  0.0459
29826W        W44957   4.951   2.130   0.157 -0.0065 -0.2844 -0.0635
29827W        W44958   5.884   4.072  11.145  0.1308 -0.0283  0.0083
29828W        W44959   0.341  13.198   1.417  0.0466  0.0754  0.1340
29829W        W44960  15.836   1.604   2.779  0.1900 -0.0519  0.2411
29830W        W44961  16.989  15.429  14.788 -0.0743  0.1244  0.0388
29831W        W44962  18.248   7.923   1.186 -0.0154  0.0642 -0.1143
29832W        W44963   9.797   1.320  12.134 -0.1757 -0.0635  0.0764
29833W        W44964  15.350   6.451   1.814  0.1921 -0.0241 -0.3610
29834W        W44965   1.845   4.003   4.941  0.0368  0.2900  0.1456
29835W        W44966   1.165   6.019   2.564 -0.0348  0.0537 -0.1468
29836W        W44967   3.397   6.718   2.284  0.3191 -0.1354  0.1625
29837W        W44968   7.654   4.227  14.707  0.0900  0.1529 -0.4618
29838W        W44969  11.024   4.472   2.677 -0.2737 -0.1136  0.0076
29839W        W44970   2.777   3.259  15.090 -0.0989 -0.2748 -0.2779
29840W        W44971   5.966  16.322   5.061 -0.1434 -0.3628 -0.1008
29841W        W44972   6.242  16.754   3.164  0.1455 -0.2009  0.0429
29842W        W44973  16.631   0.130   0.660 -0.0991  0.2458 -0.2415
29843W        W44974  10.437   0.025  14.761  0.2655 -0.2064  0.3234
29844W        W44975   9.469  14.909   2.223  0.0821  0.0191 -0.0550
29845W        W44976  17.481   6.367   5.427 -0.1734 -0.1510 -0.0057
29846W        W44977   8.700   0.866   4.122  0.1392 -0.1880 -0.1227
29847W        W44978  12.243   5.361   4.716 -0.0373  0.0357 -0.2360
29848W        W44979   9.755   0.849   4.756  0.1910 -0.3174  0.1884
29849W        W44980   7.648  14.674  15.328  0.1255 -0.0592  0.1692
29850W        W44981   3.800   7.194   2.031  0.0105 -0.1006  0.1162
29851W        W44982  12.163  12.445   1.652  0.2188  0.3121 -0.1817
29852W        W44983   5.768  12.013   3.389 -0.2527  0.0081  0.2029
29853W        W44984   7.018  15.429   3.804 -0.2665  0.1993  0.0076
29854W        W44985   5.875   8.033   3.048  0.2637 -0.1488  0.1102
29855W        W44986   6.670   0.520  12.485  0.0558  0.0852 -0.2102
29856W        W44987   4.468  18.255  11.102 -0.1894 -0.0077 -0.0111
29857W        W44988   8.061   5.033   5.920  0.1509  0.0613 -0.2047
29858W        W44989   4.261   6.971   2.232  0.1583  0.0082 -0.1536
29859W        W44990   7.858   4.052   2.056 -0.1836 -0.1587  0.1480
29860W        W44991   2.277   4.189   5.143  0.0081  0.3948 -0.0268
29861W        W44992  10.712   0.776   0.640 -0.3945  0.0774  0.0644
29862W        W44993   3.131  15.598   1.112  0.0441  0.2163 -0.1304
29863W        W44994   7.068  10.777  11.046  0.1756  0.0166 -0.1418
29864W        W44995  12.798  17.669   0.293 -0.2105  0.1426  0.0479
29865W        W44996   6.170   5.495   3.177 -0.0613  0.0524  0.0355
29866W        W44997   0.424   1.202   1.766 -0.2266 -0.0937  0.1047
29867W        W44998   0.793   5.339  10.685 -0.0746 -0.2552 -0.3224
29868W        W44999   8.009   8.765   2.428  0.0052  0.1386 -0.0088
29869W        W45000  16.935   3.896  11.270  0.1398 -0.2930 -0.1388
29870W        W45001   1.735   4.300   5.918 -0.0363 -0.1852 -0.5092
29871W        W45002  14.029  15.855  11.487  0.0761 -0.0983  0.4732
29872W        W45003   8.291  16.273  12.237 -0.1704 -0.1783 -0.1046
29873W        W45004   5.910   0.912  11.816  0.1549  0.0100  0.1806
29874W        W45005   6.244   3.718  11.019  0.1299 -0.3839  0.0031
29875W        W45006   7.331   4.873  14.298  0.3263  0.1616  0.2363
29876W        W45007   4.970  13.104  13.839  0.2406  0.0320  0.1658
29877W        W45008   4.611   1.512  13.956 -0.1558 -0.3872  0.0315
29878W        W45009   7.339  10.442   3.156 -0.0693 -0.1887 -0.0183
29879W        W45010   2.021  10.385  11.330 -0.2383 -0.4397  0.0488
29880W        W45011  13.908  11.454   5.112  0.0499  0.2820  0.0485
29881W        W45012   7.292  16.859  15.738 -0.0875  0.0772 -0.1368
29882W        W45013  16.189   5.325  12.191  0.0443  0.3560 -0.0255
29883W        W45014   0.914  17.485  12.575  0.0891  0.2535  0.0873
29884W        W45015   6.929   2.117   6.244 -0.1723 -0.3106  0.3941
29885W        W45016  15.888  11.318   2.582  0.1039 -0.0891  0.1908
29886W        W45017   0.099   9.242  15.153 -0.1124  0.0991  0.0394
29887W        W45018  13.805  11.012   4.884  0.3218  0.2208 -0.1739
29888W        W45019   7.769   8.978  13.601 -0.0261 -0.4378  0.2934
29889W        W45020   8.868   3.803  14.775  0.1439 -0.0131 -0.1663
29890W        W45021   7.979  14.629  13.121 -0.1251  0.0769 -0.0979
29891W        W45022  17.031   9.925   2.031  0.1713 -0.0380 -0.0777
29892W        W45023  14.333   1.926   4.266 -0.2713  0.0387  0.1939
29893W        W45024   1.358  14.952   0.353 -0.0431  0.1763 -0.3148
29894W        W45025  11.378   2.738  14.327  0.1554 -0.0057 -0.0170
29895W        W45026  14.305  14.876   0.511 -0.2618 -0.0266 -0.3054
29896W        W45027   4.182   7.689   0.573 -0.0131 -0.0147  0.2308
29897W        W45028   6.041  10.189   3.524 -0.0522  0.0793 -0.1991
29898W        W45029   1.512  16.249   2.104  0.1336 -0.4070 -0.2484
29899W        W45030  10.875   2.697   5.462 -0.1270 -0.1511  0.0808
29900W        W45031  10.386  15.519   2.834  0.2376 -0.1115  0.0552
29901W        W45032   4.209   9.304  12.280  0.2905 -0.0336  0.2729
29902W        W45033   1.929  14.875  12.403 -0.0452  0.7118 -0.1490
29903W        W45034   1.552   2.678  11.172  0.0380  0.0707  0.0938
29904W        W45035  12.093   4.942  15.830  0.1891 -0.1979 -0.4195
29905W        W45036  16.242   0.835   1.169  0.1102 -0.0634  0.3565
29906W        W45037  18.272   9.552  12.046  0.2765 -0.0990  0.0832
29907W        W45038  11.570   0.843  10.921  0.2125  0.1794  0.1799
29908W        W45039   8.044   5.227  15.736  0.0394 -0.0034  0.0740
29909W        W45040   8.520  15.149  15.023  0.1415  0.0729 -0.3356
29910W        W45041   5.774  12.211   5.815 -0.1189 -0.1083 -0.2061
29911W        W45042   4.161  16.296  13.737 -0.1065  0.0306  0.2898
29912W        W45043  16.332   9.653  14.462  0.1159  0.0062 -0.2725
29913W        W45044   1.945  13.479   4.191 -0.1436 -0.0969 -0.3383
29914W        W45045  15.440   0.844  11.393  0.3315 -0.0468 -0.2929
29915W        W45046  12.428   4.885   2.652 -0.0695  0.0323  0.5733
29916W        W45047   4.451  13.862   4.420 -0.1729 -0.0926 -0.2711
29917W        W45048   9.407  16.456  15.932 -0.1996  0.3179  0.2162
29918W        W45049  13.150   8.167  10.954 -0.0982  0.1308 -0.4793
29919W        W45050   7.341   0.605   2.833 -0.0721 -0.1211  0.1263
29920W        W45051  17.275  16.123   0.621  0.1796 -0.2035  0.0327
29921W        W45052   7.263   2.774   3.842  0.2118 -0.2628  0.0846
29922W        W45053   1.137  12.189   1.515 -0.1702  0.1987  0.2948
29923W        W45054   1.545   0.713   3.156 -0.0656  0.0087 -0.2782
29924W        W45055   3.658   8.190   2.350  0.2447 -0.5893  0.0336
29925W        W45056   6.388   1.614  15.588 -0.2606  0.0392  0.0032
29926W        W45057  17.375   7.968   5.160  0.1521 -0.0697  0.0939
29927W        W45058  15.451   0.908  13.501 -0.0675  0.1991 -0.0611
29928W        W45059  14.866   2.230  14.991 -0.1482  0.2365 -0.2140
29929W        W45060  11.792   4.163   3.316  0.1904 -0.2363 -0.1814
29930W        W45061  16.033   1.308   5.790 -0.2973  0.1958  0.4546
29931W        W45062   0.394  12.765   2.988 -0.1764  0.1766 -0.2499
29932W        W45063   1.027   3.202   4.417 -0.3105 -0.1773  0.2894
29933W        W45064  11.814  14.551  11.205 -0.1319  0.0688  0.3377
29934W        W45065   4.603   9.048  12.189 -0.2887  0.1924  0.1303
29935W        W45066   0.975  17.277   1.041  0.1188 -0.0896  0.5544
29936W        W45067   9.141  10.843   4.087  0.0707 -0.1545 -0.1728
29937W        W45068  10.183   1.297   3.301 -0.0286  0.0090 -0.0363
29938W        W45069   5.520   3.771  15.377 -0.3713 -0.0585 -0.0550
29939W        W45070  16.541  15.049   1.851 -0.2908  0.2400  0.1655
29940W        W45071   4.797   7.042  11.241 -0.0045 -0.3275  0.1538
29941W        W45072  11.741  17.806  15.543  0.1188  0.0604 -0.0631
29942W        W45073   5.096  13.038  15.900 -0.2032 -0.4236 -0.2928
29943W        W45074  15.259  14.863   2.654 -0.1933 -0.5034 -0.0005
29944W        W45075   9.731   3.303   4.606  0.1043  0.0811  0.0470
29945W        W45076   9.155   3.988  11.082 -0.4146 -0.0438 -0.0005
29946W        W45077   5.823   1.046  11.316 -0.1094  0.0361  0.0489
29947W        W45078  14.066  12.240   2.264  0.0714  0.0946 -0.0642
29948W        W45079  12.397   4.253   0.734 -0.5903  0.1969 -0.0118
29949W        W45080  10.151  11.000  12.835 -0.0055 -0.2759  0.2760
29950W        W45081   4.593   2.127  10.600 -0.2836 -0.1576 -0.1519
29951W        W45082   5.944  18.052   1.224 -0.4691  0.2182  0.1308
29952W        W45083  17.948  11.523  14.057 -0.4276 -0.2007  0.0534
29953W        W45084   3.442  16.162  12.921 -0.1676 -0.0251 -0.0496
29954W        W45085   4.980   1.338   0.950  0.1746 -0.0111  0.2527
29955W        W45086  11.706  17.014   1.592 -0.1957 -0.0960  0.0770
29956W        W45087   9.968  15.180  11.647  0.5014 -0.0766 -0.0277
29957W        W45088   7.232  15.888   3.790  0.1557  0.0183  0.0169
29958W        W45089   4.366   3.581   2.055 -0.1509 -0.3200  0.0790
29959W        W45090  11.774  13.412  13.486 -0.1945  0.1489 -0.1457
29960W        W45091  13.386  16.587  11.107 -0.0060  0.2024 -0.0150
29961W        W45092   6.680   6.090  11.562 -0.0919  0.4937  0.4423
29962W        W45093   1.993  17.392   2.672  0.0159 -0.1680 -0.1025
29963W        W45094  10.243  11.282  14.037 -0.1551 -0.2440 -0.3962
29964W        W45095  12.863   0.193   1.849  0.0379  0.0380  0.0241
29965W        W45096  12.014   8.198   4.780 -0.3769 -0.1361 -0.0238
29966W        W45097  15.032   6.550  12.407  0.0689  0.0792  0.1748
29967W        W45098  17.046  12.686  11.295 -0.2975 -0.2119 -0.3705
29968W        W45099  14.361  16.120  15.343  0.2406  0.3237  0.2440
29969W        W45100   4.451   5.216  10.354  0.1146  0.0326 -0.2205
29970W        W45101   5.756   5.067   0.850 -0.1841  0.0506 -0.1582
29971W        W45102   3.267   6.327   1.484  0.0420  0.1241 -0.1668
29972W        W45103   2.460  11.695   0.287  0.0974 -0.1454  0.0139
29973W        W45104  12.508   4.860  12.412 -0.4603  0.1766  0.1640
29974W        W45105  17.594   2.404   3.810 -0.0087  0.2316  0.2528
29975W        W45106  12.234   0.867  14.279 -0.1586  0.1282 -0.1703
29976W        W45107   9.800   6.696   1.815 -0.0193 -0.1270 -0.1288
29977W        W45108  14.244   0.283   1.635  0.0529  0.2727 -0.1883
29978W        W45109  10.574  10.889   1.726  0.0593 -0.0125  0.0461
29979W        W45110  17.985   2.470  14.843  0.0281  0.0653  0.2862
29980W        W45111  12.575   1.160  11.843  0.3587 -0.0601  0.1185
29981W        W45112   1.025   7.911  12.814 -0.2240  0.0604  0.2237
29982W        W45113   2.367   0.634  11.340  0.0963 -0.2017 -0.1065
29983W        W45114   4.897   4.976   5.114 -0.0617 -0.3380 -0.1694
29984W        W45115  18.198   8.391   1.457  0.4519  0.2082 -0.0470
29985W        W45116   6.921   1.119   2.025  0.4528  0.2163 -0.1108
29986W        W45117   8.336   7.266  15.539  0.1862 -0.2004  0.0842
29987W        W45118   6.086  11.319   3.716  0.1792 -0.0957 -0.0359
29988W        W45119  14.799  12.679  10.398  0.0936  0.1443  0.1181
29989W        W45120  12.908   0.197  11.623  0.1174  0.1907  0.1386
29990W        W45121   4.723  10.624  14.260  0.0318  0.2810  0.2570
29991W        W45122   3.802   1.951   3.557 -0.1636  0.5597  0.0721
29992W        W45123   7.670   2.515   1.783 -0.0461 -0.0768  0.2455
29993W        W45124   9.556   7.515  11.886 -0.0545  0.0696  0.0096
29994W        W45125   4.630  13.266   3.332 -0.3739  0.0801  0.1949
29995W        W45126  14.446  17.854  13.890 -0.1813  0.1826  0.3612
29996W        W45127   5.111   9.864   3.328  0.1920  0.2763 -0.0556
29997W        W45128  17.813  12.756  12.074 -0.2139 -0.1840  0.0328
29998W        W45129  14.343  11.950   3.613  0.1562  0.1843  0.0249
29999W        W45130  10.313  15.418  13.510 -0.1425  0.4411  0.0014
30000W        W45131  11.946  13.843  14.200  0.1477 -0.2531 -0.0171
30001W        W45132   9.240  13.311   3.212 -0.2574  0.0495  0.1388
30002W        W45133   6.940   8.707  11.986  0.2777 -0.1877  0.1714
30003W        W45134   3.040  13.375  15.820  0.4181  0.0823 -0.1420
30004W        W45135   6.002  12.143  14.346 -0.0206  0.2862 -0.0848
30005W        W45136   0.127  17.700  15.176  0.0865  0.2082  0.1023
30006W        W45137  12.460  12.985   5.173 -0.0902  0.0517  0.0211
30007W        W45138  12.921  17.849  13.378 -0.0361 -0.0978  0.0263
30008W        W45139  13.449  11.179   4.404  0.1315 -0.2706 -0.2363
30009W        W45140   3.168   4.055  12.452 -0.1957  0.0162  0.0716
30010W        W45141  10.374   2.007  12.629  0.0348  0.3950  0.1858
30011W        W45142   1.740  17.291   5.266  0.2030  0.3722 -0.3096
30012W        W45143   8.386   3.596  11.478 -0.4404 -0.2294  0.1905
30013W        W45144   0.852   6.846   4.786  0.2269 -0.1942  0.0593
30014W        W45145   7.838   8.997  12.600 -0.3569 -0.0968 -0.0099
30015W        W45146   2.420   3.363   2.938  0.2220 -0.0728 -0.2488
30016W        W45147   3.576  11.273   3.070  0.1646  0.0319  0.2921
30017W        W45148   0.914  15.711   5.483  0.0372  0.1285 -0.1359
30018W        W45149  18.048   8.750   4.886 -0.0936 -0.0048 -0.1741
30019W        W45150  11.196  12.637   4.754  0.0550 -0.1184  0.2049
30020W        W45151   1.259  15.717   0.968  0.3240 -0.1386  0.1863
30021W        W45152  11.098   8.711  10.837 -0.0941 -0.2428  0.0493
30022W        W45153  16.281   1.571   4.114  0.3601  0.0016 -0.1231
30023W        W45154   7.748   9.886  15.059 -0.2448  0.0089 -0.4213
30024W        W45155  16.103  16.062   2.929  0.4575 -0.1097  0.2072
30025W        W45156  12.787   2.558  15.012 -0.1281  0.2842  0.0262
30026W        W45157   3.705   1.642  11.404 -0.1715  0.1450  0.1355
30027W        W45158   7.418  18.302   0.276 -0.4036  0.0172 -0.1950
30028W        W45159   3.931  10.986   1.601  0.0777  0.3110 -0.1810
30029W        W45160   3.448  16.647  14.199 -0.0161  0.1237  0.2217
30030W        W45161   1.417   1.977   4.406  0.0099 -0.0327 -0.1982
30031W        W45162  14.439  16.724   0.789  0.0390  0.1199 -0.2180
30032W        W45163  14.505   6.380   3.522  0.2558 -0.2220 -0.0262
30033W        W45164   1.173  11.543  14.095  0.0790 -0.1028 -0.1513
30034W        W45165  15.189   9.986  15.982 -0.1564  0.1264  0.1381
30035W        W45166   0.942   4.278   1.675 -0.2014 -0.0239 -0.0139
30036W        W45167   6.006   7.770   0.121  0.0043  0.1231  0.1356
30037W        W45168  14.853  13.664   1.412 -0.0517  0.2451  0.2775
30038W        W45169  16.846   4.198   3.932  0.2153 -0.0289 -0.3119
30039W        W45170  16.161   4.988  11.794 -0.0639  0.2242  0.0164
30040W        W45171   4.764   5.873   4.513  0.1495  0.1175 -0.1065
30041W        W45172  16.400   6.573  12.654  0.1216  0.3067  0.1009
30042W        W45173   3.243  11.867  13.926  0.3777  0.0133  0.2511
30043W        W45174   5.386  17.320  11.006  0.4079 -0.2241  0.1883
30044W        W45175   5.724   4.736  14.782 -0.1968  0.0674  0.0921
30045W        W45176  13.796   9.526  11.006 -0.0346 -0.0489  0.1128
30046W        W45177   1.756   1.035   4.449 -0.2993  0.2274 -0.0093
30047W        W45178  16.555   3.690  11.584 -0.1587 -0.0062  0.3685
30048W        W45179  10.310  13.820  14.262  0.1049 -0.2285 -0.0192
30049W        W45180   2.007   0.291  15.068  0.2918  0.2132 -0.0346
30050W        W45181  11.656  11.817   1.868 -0.0243  0.4664  0.1847
30051W        W45182  12.331  11.140   5.191 -0.0418 -0.0330 -0.2767
30052W        W45183   2.439  16.766   1.421  0.1820 -0.2631  0.0921
30053W        W45184   9.564   2.089   2.695 -0.2008  0.1225 -0.0925
30054W        W45185   9.572   7.764   2.835  0.0923 -0.0115  0.2384
30055W        W45186   6.868  11.067   3.197  0.0089 -0.0666 -0.3213
30056W        W45187  17.967  11.518  15.713  0.0720  0.1864  0.2030
30057W        W45188   6.796   5.851  12.598 -0.2145  0.2340  0.0088
30058W        W45189  12.390   0.316  11.411  0.0087 -0.1854 -0.1227
30059W        W45190   7.154   4.669  14.920  0.1911  0.0323  0.2901
30060W        W45191  10.239  12.924  10.314 -0.0391  0.3562 -0.1978
30061W        W45192   6.093   2.542   5.251 -0.1248 -0.0087 -0.3711
30062W        W45193  13.002  17.859  15.134  0.1340  0.0732 -0.0252
30063W        W45194  10.940   3.626   1.224  0.1348  0.2489 -0.2772
30064W        W45195  11.328   0.560  13.262  0.0804  0.0796  0.1903
30065W        W45196  10.631   3.035  14.501  0.1456  0.1092 -0.0403
30066W        W45197   7.635   4.730  15.039  0.1080  0.1439 -0.0308
30067W        W45198   1.767   7.396  10.375  0.1064 -0.0261 -0.0197
30068W        W45199  11.385  17.455   4.391  0.0922  0.1263  0.0650
30069W        W45200   6.967  13.391  11.965  0.0558  0.0954 -0.0387
30070W        W45201  13.481  12.926   3.032  0.1059  0.1372  0.0626
30071W        W45202  15.846  14.232   0.631  0.0330  0.0675 -0.1771
30072W        W45203   0.590  12.858  12.322  0.0222 -0.0345 -0.0772
30073W        W45204  11.459   2.021  14.998 -0.0643 -0.3278 -0.0872
30074W        W45205   6.130  13.853  14.989  0.1574 -0.2921  0.2012
30075W        W45206   2.674   1.143  13.522  0.3543  0.0240 -0.4629
30076W        W45207   9.274   4.930  11.911 -0.4393  0.3461  0.0510
30077W        W45208  18.042   4.863   1.072 -0.0967 -0.1829 -0.3053
30078W        W45209   4.322   8.922  15.158 -0.2682  0.5505 -0.0989
30079W        W45210   9.781  13.320   0.764 -0.0406  0.1321  0.0917
30080W        W45211   7.179  16.529   1.374  0.1208 -0.2613  0.2391
30081W        W45212   6.262   4.886   3.518 -0.0722 -0.0205  0.0351
30082W        W45213  10.693   3.571  10.870  0.2428 -0.1733  0.1810
30083W        W45214   0.212   6.453   3.798 -0.1327  0.0124 -0.1605
30084W        W45215   8.655   5.482   4.547  0.0445  0.0136 -0.1177
30085W        W45216  12.779  16.489   2.593 -0.0814 -0.4400  0.3596
30086W        W45217  11.055   3.634  12.280 -0.0266 -0.1884 -0.0817
30087W        W45218  13.919   4.294  14.854  0.3810  0.3313  0.3923
30088W        W45219  12.802  16.930   5.339 -0.2460  0.2764 -0.1395
30089W        W45220   9.314  14.345   1.901 -0.0837  0.1113  0.0317
30090W        W45221   3.768   3.942   4.338  0.2424  0.0626 -0.2184
30091W        W45222   1.275  12.071   4.574  0.1621 -0.0524 -0.2375
30092W        W45223  12.422   3.576   0.189  0.1873  0.0162 -0.3444
30093W        W45224   2.072   5.903   4.274  0.0189 -0.1568 -0.1854
30094W        W45225  12.853   7.159  15.540  0.0596  0.1095  0.2629
30095W        W45226   1.921   4.870   4.525  0.0715  0.2218  0.1111
30096W        W45227   9.539   6.129   2.630 -0.1151  0.0262 -0.0678
30097W        W45228  14.645  16.007   1.206  0.0119 -0.1815 -0.2302
30098W        W45229  14.680   0.582   5.087 -0.0814  0.2421  0.1970
30099W        W45230   1.402  18.148  14.029 -0.3158  0.1013 -0.1329
30100W        W45231  12.579  13.140   2.945 -0.4625 -0.3787  0.2305
30101W        W45232  10.285   3.854   5.499  0.1595  0.1189 -0.1620
30102W        W45233   5.342  10.740  15.658 -0.2183 -0.4173 -0.0003
30103W        W45234   1.371   3.979  10.978  0.0002  0.1908 -0.2967
30104W        W45235  12.576   9.534  16.001  0.0767 -0.4972  0.0867
30105W        W45236   7.614   4.803  13.868  0.1020  0.1870 -0.1514
30106W        W45237   6.633   4.545  13.828  0.0867 -0.0588  0.1717
30107W        W45238   6.125   2.897   0.711  0.0414 -0.0091 -0.1692
30108W        W45239  13.428   5.941  13.009  0.0012 -0.2553 -0.0161
30109W        W45240   0.872  16.142   3.799 -0.3113  0.1328 -0.0959
30110W        W45241   6.592   5.006   0.070  0.0729 -0.1604  0.0329
30111W        W45242  11.616   6.420  15.666 -0.0994 -0.1493  0.0835
30112W        W45243   9.582   6.712  10.848  0.1752  0.0586  0.0555
30113W        W45244   7.512   6.001   2.267  0.1850 -0.0799 -0.3529
30114W        W45245   3.133   0.048  13.487 -0.0557 -0.0152 -0.1867
30115W        W45246  15.671  10.514  11.393 -0.0717 -0.2707  0.0720
30116W        W45247   8.164  11.163  14.603 -0.2574  0.0728  0.0605
30117W        W45248  13.175   6.724   1.720  0.1868 -0.2885 -0.1359
30118W        W45249   9.850   9.095  15.985  0.0793 -0.0628 -0.0072
30119W        W45250   1.315   2.370  11.527  0.1241  0.0796 -0.1823
30120W        W45251   3.904   6.270  13.506  0.4879 -0.2393  0.1534
30121W        W45252   0.628   5.000   4.702  0.2368 -0.0228  0.1194
30122W        W45253   3.303  14.348   5.954  0.0929  0.2241  0.1566
30123W        W45254  12.839  16.094   1.043  0.0020 -0.0509 -0.2690
30124W        W45255  17.866   3.422  15.713  0.0659 -0.1314 -0.3561
30125W        W45256   5.442  11.524  11.116  0.0247 -0.2278  0.0429
30126W        W45257   7.241  16.561   0.267 -0.2819  0.2381 -0.0139
30127W        W45258  17.412  14.442   0.701 -0.2128 -0.0105 -0.1982
30128W        W45259   0.879  16.438  12.148  0.0362  0.0238  0.0304
30129W        W45260   2.762   7.764  12.959  0.1544  0.4638 -0.3034
30130W        W45261   6.353  11.013   3.300  0.1877 -0.3590 -0.4140
30131W        W45262   7.996  10.455  15.864  0.3607  0.0455 -0.0716
30132W        W45263   7.687   1.795  15.077  0.2066 -0.2910  0.4595
30133W        W45264   6.333   9.156   2.773  0.1690 -0.0941 -0.3409
30134W        W45265   3.252  14.378  15.633 -0.2298 -0.0880 -0.1316
30135W        W45266  12.686   7.332  14.985 -0.3990  0.2619 -0.0416
30136W        W45267  15.722  17.230  12.414 -0.0008  0.3555 -0.1697
30137W        W45268   6.402  17.102  11.934 -0.2256 -0.0368 -0.1053
30138W        W45269   6.241   9.495  13.749  0.1581  0.2285 -0.3303
30139W        W45270  15.036   6.945  15.588 -0.1521 -0.2125  0.3436
30140W        W45271  15.730   0.201   0.755 -0.2124  0.1939 -0.0879
30141W        W45272  16.335   3.724  12.020  0.0548 -0.1684 -0.3215
30142W        W45273   2.882   4.703   3.759  0.0124  0.0819 -0.0899
30143W        W45274  16.146  14.934   1.523 -0.3174  0.0967  0.0305
30144W        W45275  11.470   1.550   4.773  0.1832 -0.0769 -0.0443
30145W        W45276   0.754  16.848   0.765  0.0228 -0.2097  0.0687
30146W        W45277  13.797   5.312  14.152  0.3635  0.2243 -0.0392
30147W        W45278   5.320   8.485  11.832 -0.0341 -0.0283 -0.1787
30148W        W45279  16.984   3.513  13.234  0.0933 -0.3472  0.0498
30149W        W45280   5.124  15.969   2.950  0.1233 -0.0164 -0.0491
30150W        W45281   0.435  15.778  10.159 -0.4689 -0.0922  0.1485
30151W        W45282  10.408   6.162   3.767  0.0378  0.1049 -0.1021
30152W        W45283  14.060  15.693  13.343  0.0081 -0.0377  0.0077
30153W        W45284   2.189  12.878   1.546  0.0262  0.1200  0.1838
30154W        W45285   3.516   0.101   0.836  0.3044  0.2259  0.0823
30155W        W45286   3.125  16.170   3.200 -0.0881  0.1114  0.2247
30156W        W45287  10.158  12.005  12.885 -0.0287  0.1193  0.0667
30157W        W45288   6.448   5.197  11.873  0.1195 -0.0802 -0.1606
30158W        W45289   6.587  11.368   3.504  0.0043 -0.1043 -0.0365
30159W        W45290   1.388   8.998   4.042  0.0502  0.0557 -0.1373
30160W        W45291   6.326   9.606   5.609 -0.1349  0.0825 -0.0159
30161W        W45292   5.920  15.185  14.591  0.1634  0.0708 -0.2045
30162W        W45293  11.893   4.532  12.954  0.1923 -0.0377 -0.2855
30163W        W45294  13.260   4.463   5.119  0.2260 -0.1933  0.0172
30164W        W45295  12.230   0.090  13.691 -0.0401 -0.1254  0.1254
30165W        W45296   1.310  16.830  12.818  0.1220  0.2817 -0.0195
30166W        W45297   2.389  11.887   1.104 -0.0460 -0.4195  0.2166
30167W        W45298  18.319   2.319  12.398  0.1197 -0.4690 -0.1927
30168W        W45299   8.929  17.549   4.753 -0.2173 -0.2003  0.0473
30169W        W45300   8.891   6.291   5.783  0.1830 -0.0838 -0.1466
30170W        W45301   1.296   0.277  14.235  0.1531 -0.2873  0.0953
30171W        W45302  10.872   6.169   3.944  0.4439 -0.4812  0.2608
30172W        W45303  10.559  17.089  14.064  0.2223 -0.0235  0.1764
30173W        W45304   0.454  11.476   1.607  0.0523 -0.0789 -0.2799
30174W        W45305  10.995  16.209   3.962 -0.1180  0.0781  0.2780
30175W        W45306  16.118  14.072   1.190  0.2592 -0.1213  0.4673
30176W        W45307   1.764  16.643  12.659 -0.1193 -0.0048  0.3314
30177W        W45308  11.010  12.280   3.403 -0.0571  0.0146  0.0301
30178W        W45309   8.755   6.917  12.654  0.0787  0.1368  0.2205
30179W        W45310   3.509   0.729  12.331  0.3655 -0.0365 -0.1839
30180W        W45311   7.784   9.923   2.789 -0.2231  0.2134  0.1730
30181W        W45312  14.595  13.657  13.009 -0.0757  0.0879 -0.1698
30182W        W45313   0.640  11.087  13.871  0.0470  0.0383  0.0799
30183W        W45314   8.491   6.240   2.077 -0.3967 -0.2398 -0.0721
30184W        W45315  14.681   6.289  11.871  0.1919  0.1800 -0.0284
30185W        W45316  11.188   3.165  15.217 -0.0433  0.2269  0.0981
30186W        W45317   2.225  14.981   4.076  0.0356 -0.0628  0.0239
30187W        W45318  11.824   1.561   4.393 -0.1531 -0.1624  0.0521
30188W        W45319   6.731  14.346   2.746 -0.2384 -0.1275 -0.1509
30189W        W45320   7.223  16.207   2.097  0.0731 -0.0683  0.1512
30190W        W45321  12.294  14.702  13.362  0.1874  0.5648  0.0203
30191W        W45322  10.541  15.878   4.320  0.2077 -0.1764  0.0168
30192W        W45323   2.565   2.840  12.348 -0.1241  0.0511 -0.1119
30193W        W45324  15.615   8.877  11.149 -0.0068  0.1001  0.0725
30194W        W45325  10.580   8.305  12.113  0.0083 -0.1706 -0.1335
30195W        W45326   3.425   4.392  12.087  0.1073 -0.0802  0.1194
30196W        W45327   2.615   3.954  14.980  0.0075 -0.0842  0.1032
30197W        W45328   7.970  14.331   1.032 -0.0330  0.0804  0.2385
30198W        W45329  11.904  16.734   0.196 -0.0911  0.4056  0.2634
30199W        W45330  17.157   6.548   5.800  0.0803  0.0807 -0.0585
30200W        W45331  13.956   8.712  12.640 -0.0676 -0.0479  0.1568
30201W        W45332   9.231   2.809  15.873 -0.0603 -0.1039 -0.0851
30202W        W45333   8.164  10.738   2.920 -0.0558  0.1452 -0.0027
30203W        W45334  10.312   5.662   0.210  0.0507 -0.3401  0.0010
30204W        W45335  12.204   6.015  14.991  0.1232 -0.0324  0.0706
30205W        W45336  18.120   0.412  12.933 -0.2255  0.0526  0.1385
30206W        W45337  16.226   3.651   1.783 -0.3665  0.1065  0.2655
30207W        W45338  11.903   5.380   2.450  0.2049  0.2996 -0.0613
30208W        W45339   5.756   8.519   1.608  0.2943 -0.3697 -0.2083
30209W        W45340  14.667  16.733  15.860  0.1817  0.0193  0.0544
30210W        W45341   0.414  15.633  14.368 -0.0023  0.0923  0.1338
30211W        W45342   7.190  12.349   3.799  0.0579  0.0430 -0.0809
30212W        W45343   7.791  17.205  15.811  0.3029  0.2577  0.0691
30213W        W45344  11.927  14.269   9.899  0.0275  0.2837 -0.0828
30214W        W45345   5.168  13.130  14.316  0.1351  0.0332 -0.0758
30215W        W45346   6.392   6.532   2.277  0.0595  0.0212  0.0350
30216W        W45347  10.851   6.914  15.983  0.0060  0.1083 -0.2481
30217W        W45348  16.499   5.486   4.199 -0.1381  0.0072 -0.0413
30218W        W45349  18.036   7.032  13.847  0.2024 -0.2350  0.2328
30219W        W45350   5.750  18.309   3.375 -0.0393  0.1515 -0.1708
30220W        W45351   9.442  10.333   4.884 -0.2675  0.0950  0.2094
30221W        W45352  15.784   0.666   0.998  0.0704 -0.3660  0.1498
30222W        W45353   0.617  10.615   5.766 -0.2643 -0.2112 -0.4472
30223W        W45354  12.236   1.587   1.230 -0.2807 -0.1565 -0.1997
30224W        W45355   5.349   2.383   1.114 -0.1518 -0.1750  0.1105
30225W        W45356   8.957  13.631  11.969  0.0711 -0.0800 -0.0083
30226W        W45357  17.121  15.040  15.091  0.2038  0.0310 -0.2073
30227W        W45358  12.645   4.470  11.758 -0.2565  0.1221 -0.1043
30228W        W45359   9.864   2.434  14.071 -0.2280  0.2362  0.4229
30229W        W45360  11.835   3.865  12.020 -0.0938  0.1025 -0.0914
30230W        W45361  14.239   7.189  15.872  0.2899 -0.1971  0.0766
30231W        W45362  16.483   7.527  15.006 -0.1983 -0.0817  0.2533
30232W        W45363  16.328  10.880  14.330 -0.0430 -0.0847 -0.0857
30233W        W45364  11.036  11.413   3.555 -0.5728 -0.2824  0.0894
30234W        W45365  13.297   1.876  15.681 -0.2587  0.0453  0.0597
30235W        W45366  13.103  17.272   2.177 -0.0561 -0.0862 -0.1074
30236W        W45367   5.456  11.836   2.431  0.0015 -0.2882 -0.1481
30237W        W45368  11.589  13.806  11.031 -0.2050  0.0487 -0.2238
30238W        W45369   0.051   1.068   2.662 -0.1464 -0.2295  0.0744
30239W        W45370   0.605  16.189  15.468  0.1160 -0.0964  0.0409
30240W        W45371   2.593   8.039  14.909  0.1030  0.0328 -0.0200
30241W        W45372   7.152   4.868   3.763 -0.0187 -0.2454  0.0028
30242W        W45373   6.995   2.479  16.087  0.0535  0.1067  0.0520
30243W        W45374   6.935  10.068   4.927 -0.0818  0.0391  0.3449
30244W        W45375   9.278   8.874   3.931 -0.1770  0.1421 -0.1878
30245W        W45376   1.345  12.564  13.096  0.2794 -0.1827  0.1646
30246W        W45377  11.894  11.954  13.877 -0.2106 -0.0689  0.1033
30247W        W45378   4.570   2.175   4.208 -0.0473 -0.1089  0.2193
30248W        W45379   8.355   1.932   0.458  0.1463 -0.2396 -0.0883
30249W        W45380   7.183   1.754   0.949  0.1904 -0.0339  0.2537
30250W        W45381   5.726  16.807   0.818 -0.0736 -0.0775  0.1769
30251W        W45382  14.757   8.745   1.920 -0.0422 -0.1283 -0.0046
30252W        W45383  17.813   6.669   0.798  0.0596  0.2210 -0.0000
30253W        W45384  17.495  10.506   5.596  0.4373  0.0814 -0.2301
30254W        W45385   6.678   7.001   4.797 -0.2139 -0.3254 -0.0227
30255W        W45386  11.480  13.194  11.513  0.4822  0.2330 -0.2276
30256W        W45387   5.802   6.220  14.591 -0.0175 -0.3744  0.1664
30257W        W45388   4.565  14.419  15.397  0.1520 -0.0318  0.1784
30258W        W45389   2.081   5.371   2.688  0.2868 -0.0256  0.2571
30259W        W45390  17.256   1.593   5.185 -0.1754  0.0794  0.1415
30260W        W45391  16.709  16.008   5.300 -0.1224 -0.1346 -0.1817
30261W        W45392   0.442   4.150  10.900 -0.2561  0.0847 -0.0795
30262W        W45393  16.454   1.172   5.005 -0.0682  0.2093  0.0321
30263W        W45394   9.261  14.687   0.397  0.0658  0.0366 -0.1717
30264W        W45395  14.620  13.005   0.624  0.0239 -0.0136  0.0538
30265W        W45396   4.480  15.264   2.323  0.0464 -0.3479 -0.3626
30266W        W45397  17.550  13.922   4.321 -0.3069 -0.1706 -0.0183
30267W        W45398   0.550   8.962  11.826 -0.0510  0.2265 -0.1540
30268W        W45399   0.230  15.928  15.264 -0.1851  0.0501  0.1460
30269W        W45400  10.019  17.824  12.612 -0.0595  0.0995 -0.2376
30270W        W45401  13.588  16.388  14.881  0.1402  0.0039  0.0577
30271W        W45402  10.878  16.305  15.684  0.0800  0.1804 -0.5702
30272W        W45403  10.265   2.214  11.237  0.2826  0.1775 -0.2385
30273W        W45404  13.375   9.878   0.532 -0.2642  0.1019  0.1056
30274W        W45405   8.534  17.132   2.965 -0.2126  0.1745 -0.1190
30275W        W45406   5.000   5.580  13.058 -0.1505 -0.0625 -0.0386
30276W        W45407   5.772   5.751   4.558 -0.1145  0.3240  0.1539
30277W        W45408  12.033   1.649  11.186  0.1476  0.1353  0.2648
30278W        W45409   9.280   7.047  10.551 -0.2384  0.1480 -0.0794
30279W        W45410   4.558   8.586   3.682  0.0675 -0.0778 -0.2464
30280W        W45411  12.214   7.939  15.152 -0.1728  0.3789 -0.1983
30281W        W45412   2.853  16.572  14.989 -0.0144  0.0149 -0.0532
30282W        W45413  10.310  17.725  13.110  0.1280 -0.1367 -0.0966
30283W        W45414   3.503   1.760   3.051  0.1008  0.1938  0.1337
30284W        W45415  16.976   1.503   3.588 -0.1060 -0.2104 -0.0216
30285W        W45416   5.093  17.856   6.163 -0.1538 -0.1307 -0.2492
30286W        W45417   3.530   3.431   1.162  0.0768 -0.0628  0.2366
30287W        W45418  17.685   5.094  15.703  0.1311 -0.2377  0.0182
30288W        W45419  11.083  17.016   3.990 -0.2515  0.3317 -0.0825
30289W        W45420   4.246  17.215  10.833 -0.2001 -0.0337 -0.1465
30290W        W45421   9.525   9.553   1.764 -0.2662  0.0933  0.1091
30291W        W45422   4.195   1.788  11.270  0.3349 -0.0981 -0.2433
30292W        W45423  11.899  16.051   0.714 -0.2009 -0.2718 -0.0577
30293W        W45424  13.237  10.163  14.795  0.2083  0.1087 -0.1756
30294W        W45425  15.534   6.631   0.619 -0.2138 -0.1698 -0.2482
30295W        W45426   7.642  13.367  15.356 -0.0913 -0.3988  0.0525
30296W        W45427   0.569  10.900  15.509 -0.0607 -0.0216  0.1529
30297W        W45428   2.279   4.380  13.640 -0.1676 -0.0685 -0.0567
30298W        W45429  12.718  10.165   4.244 -0.2469 -0.2049 -0.0943
30299W        W45430   6.844  16.174  14.473 -0.0502 -0.2053 -0.0698
30300W        W45431   9.460  16.676  11.896  0.2219  0.0114  0.1048
30301W        W45432  14.876   3.077   5.512 -0.0443  0.1491  0.0064
30302W        W45433   6.811   4.686   0.578 -0.2126  0.0416  0.3679
30303W        W45434   7.993  10.363  12.685 -0.3094 -0.2029  0.2559
30304W        W45435  18.292  15.152   3.192 -0.0396  0.2168  0.0784
30305W        W45436   0.299  17.067   4.225  0.0509 -0.0233  0.2057
30306W        W45437   3.751   6.687  13.155 -0.1653  0.2535 -0.1534
30307W        W45438  17.057   0.323   2.371 -0.0534 -0.1874 -0.1780
30308W        W45439   8.941   3.156  12.105 -0.3275  0.2273  0.0351
30309W        W45440   6.701   4.388   1.042  0.0645 -0.0751 -0.1876
30310W        W45441   0.657   0.976  13.757  0.1041 -0.0733  0.0176
30311W        W45442   5.236   4.762   1.430 -0.2104 -0.2211 -0.3030
30312W        W45443   2.164  15.814   1.614  0.4048  0.0995 -0.2094
30313W        W45444  10.439  11.344  12.670  0.0635 -0.2663 -0.0493
30314W        W45445  14.007  16.585  13.684  0.1998 -0.1134 -0.1986
30315W        W45446   0.177  17.979   3.944  0.1759 -0.4117 -0.1753
30316W        W45447   7.149  14.991  11.859 -0.1695 -0.0769 -0.3745
30317W        W45448  10.210   2.457   1.571  0.0976 -0.0216 -0.1358
30318W        W45449  17.274   5.167   0.526  0.0332  0.0637 -0.0873
30319W        W45450   8.310   4.500   5.557  0.0258 -0.2184 -0.0984
30320W        W45451  17.399  15.205   0.152  0.1947 -0.1985 -0.1253
30321W        W45452   0.222   8.876  15.460 -0.2214  0.1846 -0.0499
30322W        W45453  10.847  11.144   0.747  0.1267 -0.0160  0.3757
30323W        W45454  17.290  16.374  11.797 -0.2050 -0.1124  0.3531
30324W        W45455   0.137   9.127  11.502 -0.0438 -0.0649  0.0723
30325W        W45456  17.421   9.332  14.252 -0.0971  0.0788 -0.1680
30326W        W45457  15.510   6.132  12.386  0.0675  0.3646 -0.0563
30327W        W45458   9.046   1.068   1.045  0.2149  0.0327 -0.1218
30328W        W45459  10.789   0.213   2.774  0.0195  0.1298  0.2275
30329W        W45460   6.956  13.631  11.452 -0.0155 -0.2881 -0.0115
30330W        W45461   8.558   0.125   1.821  0.1995 -0.0400 -0.3423
30331W        W45462   6.268   8.493   1.662 -0.4664  0.1397  0.0874
30332W        W45463  17.000   4.334  15.573  0.1555  0.0293 -0.0029
30333W        W45464   0.083   9.547   4.520 -0.0243 -0.0119 -0.0781
30334W        W45465   8.209  16.010   5.691 -0.0426  0.0474  0.0514
30335W        W45466   5.887   1.241   5.958 -0.2144 -0.1241 -0.0166
30336W        W45467  18.160   4.069  11.137  0.0015  0.0455 -0.0404
30337W        W45468   9.707  11.152  13.053  0.1790 -0.4297  0.1849
30338W        W45469   9.387  10.084   1.928  0.1243 -0.1314  0.2724
30339W        W45470   3.304  13.932   3.650  0.2614  0.2084  0.1599
30340W        W45471   7.966   2.901  13.337 -0.0946 -0.1768 -0.3116
30341W        W45472   1.283  13.698   5.541 -0.1360 -0.1791  0.2372
30342W        W45473   1.858   4.045   2.594 -0.2295 -0.0448 -0.3027
30343W        W45474  10.298  10.035  12.988 -0.1173  0.0052  0.2710
30344W        W45475   8.302   8.865  14.286  0.0273 -0.2159  0.1895
30345W        W45476  11.194   3.569  13.710 -0.0471  0.2057 -0.1993
30346W        W45477   1.960  14.345   1.443  0.1474  0.0122  0.0214
30347W        W45478  17.145  12.888  11.929 -0.4587  0.0835  0.2869
30348W        W45479   0.632   7.666  10.552 -0.0642 -0.2040 -0.0201
30349W        W45480   5.804   8.776  15.915 -0.0069 -0.0087 -0.0914
30350W        W45481   5.686  14.537  15.297  0.3797 -0.1025  0.2010
30351W        W45482  16.787  12.011  12.817  0.0985  0.0702  0.0769
30352W        W45483  16.401   8.450  13.754  0.2324  0.1115 -0.0988
30353W        W45484  16.406  16.982   3.004 -0.1706 -0.4346 -0.0946
30354W        W45485  10.882  12.315   1.435  0.1981 -0.2196  0.3058
30355W        W45486   1.907   1.582   0.257  0.0486  0.0608  0.0439
30356W        W45487   4.747  17.001   6.261 -0.1678  0.0097 -0.0473
30357W        W45488   5.991   8.258  10.589  0.0471 -0.0072  0.0025
30358W        W45489  16.953   5.279  10.740 -0.5713 -0.1322 -0.2661
30359W        W45490  12.713   7.134  12.158  0.1069  0.2552 -0.0143
30360W        W45491   6.062  11.219  16.007 -0.0130 -0.3185 -0.1906
30361W        W45492   0.221  17.866   5.643  0.0760 -0.2054  0.2865
30362W        W45493   0.629  15.886   4.311 -0.3535  0.0077 -0.1763
30363W        W45494  12.184  17.473  11.957 -0.1193  0.0363 -0.2036
30364W        W45495  13.395  11.374   0.198  0.0375  0.0961 -0.2278
30365W        W45496  17.943   7.553  11.008  0.0409 -0.1123 -0.1186
30366W        W45497   7.991   1.374  14.888 -0.1993  0.1851  0.1320
30367W        W45498   9.261  11.994  13.589 -0.1485  0.2091 -0.1588
30368W        W45499   5.850  16.677   5.682  0.0625 -0.0579  0.1182
30369W        W45500   3.707   1.165   1.839  0.0206 -0.0672 -0.0229
30370W        W45501   7.905   6.408   2.278 -0.0657  0.2366 -0.1546
30371W        W45502  14.180  11.668   9.577  0.1039  0.1363  0.1540
30372W        W45503  13.181  12.525  11.923 -0.1783  0.0521  0.2018
30373W        W45504  18.327   7.892  12.776 -0.0932 -0.0699  0.0167
30374W        W45505  17.524   6.920   5.121 -0.4535  0.0842 -0.0615
30375W        W45506  13.000   5.630   3.544 -0.2019 -0.0661 -0.0699
30376W        W45507  13.183  15.516  13.892 -0.5478 -0.1122 -0.1567
30377W        W45508   9.285  12.310   2.843 -0.0518  0.0711  0.1406
30378W        W45509  14.053   7.894  10.676  0.1798  0.1996 -0.4486
30379W        W45510  15.615   5.656   4.038 -0.0609 -0.0203 -0.0109
30380W        W45511  11.938   5.731  12.274 -0.1688  0.2423 -0.4312
30381W        W45512  17.063   1.597  11.246 -0.0357 -0.1681 -0.3763
30382W        W45513  14.877  16.647  12.603 -0.1841  0.1364 -0.2071
30383W        W45514  18.049   0.750  13.276  0.0679  0.0760 -0.0629
30384W        W45515   7.856   6.429   6.069 -0.1376 -0.0228 -0.2204
30385W        W45516   2.198   6.987   4.142  0.0601  0.0610  0.2959
30386W        W45517   4.098   7.133  11.881 -0.1447  0.3431  0.0173
30387W        W45518   5.926   4.225   2.403  0.2512  0.2071  0.2312
30388W        W45519   1.912  16.079   1.276  0.0226  0.2722  0.2030
30389W        W45520   6.535  14.682   4.740 -0.0155  0.1021  0.1377
30390W        W45521   6.293   8.239   3.763 -0.3632  0.0480  0.0419
30391W        W45522   3.678  14.711   0.258  0.0453 -0.0360  0.1010
30392W        W45523  16.380   5.790   1.299 -0.1932 -0.3909  0.1091
30393W        W45524  13.073   9.086  11.129  0.0774 -0.1144 -0.0417
30394W        W45525   5.120   3.953   1.609  0.2440 -0.3000 -0.2316
30395W        W45526  16.412  16.240   2.442  0.0276  0.2162 -0.1439
30396W        W45527  13.889   7.573   1.795 -0.2122  0.2634 -0.2924
30397W        W45528   5.295  18.325   4.306 -0.0808 -0.0891  0.1280
30398W        W45529  14.304   4.739   4.337  0.0156  0.4159  0.0406
30399W        W45530  11.673   3.397  12.833 -0.0475  0.0905  0.2106
30400W        W45531   8.125   5.818   0.243 -0.1984  0.0001 -0.1731
30401W        W45532  15.352   1.833  13.662 -0.1112 -0.0530 -0.0119
30402W        W45533  11.537   9.064  15.456  0.0687 -0.2667 -0.1839
30403W        W45534  14.581   8.955   2.873 -0.3453  0.0597  0.1582
30404W        W45535  10.615   3.731  11.707  0.0181  0.2864 -0.0493
30405W        W45536  12.435   7.712  12.843  0.1651  0.1328  0.1222
30406W        W45537  16.696   4.779   5.673 -0.1864  0.0019  0.1082
30407W        W45538  10.271  11.893  15.625 -0.0325 -0.1468  0.1428
30408W        W45539  13.847  14.939  15.511  0.0868 -0.0963 -0.1384
30409W        W45540  10.239   5.938   3.403 -0.1527 -0.1047  0.1200
30410W        W45541   4.951  16.759  12.032  0.1525  0.1258  0.1142
30411W        W45542  12.165  17.926  14.838  0.1631 -0.0126  0.3270
30412W        W45543  12.929   1.015   2.931  0.0483  0.0531  0.3434
30413W        W45544  10.822  13.512   3.782 -0.0091 -0.2990  0.3596
30414W        W45545   5.072  10.313  15.882 -0.0165 -0.0699  0.1956
30415W        W45546   6.317  11.231  12.413 -0.4676  0.3178 -0.1935
30416W        W45547   3.004   0.805   2.006  0.0369 -0.0678  0.2049
30417W        W45548   1.486   1.372   4.184 -0.2568 -0.2118  0.0681
30418W        W45549  16.609   9.638   0.878  0.0684  0.2562 -0.1210
30419W        W45550  16.718  12.329   3.958  0.3108 -0.0684  0.0358
30420W        W45551  15.376   5.941   1.325 -0.0098  0.2206 -0.3872
30421W        W45552  11.946  14.963  12.877  0.0359  0.0531 -0.1716
30422W        W45553   1.659  10.856  14.956 -0.0806 -0.0633 -0.0346
30423W        W45554   0.686  18.006  13.908  0.0083 -0.0836  0.1775
30424W        W45555  15.442   8.362   3.293 -0.1258  0.0436  0.1177
30425W        W45556  13.389  17.302   1.437 -0.1404 -0.1365  0.0780
30426W        W45557   8.373   1.676  14.326  0.0402  0.0850  0.2595
30427W        W45558   1.256  18.157  14.579 -0.1534 -0.1831  0.0022
30428W        W45559   4.652  15.100   3.948  0.2315  0.2003 -0.5443
30429W        W45560   3.433  12.749   4.547 -0.0506  0.1460  0.0463
30430W        W45561  17.891   4.370  11.635  0.2119 -0.0179  0.0010
30431W        W45562  18.250  14.787   0.444 -0.2427 -0.2408  0.1092
30432W        W45563   9.219   4.485   4.953  0.1906 -0.0791  0.0720
30433W        W45564   6.433  15.500   4.743  0.0525  0.0927 -0.2186
30434W        W45565  17.622  16.942   3.809  0.2507 -0.3967 -0.2083
30435W        W45566  14.179   5.344   1.105 -0.1518 -0.1104  0.0348
30436W        W45567  16.549   2.791   2.970  0.2806  0.1769 -0.4443
30437W        W45568   7.917  14.708  11.567  0.1833  0.0387  0.2496
30438W        W45569   3.952  12.690   2.459  0.2490  0.1280 -0.2873
30439W        W45570  13.488  14.577   0.887 -0.1594 -0.3826 -0.1542
30440W        W45571  11.119   5.096  14.788 -0.0198 -0.2322  0.2005
30441W        W45572  18.180  16.566   0.175 -0.0256 -0.0654 -0.3171
30442W        W45573  16.929   2.004  13.702 -0.0492 -0.1750  0.1384
30443W        W45574  12.050  10.459   5.379 -0.1540  0.1283  0.0985
30444W        W45575  18.222  11.172  12.775  0.1340 -0.1550 -0.0506
30445W        W45576  15.222  17.681  13.625 -0.2664  0.1494 -0.0803
30446W        W45577  12.229  11.033  12.153  0.0354 -0.0805  0.1058
30447W        W45578  17.305  10.539   0.159 -0.1116  0.0090 -0.4174
30448W        W45579   0.392  17.266   0.928  0.1973  0.0795 -0.0339
30449W        W45580  11.555  14.917  15.555 -0.0532 -0.3144 -0.0491
30450W        W45581  12.644  12.709  12.251  0.1340  0.2476 -0.3328
30451W        W45582   6.166   3.342   2.322 -0.0343  0.0408 -0.0732
30452W        W45583  11.854   7.061   4.073 -0.0738  0.2529  0.0554
30453W        W45584  16.613   4.310   3.483 -0.2598  0.1898  0.0687
30454W        W45585  10.257  15.001  13.162  0.2007  0.0242 -0.2156
30455W        W45586  13.888  14.333  14.826 -0.0763  0.2335 -0.0540
30456W        W45587   9.022  11.031   4.961  0.1510 -0.0292 -0.4187
30457W        W45588  14.828  10.085  13.119  0.2774 -0.0424  0.0994
30458W        W45589  15.029   5.997  15.561 -0.0827  0.0384 -0.2837
30459W        W45590   8.123   2.407   2.648 -0.0369 -0.2237 -0.0617
30460W        W45591   1.740   1.132   0.260  0.1609 -0.2198  0.2350
30461W        W45592   1.653  12.498   0.807 -0.1595  0.2751 -0.1057
30462W        W45593  10.607  16.680   3.841 -0.1810  0.0222 -0.1242
30463W        W45594   3.247   4.963   4.946 -0.1416 -0.1636  0.1693
30464W        W45595  12.129  16.563  15.641  0.1203 -0.1296  0.1147
30465W        W45596   4.779  11.739  10.312  0.0345 -0.1671 -0.1486
30466W        W45597   9.010   1.050  11.930  0.0612 -0.0543  0.3961
30467W        W45598   8.895   8.922   2.139  0.1836 -0.2943  0.0437
30468W        W45599   7.563  17.059   3.179  0.0979 -0.1924 -0.4657
30469W        W45600  15.809  12.645   0.402 -0.2826 -0.0728 -0.0774
30470W        W45601  12.112   9.733  14.631  0.3139  0.2193 -0.0143
30471W        W45602  14.657   0.810  10.349 -0.2557 -0.3818  0.2751
30472W        W45603   6.857   2.528   4.579  0.2582  0.3895 -0.1535
30473W        W45604   5.682   7.419  10.734  0.0666 -0.2236  0.0585
30474W        W45605   9.430  15.969   4.085 -0.1829 -0.1440 -0.1173
30475W        W45606  16.731   2.850  10.950  0.1859 -0.1456 -0.0868
30476W        W45607   8.679   6.789  14.574 -0.0870  0.1118  0.1068
30477W        W45608  10.493   0.449  10.233 -0.0750  0.1908 -0.1833
30478W        W45609  17.775  12.375  13.587 -0.0769  0.1711  0.1862
30479W        W45610   9.560  17.585  14.291 -0.1890 -0.1845 -0.0304
30480W        W45611   6.244   0.579  13.682  0.0003  0.2631 -0.1103
30481W        W45612   7.861  17.269  12.158 -0.0280  0.0501 -0.2221
30482W        W45613   4.473   2.280   2.000 -0.0614  0.0073 -0.1277
30483W        W45614   1.461  16.310  11.033 -0.2672 -0.1695 -0.0393
30484W        W45615   0.647  16.598   5.491 -0.2358  0.1660  0.2720
30485W        W45616  12.661  10.773  12.412  0.1525 -0.1295 -0.2567
30486W        W45617   0.466   9.626  15.078  0.1543  0.1509 -0.1944
30487W        W45618   4.777  17.527  12.755  0.4164 -0.0436  0.0599
30488W        W45619  13.856   4.131  13.615 -0.1244  0.1842 -0.1635
30489W        W45620   1.081   5.041  15.689  0.0769 -0.0347  0.1282
30490W        W45621  15.260   3.533  12.664  0.0774 -0.1326 -0.0870
30491W        W45622  12.711  14.965  10.837 -0.0354 -0.0542 -0.0113
30492W        W45623   2.371   9.263  10.767  0.1288  0.1430 -0.2919
30493W        W45624   1.098   3.578   5.920 -0.2930 -0.1381  0.0510
30494W        W45625   4.242  10.104   3.232 -0.4485  0.0470 -0.1328
30495W        W45626  11.665   6.426  12.580  0.0386  0.3841  0.2228
30496W        W45627   2.852  16.863   0.085 -0.0041  0.0696 -0.1605
30497W        W45628   3.438   7.698  10.585  0.0572 -0.1320  0.0578
30498W        W45629   0.143  18.197  12.722  0.1468 -0.0528 -0.0848
30499W        W45630   0.722  14.556   5.683  0.2109  0.1547 -0.3336
30500W        W45631   6.606  13.671  15.378 -0.0135 -0.0005  0.0593
30501W        W45632  16.478   5.056   2.966  0.2003  0.0894  0.0465
30502W        W45633  11.532   6.377  14.572  0.0294 -0.2038 -0.1228
30503W        W45634   7.263  15.423  11.649  0.1645  0.2125  0.3683
30504W        W45635  15.049  10.435   9.745  0.0815 -0.0560  0.0031
30505W        W45636  11.738  11.671   0.628 -0.0669 -0.4516  0.2251
30506W        W45637   6.200  14.056  13.867 -0.0038  0.0812 -0.1441
30507W        W45638   7.639  13.429  13.362  0.0829 -0.1054 -0.1114
30508W        W45639   4.328   5.483   3.565  0.1527  0.1608  0.0102
30509W        W45640   4.608   2.012  12.497 -0.0750  0.0774 -0.0939
30510W        W45641   9.113   1.701  14.108 -0.2157  0.1739 -0.0530
30511W        W45642   9.298  10.813  15.874  0.2997  0.2701  0.1088
30512W        W45643   8.396   8.511  11.456 -0.2115 -0.2466 -0.1723
30513W        W45644  15.573   2.194  14.040  0.0026 -0.1000 -0.0574
30514W        W45645   8.904  13.117   0.539  0.0785 -0.0847 -0.2653
30515W        W45646   4.197   4.122  11.768  0.0249  0.0955  0.2324
30516W        W45647   4.146   7.942  11.726  0.1706 -0.2729 -0.2692
30517W        W45648  12.167  13.224   9.985 -0.0843  0.2730  0.0731
30518W        W45649  10.876  12.131   1.941  0.2548  0.1344 -0.1020
30519W        W45650   8.684  17.851  12.349 -0.1515  0.0250  0.2691
30520W        W45651   7.197  15.612  13.967 -0.0242  0.1597 -0.2745
30521W        W45652   6.413   7.496   3.259 -0.2142 -0.2352 -0.1369
30522W        W45653  10.998  17.443  11.840 -0.1835  0.0557 -0.4018
30523W        W45654  17.769  10.162  11.633  0.0902 -0.1157 -0.0331
30524W        W45655  10.470  13.682  12.506  0.1540  0.1268 -0.2453
30525W        W45656  18.035   6.270   5.547  0.2612 -0.0666  0.0884
30526W        W45657   7.180  16.698  15.291 -0.0196  0.1005  0.3379
30527W        W45658   4.760  11.412   1.241  0.0025 -0.0912  0.1016
30528W        W45659   8.759  15.813   0.188  0.0449  0.1165 -0.3847
30529W        W45660  15.801  17.963   4.578  0.0462  0.2083 -0.0862
30530W        W45661   6.115  15.218  15.869  0.1264 -0.1454 -0.0238
30531W        W45662  13.189  12.194   1.733  0.1902 -0.0560 -0.0393
30532W        W45663  16.317  16.286  14.501  0.1254  0.1336 -0.1375
30533W        W45664   4.735   8.177  15.419  0.1859  0.3220 -0.1134
30534W        W45665   9.455  10.678   3.553 -0.0029 -0.1758  0.0390
30535W        W45666   2.977   4.203   3.561 -0.0829 -0.1037 -0.1208
30536W        W45667   5.480  17.251   1.527  0.4642  0.0445 -0.0939
30537W        W45668  11.393   7.662  12.303 -0.1214 -0.0601 -0.1695
30538W        W45669  10.609  10.127   3.088  0.1207 -0.1744  0.2836
30539W        W45670   0.749   7.961  13.893  0.1404 -0.0476  0.1795
30540W        W45671   2.290   2.425   0.259  0.3931  0.0015 -0.0917
30541W        W45672   5.233   1.122   1.907 -0.0516 -0.0192 -0.1746
30542W        W45673   4.478   9.845  13.476 -0.2389  0.3000 -0.1178
30543W        W45674  14.990  17.530  15.437 -0.1529  0.1164  0.3274
30544W        W45675   5.295   9.001  15.379  0.0401 -0.1736 -0.0881
30545W        W45676  18.209   9.717  14.722 -0.0481  0.1067  0.0441
30546W        W45677  15.815  13.532  11.534 -0.0941 -0.3967  0.0965
30547W        W45678  17.149   7.833  12.524 -0.3448  0.1401  0.0063
30548W        W45679  17.174   7.025  10.530  0.2822 -0.1268  0.3907
30549W        W45680  12.165  15.765   2.130 -0.0791 -0.0015  0.3019
30550W        W45681   4.173   0.400   3.260 -0.0149  0.0418 -0.0268
30551W        W45682   8.341   5.236   3.728 -0.3550  0.3466 -0.1885
30552W        W45683   4.107   5.305   4.322  0.2550  0.0189  0.0541
30553W        W45684  13.413  11.863  13.679 -0.2581 -0.3590 -0.0274
30554W        W45685   1.248  13.785   4.429  0.0225 -0.0498  0.1921
30555W        W45686   3.522  18.093  15.636 -0.0895 -0.3244 -0.2876
30556W        W45687  11.561   3.848   1.999 -0.3113 -0.0712 -0.0976
30557W        W45688   9.156   4.317   4.153  0.0573  0.2059  0.1895
30558W        W45689   4.062  14.441   0.076 -0.0791 -0.2084 -0.0094
30559W        W45690   9.005   3.486   2.534 -0.0440  0.0711 -0.0034
30560W        W45691  17.272   8.132   4.619 -0.5862 -0.1035  0.0720
30561W        W45692  14.903   1.671  11.706  0.2595  0.0024 -0.1976
30562W        W45693  10.485   1.069   4.027  0.0793 -0.2750  0.1166
30563W        W45694   3.111   0.420  14.372  0.2841 -0.5829 -0.1537
30564W        W45695   5.590   3.125   3.075 -0.1472 -0.1459  0.1698
30565W        W45696   9.901   9.886  14.770  0.0107  0.0760  0.3529
30566W        W45697  15.140   2.922   4.011 -0.0341 -0.1159 -0.2291
30567W        W45698   3.844  15.341   3.573 -0.3747  0.3556 -0.1222
30568W        W45699  13.733   6.285   0.592  0.2501 -0.1710 -0.0420
30569W        W45700   5.549   1.750   2.454  0.1122  0.0321  0.2014
30570W        W45701  11.399   4.738  15.750 -0.1247 -0.1573  0.0596
30571W        W45702  18.212   5.083  15.199 -0.1839  0.0114  0.3085
30572W        W45703  13.389   9.026  12.998  0.1418 -0.4660  0.1236
30573W        W45704  17.992  14.388   0.667  0.0174  0.4164 -0.0128
30574W        W45705   2.898   0.689  15.302 -0.1196 -0.2076 -0.4124
30575W        W45706   2.469   5.314  13.500 -0.0580  0.2061  0.1770
30576W        W45707  10.039  18.041  14.818  0.2747 -0.2249  0.3099
30577W        W45708  14.719  14.615  13.018  0.0500 -0.2239 -0.1265
30578W        W45709   7.530   1.469  15.502  0.1484  0.0151 -0.3298
30579W        W45710   7.574   6.848  11.193 -0.2492  0.0888  0.0118
30580W        W45711   5.551  12.313  11.672  0.0312  0.3056  0.2043
30581W        W45712  12.437   9.538  10.831 -0.1208  0.1828  0.1875
30582W        W45713   3.795   7.099   2.947 -0.0074 -0.0351 -0.0448
30583W        W45714  15.751   5.074   0.688  0.3526 -0.1204 -0.4370
30584W        W45715   4.657  13.485  13.741 -0.1964  0.5293 -0.2009
30585W        W45716   2.978   4.895  14.158  0.1580  0.1755  0.2318
30586W        W45717  13.798  13.503   1.790  0.3433  0.0569  0.0762
30587W        W45718   2.229   1.320   3.140  0.1818  0.0633 -0.0393
30588W        W45719  10.579  12.276  11.116 -0.1044  0.2276  0.0470
30589W        W45720   9.064  17.651  11.962 -0.0885 -0.1867  0.0434
30590W        W45721  18.033   4.848   0.567  0.0042 -0.2389 -0.0975
30591W        W45722   7.995  17.193   0.242  0.4671 -0.1307  0.1941
30592W        W45723  15.734  11.328  13.650 -0.4214 -0.3944  0.1504
30593W        W45724  17.920   8.709   2.353  0.0792 -0.1521 -0.0901
30594W        W45725  11.500   2.745   4.843  0.1655 -0.1932 -0.0193
30595W        W45726   6.537   3.380   5.762 -0.0903  0.0243 -0.0446
30596W        W45727  16.787   9.351  15.770  0.5662  0.1883 -0.0050
30597W        W45728   1.218  17.237   3.127  0.0486 -0.0694 -0.2101
30598W        W45729  16.683   2.195  12.839  0.2270  0.2491  0.1495
30599W        W45730  14.151   7.906  11.851  0.1706 -0.1773 -0.1200
30600W        W45731   8.019   3.785   0.856  0.2043  0.0335 -0.1701
30601W        W45732   5.532  11.701   5.049  0.0655 -0.0299  0.0984
30602W        W45733  13.963   7.785  13.151  0.0871  0.0527  0.1640
30603W        W45734   7.413   3.229  14.994 -0.0222 -0.1808 -0.2444
30604W        W45735   7.154   9.393   5.145  0.1355 -0.4130 -0.3036
30605W        W45736  11.855  13.479   3.410 -0.2948 -0.0990  0.2040
30606W        W45737   0.472   3.299  15.882 -0.2056 -0.1020  0.1279
30607W        W45738   2.769  14.898  14.744  0.0486 -0.1160 -0.0980
30608W        W45739  13.185  13.265  15.447  0.0411 -0.2827 -0.1404
30609W        W45740  15.623  12.526  10.754  0.1337  0.0317 -0.2404
30610W        W45741   2.083   5.429  12.725 -0.4320 -0.2360  0.1190
30611W        W45742  13.329  14.454  11.914  0.0939  0.0760  0.1864
30612W        W45743   9.686  14.305  12.819  0.0933  0.2253 -0.5433
30613W        W45744   0.768  10.801   2.031 -0.0729  0.0014  0.0682
30614W        W45745  12.657  11.179  11.978  0.1821  0.0175  0.1641
30615W        W45746   1.568   7.286   4.252 -0.0580  0.0127  0.0385
30616W        W45747  14.186   9.685  11.337  0.0977 -0.0676 -0.0642
30617W        W45748  14.489   9.745  10.323  0.0288  0.0373  0.0469
30618W        W45749  11.712  16.638  15.261  0.2900 -0.1372 -0.1054
30619W        W45750  14.586   9.662  12.914  0.2413 -0.2124 -0.1132
30620W        W45751   3.316   0.954   4.396  0.0649  0.2586 -0.2118
30621W        W45752   2.283   9.553   4.899 -0.4396 -0.2261 -0.1327
30622W        W45753   9.101  11.258   1.344 -0.1516  0.0003  0.0875
30623W        W45754   1.751   5.887  14.922  0.1488  0.2105  0.0684
30624W        W45755  14.531   2.009  14.605  0.0551 -0.2284  0.0743
30625W        W45756   5.769   6.100  15.996 -0.2102  0.0408 -0.0800
30626W        W45757   2.640  13.889  10.344 -0.3484 -0.2025  0.2633
30627W        W45758  15.986  14.228  15.005  0.1664  0.1025 -0.4897
30628W        W45759  10.273   6.171   2.001  0.0124  0.0062  0.2033
30629W        W45760   5.741  10.877  15.990  0.2142 -0.2558 -0.0799
30630W        W45761  10.214  15.567   5.212  0.0139 -0.2361 -0.2026
30631W        W45762   3.042  11.095   0.473  0.2606  0.0618 -0.2147
30632W        W45763  18.244  10.180   1.324  0.4308  0.0789  0.1143
30633W        W45764   1.026  14.404   2.458 -0.0965  0.1145 -0.2024
30634W        W45765   5.619   9.018  10.616 -0.4630 -0.1963  0.3028
30635W        W45766  11.861   3.057  11.888 -0.0360 -0.0368 -0.1277
30636W        W45767  13.372  11.546  14.046 -0.1998 -0.3290 -0.0073
30637W        W45768   3.820  13.344   2.802 -0.0954  0.4520 -0.1475
30638W        W45769  16.423  17.881   3.260 -0.1987  0.1246  0.3209
30639W        W45770   2.369   0.837  14.265  0.0756  0.1929  0.0413
30640W        W45771   8.964  11.395   1.972  0.0389 -0.0987  0.0397
30641W        W45772   7.469   5.927   0.055 -0.1790 -0.4696 -0.1312
30642W        W45773   3.475   8.085  10.932  0.2472 -0.1379 -0.0367
30643W        W45774  15.160   8.034   5.681  0.1422 -0.1641  0.0064
30644W        W45775  16.210   1.009   0.251  0.1317 -0.0593  0.0551
30645W        W45776  10.723   2.622   3.041  0.0875 -0.1295  0.1498
30646W        W45777  14.331   1.482   4.099 -0.2995  0.5023 -0.2446
30647W        W45778   2.956   9.501   4.193 -0.0732  0.1932 -0.1305
30648W        W45779  15.270   9.464   4.222 -0.0941  0.1438 -0.0995
30649W        W45780  15.031  12.702  14.430 -0.3118 -0.0063  0.0893
30650W        W45781  10.630   4.381   0.335 -0.3147  0.0905 -0.0614
30651W        W45782   8.034  16.315  13.849 -0.0223  0.2693 -0.1442
30652W        W45783  16.476   0.825   4.296  0.3016  0.0534 -0.0504
30653W        W45784   9.534   4.759  13.462 -0.0009  0.1669  0.1298
30654W        W45785   1.527   4.187  13.853 -0.2521  0.0562 -0.2424
30655W        W45786   8.137  17.226  14.028  0.1308 -0.0660 -0.4304
30656W        W45787  11.778   9.354   4.738 -0.1481  0.0056  0.0038
30657W        W45788  17.059  10.075  13.485  0.1249  0.1895  0.0737
30658W        W45789   2.576  13.614   2.825  0.0969  0.0194 -0.0582
30659W        W45790  15.948   9.363   3.027  0.1872  0.2965 -0.0584
30660W        W45791   5.630   1.940  11.616 -0.0982 -0.0514 -0.3727
30661W        W45792   6.121   6.736   3.508  0.0760 -0.0366  0.0083
30662W        W45793  11.598  11.168  12.936 -0.2468  0.1540  0.1454
30663W        W45794  11.691   2.410   1.230  0.1359  0.2984  0.0290
30664W        W45795  12.917   6.737  14.958 -0.0545 -0.0205 -0.3156
30665W        W45796  12.562   4.259   2.041  0.1868  0.0719 -0.1169
30666W        W45797   8.032  12.980  13.146  0.1701  0.0146 -0.0079
30667W        W45798  14.088  16.179   2.460  0.2754  0.3903  0.0853
30668W        W45799   1.352   8.454   4.831  0.0532  0.0301  0.2635
30669W        W45800  11.352   8.674  15.195 -0.2691  0.5487 -0.1229
30670W        W45801   4.349  12.830  11.676  0.0996  0.1564 -0.1944
30671W        W45802  11.435  11.789   5.494  0.1201 -0.1616 -0.1613
30672W        W45803   3.883   8.411  10.007 -0.1914  0.1938 -0.0556
30673W        W45804  13.756   9.707   2.719  0.0310 -0.0288  0.0030
30674W        W45805  18.031   0.820  15.234 -0.4686  0.0417 -0.3392
30675W        W45806  13.911  13.999  11.105  0.2454  0.2826 -0.0305
30676W        W45807   0.882   5.765  10.913  0.0282 -0.0245 -0.1333
30677W        W45808  17.210   3.137   3.100  0.2977  0.0794 -0.1043
30678W        W45809  12.895  15.998  13.235  0.1916  0.3242 -0.3154
30679W        W45810  15.726   3.771  12.699  0.0364 -0.0968  0.1025
30680W        W45811  14.475   7.939   3.024 -0.1295  0.0195 -0.0073
30681W        W45812   3.635   3.157   1.739 -0.2687 -0.0189  0.2199
30682W        W45813   6.598   1.653   4.810 -0.0540  0.0286  0.3263
30683W        W45814   0.279   1.980   5.425  0.0742  0.0334 -0.2095
30684W        W45815   3.257  16.598  11.312 -0.1943 -0.0670  0.2078
30685W        W45816   1.270   4.872   1.137 -0.0843  0.3950  0.1498
30686W        W45817  14.656  15.872   3.589  0.1358 -0.1683 -0.0238
30687W        W45818   3.078   7.290   4.513  0.2237  0.3348 -0.1467
30688W        W45819  11.729  15.008   2.416  0.1063  0.0541 -0.0075
30689W        W45820   4.347  13.111  11.258  0.1503 -0.2084  0.1027
30690W        W45821  11.760  18.225  12.122  0.0605 -0.0300 -0.1848
30691W        W45822   8.743   2.896  13.379 -0.2597 -0.0549 -0.3963
30692W        W45823  16.519   4.373  13.840 -0.2071 -0.3370 -0.1966
30693W        W45824   1.577   1.458  13.181  0.0437 -0.1410 -0.3899
30694W        W45825  11.836   5.354   1.499  0.0214 -0.3392 -0.0150
30695W        W45826   7.122   6.018  13.485  0.0471 -0.4674 -0.2033
30696W        W45827  15.895   0.299  12.890  0.1002 -0.0161  0.0873
30697W        W45828  11.080   8.279  15.612  0.0670 -0.0539 -0.1624
30698W        W45829  13.056  14.389   0.289 -0.0315 -0.1425 -0.0035
30699W        W45830   3.414  14.682   1.841  0.2126 -0.0415 -0.4861
30700W        W45831  10.216  14.244   3.808 -0.0575 -0.3062  0.2254
30701W        W45832   9.580   5.614   2.530  0.2449  0.1184 -0.5162
30702W        W45833  14.186   1.123  12.107  0.3937 -0.0226  0.0602
30703W        W45834   3.791   4.480  16.109 -0.1139  0.1513  0.2289
30704W        W45835   8.961   3.313   4.491  0.4363 -0.0227 -0.0932
30705W        W45836  10.929  11.023   3.879  0.1774  0.0483  0.1002
30706W        W45837   5.641   0.003   2.709  0.0838  0.2702  0.1201
30707W        W45838   9.331   6.262  11.660 -0.2377 -0.2485  0.0382
30708W        W45839  13.193   2.419  15.258 -0.0018  0.0191  0.0156
30709W        W45840  10.201   0.810  11.008 -0.3806 -0.0463 -0.2993
30710W        W45841  10.428   8.667  15.802  0.0907 -0.0181 -0.3372
30711W        W45842  15.394   4.518  15.890 -0.0296  0.2275  0.1526
30712W        W45843   8.415  15.343  12.825  0.1731 -0.0244 -0.0355
30713W        W45844   1.865  13.583  12.742  0.0363 -0.3439  0.0697
30714W        W45845   9.567   6.622   2.763  0.0795 -0.2683  0.3022
30715W        W45846  10.251  17.065   3.897  0.0024 -0.1325  0.0470
30716W        W45847  16.958   5.095  13.178  0.0675 -0.1580  0.0313
30717W        W45848  14.098   1.232  11.639  0.0569  0.1339 -0.0421
30718W        W45849  14.561  13.433   4.757  0.1023  0.1760  0.1559
30719W        W45850  17.009   4.561  13.233  0.2564 -0.2315  0.0234
30720W        W45851   8.470  15.222   4.074 -0.1802  0.0033 -0.1166
30721W        W45852   8.541   2.919   2.333  0.1787  0.1472 -0.0865
30722W        W45853  10.156   2.611  13.554 -0.0459 -0.1040 -0.2003
30723W        W45854   4.675  12.422  11.780  0.1696 -0.0848 -0.1639
30724W        W45855  15.209  14.474   1.753 -0.2315  0.2157  0.4814
30725W        W45856  12.381   4.575   1.652  0.0101  0.0631  0.1437
30726W        W45857  17.562  18.208   3.793  0.0663  0.3898 -0.1477
30727W        W45858   7.362   6.622   4.976  0.0309 -0.3968  0.2174
30728W        W45859  10.592  17.050   4.238  0.1920  0.1474 -0.1346
30729W        W45860  11.555   1.122  14.455  0.1745 -0.0027 -0.1447
30730W        W45861  16.497   1.725  15.322  0.2399  0.1100  0.0252
30731W        W45862   5.041   1.599  16.080 -0.0093  0.2297 -0.0993
30732W        W45863  11.298  11.005   2.262  0.1046 -0.0656  0.2427
30733W        W45864   3.724   1.013  10.943 -0.0673 -0.4708  0.4566
30734W        W45865  13.636   0.056   4.119  0.0003  0.4761  0.4666
30735W        W45866  17.665  12.863  15.686 -0.0181  0.2423  0.0033
30736W        W45867   2.019  14.960   1.767  0.0477  0.2624  0.2004
30737W        W45868   5.445   3.513   4.070  0.1283 -0.1638 -0.3370
30738W        W45869   6.934   0.719   3.678 -0.4250 -0.1983  0.1875
30739W        W45870   4.298  18.029  15.301  0.1322  0.0880  0.0491
30740W        W45871  17.562   9.357   2.559 -0.1657  0.0321 -0.0341
30741W        W45872   7.978  14.067  13.844 -0.5212 -0.3418 -0.1250
30742W        W45873  16.564  10.958  13.814  0.1592 -0.0233  0.3089
30743W        W45874   3.165   0.893  11.782  0.1018 -0.0404  0.1366
30744W        W45875   9.827   1.271  14.796  0.1279 -0.1994 -0.1083
30745W        W45876   4.198   2.657   2.993  0.2273 -0.0550  0.0131
30746W        W45877  12.827  17.938   4.446  0.0950 -0.0716  0.2709
30747W        W45878   1.385   3.870   0.173  0.1278 -0.0896 -0.1199
30748W        W45879   7.317   1.044  15.296 -0.1407  0.2849  0.0505
30749W        W45880   6.257   2.383  11.150  0.0444  0.4095  0.1158
30750W        W45881   8.716  18.229   5.598  0.1579 -0.0707 -0.1287
30751W        W45882   4.986   1.188  14.101 -0.2317  0.0404 -0.2472
30752W        W45883   6.806   3.976  15.397 -0.2301 -0.0509 -0.0489
30753W        W45884  10.033   2.280   5.900 -0.1497 -0.1810  0.5142
30754W        W45885   1.171   8.552   2.845  0.0972  0.1630 -0.1360
30755W        W45886   5.295  15.458   2.007  0.0207 -0.0846 -0.1769
30756W        W45887  11.834  15.413  14.501  0.1966  0.1130 -0.1462
30757W        W45888   2.686   9.393  11.926  0.1013 -0.3926  0.0864
30758W        W45889   9.721  17.614  13.702  0.1767 -0.2477 -0.4486
30759W        W45890   3.284  11.477   2.743  0.2400  0.0970  0.1229
30760W        W45891  13.302  17.944  15.605  0.1738 -0.2165  0.1813
30761W        W45892   7.456   1.596  11.958  0.0605 -0.0009 -0.3142
30762W        W45893   1.895  14.469  12.659  0.1678  0.2039  0.1485
30763W        W45894  11.962   2.372   4.291 -0.2221 -0.0332  0.2911
30764W        W45895  16.244   0.311   1.329  0.2718 -0.1118 -0.2896
30765W        W45896   6.243  13.641   1.229 -0.1076  0.0170 -0.1241
30766W        W45897   2.744   5.846  11.536 -0.1910  0.1537  0.0585
30767W        W45898   7.062   7.619   2.592 -0.0263  0.2240  0.2352
30768W        W45899  11.160  10.955   3.417 -0.3294  0.0219 -0.1046
30769W        W45900  11.579  10.172   3.878 -0.0496  0.0058 -0.0445
30770W        W45901  15.089   6.348   2.822  0.5797  0.2587  0.1655
30771W        W45902  16.014  13.836  11.140 -0.0708 -0.2000  0.2891
30772W        W45903   8.336  10.664  14.671 -0.2882  0.2025  0.1223
30773W        W45904  14.192   0.881   2.398  0.0090  0.1174  0.1927
30774W        W45905   0.940  12.014   2.029 -0.0242  0.3188  0.0635
30775W        W45906  16.617  14.429   0.286 -0.1052 -0.1657 -0.1332
30776W        W45907   5.059  12.457   4.535  0.0581 -0.0224 -0.1548
30777W        W45908  13.461  12.894  13.851 -0.0590  0.0739 -0.2958
30778W        W45909   5.304   2.540  13.903  0.0832 -0.5090 -0.1723
30779W        W45910  18.240  16.699   2.949  0.1739 -0.0218 -0.0515
30780W        W45911   2.557  17.616  13.395 -0.0071  0.0942 -0.2198
30781W        W45912   7.251  17.087  14.452  0.0137 -0.1894 -0.1275
30782W        W45913  17.113   4.719   2.667  0.0318 -0.1685  0.1449
30783W        W45914  17.546   9.997   1.100 -0.1091 -0.0727  0.2567
30784W        W45915  15.909  10.007  14.398 -0.0976 -0.1424 -0.1621
30785W        W45916  15.943  15.553  15.736 -0.2984 -0.2331 -0.0891
30786W        W45917   1.623  11.839   3.616  0.1086 -0.0287  0.1039
30787W        W45918   6.932   2.114  15.115 -0.1591  0.0363  0.1993
30788W        W45919   6.776   0.700  11.273  0.2233 -0.0417 -0.1773
30789W        W45920  17.991   4.399  13.495 -0.1685 -0.2112 -0.2619
30790W        W45921  13.293  13.942  11.860 -0.1311  0.0193  0.0094
30791W        W45922   1.631  13.331  11.618  0.0152  0.3983 -0.0074
30792W        W45923   0.134  14.232   1.600 -0.2788 -0.0876  0.2988
30793W        W45924  11.408  12.128  13.309  0.2086  0.1878 -0.0261
30794W        W45925   8.682   5.183   5.069  0.2398 -0.2652 -0.0229
30795W        W45926   4.365   3.265  12.283  0.1187  0.4645  0.3161
30796W        W45927  18.053  13.009   6.275 -0.2953  0.2082  0.1562
30797W        W45928  16.334   1.651  12.983  0.0169  0.2463 -0.0149
30798W        W45929  13.440   6.120  11.340 -0.3372 -0.4606 -0.0798
30799W        W45930  13.064   9.773   5.683 -0.1238  0.0749  0.1878
30800W        W45931  16.351   4.940   1.932  0.0630 -0.1041 -0.0965
30801W        W45932  14.980   4.926   5.437  0.2025  0.1506  0.2155
30802W        W45933  11.962  13.006   5.326  0.0047  0.2903 -0.1183
30803W        W45934   2.350  15.991   5.183  0.1917 -0.3916  0.1665
30804W        W45935   1.257   5.667  12.915 -0.3828  0.0385  0.0412
30805W        W45936   9.404   7.604  10.623  0.0214  0.0328 -0.0400
30806W        W45937  11.125   5.724   2.421  0.0414 -0.0800  0.0446
30807W        W45938  10.660  14.183  12.357 -0.0014  0.1518  0.0952
30808W        W45939   5.291  18.283  12.554  0.3936 -0.3918 -0.0285
30809W        W45940  16.300   1.237  13.290  0.0314 -0.0762 -0.0018
30810W        W45941  13.587  13.974   0.825 -0.2187 -0.0316  0.2453
30811W        W45942  11.187   7.886  12.723  0.4097 -0.1257 -0.0324
30812W        W45943   2.776   3.360   0.223  0.2091 -0.3232 -0.0770
30813W        W45944   2.132  11.295  12.472  0.1311  0.1430 -0.0261
30814W        W45945   5.120   0.753  12.696 -0.3206 -0.2063 -0.1154
30815W        W45946   7.101   6.649  13.784 -0.0309 -0.0970 -0.2495
30816W        W45947   7.688  14.117   0.467  0.3694 -0.0045  0.1386
30817W        W45948   3.990  13.744  12.633 -0.3705 -0.3032  0.2177
30818W        W45949  17.768   5.836  14.713  0.0995 -0.3360  0.1929
30819W        W45950  14.105  10.890  14.098 -0.2183  0.0222  0.1497
30820W        W45951  17.542   3.019   4.311  0.1665  0.3257 -0.3895
30821W        W45952   3.256  16.073  14.002  0.2873 -0.3294 -0.2136
30822W        W45953  13.738   4.716  14.600  0.1392  0.0485 -0.0731
30823W        W45954  15.654   8.984   5.080 -0.2752  0.0209  0.0921
30824W        W45955  15.101  12.140  15.165 -0.2822 -0.0045  0.0994
30825W        W45956  17.680   4.694   1.382 -0.0618  0.2358  0.2955
30826W        W45957   1.723   8.657   0.827  0.2330 -0.3802 -0.1388
30827W        W45958   3.664   2.465  11.646  0.1931  0.0264 -0.0743
30828W        W45959   7.195   8.264  16.049  0.0848  0.0312  0.1145
30829W        W45960   2.210  14.609  15.122 -0.0643  0.0177  0.1539
30830W        W45961   4.344  11.942   5.103  0.3585  0.2534  0.0687
30831W        W45962   5.004   9.903  13.796  0.1812  0.1022 -0.1452
30832W        W45963   3.264   5.095   1.760 -0.1892 -0.1441 -0.0361
30833W        W45964  13.884  10.235  14.740 -0.4106 -0.0238 -0.0599
30834W        W45965  16.078  15.108   5.578  0.1478 -0.0470 -0.0340
30835W        W45966   0.825  15.230   5.459 -0.0840  0.2566 -0.1716
30836W        W45967  13.500  16.619  15.306 -0.1085  0.0143  0.1255
30837W        W45968  11.297  11.546  12.240  0.2504 -0.2268 -0.1130
30838W        W45969  12.094  15.075   5.983  0.0979 -0.1807 -0.1285
30839W        W45970   0.463  12.459   4.817 -0.1075 -0.4533 -0.1890
30840W        W45971   5.195   4.429  12.070 -0.1715 -0.0491  0.2586
30841W        W45972   5.072   5.184  15.767  0.0207 -0.1326  0.0838
30842W        W45973  14.352  17.037   5.386  0.3264 -0.2146 -0.0665
30843W        W45974   8.983  11.550  15.996 -0.5256  0.0388  0.1093
30844W        W45975   6.206  17.830   2.575  0.2254  0.1900 -0.1633
30845W        W45976   6.508   7.341  11.717  0.0733  0.0891 -0.1917
30846W        W45977  14.776   4.523  15.598 -0.0339  0.1493  0.2169
30847W        W45978   1.844   0.076  14.002  0.0839  0.0956 -0.0932
30848W        W45979   0.230   6.049  15.385  0.0615 -0.0186 -0.2011
30849W        W45980  17.006   2.934  13.254  0.1544  0.0152 -0.0577
30850W        W45981  16.853   7.361  14.269  0.0400  0.4199  0.2467
30851W        W45982   0.951   5.035  12.465  0.1351  0.0715  0.0179
30852W        W45983  17.985   1.445  13.292  0.2231 -0.1820  0.0532
30853W        W45984  14.296  12.019   0.740  0.0535  0.0418 -0.3223
30854W        W45985   0.103   6.875  11.189 -0.0751  0.1198  0.0764
30855W        W45986   3.158   6.102   2.191  0.0168 -0.0891  0.0286
30856W        W45987   6.692   3.396  13.114  0.0261  0.0288  0.2440
30857W        W45988   9.205  11.655   2.349 -0.0456  0.0079 -0.0731
30858W        W45989  17.921  15.053   0.788 -0.6261 -0.0450 -0.1344
30859W        W45990   7.569   5.186  13.555  0.2486  0.1266  0.5698
30860W        W45991   3.862  14.495   3.076  0.1448  0.2639 -0.1309
30861W        W45992   1.288  13.588  14.986 -0.2098  0.0169  0.0782
30862W        W45993   8.920   6.934   0.213 -0.0068  0.0387  0.2163
30863W        W45994  11.604  14.311   1.089 -0.0260  0.1701 -0.2349
30864W        W45995  17.782   3.745  12.765  0.1924 -0.0386 -0.2161
30865W        W45996  10.215  17.096   4.763  0.2481 -0.0906 -0.1443
30866W        W45997   7.484   4.354   1.494  0.3211 -0.3844 -0.5266
30867W        W45998   8.733  13.956   4.281  0.0630 -0.2473 -0.1278
30868W        W45999   9.329   5.437  13.820  0.1434  0.0367  0.3960
30869W        W46000   3.375  16.014   5.025 -0.2519  0.1391 -0.4322
30870W        W46001   8.929  15.459  10.569 -0.0388  0.1920 -0.0243
30871W        W46002   5.456   2.042  14.672 -0.0342  0.1661 -0.0785
30872W        W46003  14.423   8.334  11.342  0.0063 -0.0189  0.0748
30873W        W46004  11.617  10.614  13.174 -0.1880 -0.2741 -0.3741
30874W        W46005  13.279  16.245  13.707 -0.2113 -0.2677  0.3209
30875W        W46006   2.362  13.178   2.440 -0.0923 -0.1508  0.0867
30876W        W46007   9.739   8.521  13.284 -0.0167 -0.1092  0.1039
30877W        W46008   1.506  16.630  14.202  0.0244 -0.3102 -0.0984
30878W        W46009   6.087  16.502  14.490  0.2686  0.4588  0.0942
30879W        W46010   6.734  13.627   1.636  0.4250  0.0041 -0.1142
30880W        W46011  16.872  17.772  12.695 -0.2270  0.0315  0.1601
30881W        W46012  14.146  17.650   1.627  0.0093  0.2217 -0.0618
30882W        W46013  16.258   1.597  14.892  0.2224  0.1676  0.0375
30883W        W46014   8.753   8.078  11.653  0.2527 -0.0196  0.0225
30884W        W46015  12.956   1.879   0.417 -0.1270 -0.1959  0.0721
30885W        W46016   0.766   3.022  15.590  0.1912 -0.2941  0.2697
30886W        W46017  13.904   1.118   4.128 -0.0636  0.0238 -0.1416
30887W        W46018  15.338  16.414   3.296  0.1078 -0.1962 -0.1127
30888W        W46019   5.259  12.685   1.924 -0.2187 -0.0177  0.1228
30889W        W46020   4.125   2.287   2.673  0.1625 -0.1942  0.0729
30890W        W46021   4.375  17.179  11.272 -0.2886 -0.1000 -0.0210
30891W        W46022   2.856  13.606   0.103 -0.2305 -0.3597 -0.2242
30892W        W46023  14.948  15.172   1.316  0.0106  0.0584  0.1537
30893W        W46024  10.775  15.677  13.656 -0.1722 -0.0595 -0.2947
30894W        W46025  15.901  10.972  15.866 -0.5229 -0.0258 -0.2216
30895W        W46026  10.620  18.254  14.261 -0.1875  0.0036  0.3640
30896W        W46027  10.694   5.398  15.498  0.5175  0.1179  0.0323
30897W        W46028  18.179  13.184   1.049 -0.0640 -0.0586 -0.1259
30898W        W46029   0.012   3.238   5.374 -0.0143 -0.2761  0.1068
30899W        W46030  15.947   0.542  15.043  0.0658  0.2983  0.0290
30900W        W46031   4.621   5.177  12.188 -0.2412 -0.2086 -0.2952
30901W        W46032  11.677  13.840   0.342 -0.1253 -0.6067 -0.0362
30902W        W46033  10.875   0.509   3.356  0.0248  0.3959  0.1263
30903W        W46034   1.015   0.669  13.957 -0.0836  0.1275 -0.0728
30904W        W46035   2.517   5.697   2.762 -0.0726 -0.2637 -0.0691
30905W        W46036  18.144   0.298  14.139 -0.0877  0.3304 -0.2110
30906W        W46037   4.138   1.968   2.261 -0.4043 -0.0386  0.1099
30907W        W46038   0.615  15.228   5.003 -0.0339 -0.0132  0.0436
30908W        W46039   1.769  15.314  12.536  0.0298  0.1156 -0.2003
30909W        W46040   3.567   7.835  14.647 -0.1243 -0.0167 -0.1299
30910W        W46041   3.330   4.026   1.265  0.1170  0.2369  0.1035
30911W        W46042  11.022   7.360   1.695 -0.3084  0.2249 -0.0741
30912W        W46043  10.400  17.621  15.570  0.1431 -0.1206 -0.0013
30913W        W46044   0.765   5.139   5.175  0.2070 -0.2177  0.1739
30914W        W46045   5.549  14.020   2.330 -0.1424 -0.1981 -0.0207
30915W        W46046   1.277  15.468   4.376  0.0056 -0.3663 -0.3431
30916W        W46047   6.983  15.428  13.021 -0.2186 -0.0354 -0.4774
30917W        W46048   4.112   4.201  14.521  0.0361 -0.1976  0.0893
30918W        W46049   1.931   6.323  13.178 -0.0728 -0.1348  0.2690
30919W        W46050  12.972   6.016  16.076  0.1410 -0.0517 -0.0705
30920W        W46051   6.136  16.479   1.783 -0.0804  0.1729 -0.0971
30921W        W46052   2.265  15.728  13.044 -0.1117  0.3233  0.0130
30922W        W46053   2.947   6.375   2.883  0.2539 -0.1942  0.1603
30923W        W46054  12.703   6.988  11.167  0.0482  0.2316 -0.1628
30924W        W46055   4.850   6.749   1.315  0.0006 -0.0779  0.1322
30925W        W46056  14.645  10.778  13.166  0.0333 -0.2777 -0.1590
30926W        W46057  13.857   2.862   4.564 -0.0856 -0.3697 -0.0381
30927W        W46058  13.216   3.861  14.915  0.4847  0.1434 -0.1083
30928W        W46059   3.526  10.083   1.853  0.0005 -0.1594 -0.3428
30929W        W46060   7.644  13.754  10.431 -0.3035 -0.0721  0.0140
30930W        W46061  10.889   8.705   1.564 -0.2338 -0.1545 -0.1879
30931W        W46062  11.380   7.814   1.797  0.1379  0.0829 -0.0968
30932W        W46063  12.106   9.437   5.221 -0.2328 -0.2342  0.2648
30933W        W46064  10.005  11.685  16.056  0.0552 -0.3128  0.0173
30934W        W46065   7.098  10.720   5.399 -0.0821 -0.2235 -0.2213
30935W        W46066   0.259   0.734   4.064 -0.0871 -0.1403  0.0263
30936W        W46067  14.973   1.633   3.495 -0.1800 -0.4381  0.1089
30937W        W46068   9.944  16.441  12.948  0.1190  0.2490 -0.2477
30938W        W46069   6.102   3.914  12.513  0.0186 -0.0200 -0.3088
30939W        W46070  16.255  16.408  11.086 -0.0599  0.1201  0.0266
30940W        W46071  16.957   3.357  11.580 -0.0918 -0.2772  0.0412
30941W        W46072   2.166   2.745  15.649  0.0489 -0.0589  0.1685
30942W        W46073   7.427   3.609   5.314 -0.1271 -0.1215  0.0125
30943W        W46074   9.502   1.297   4.793  0.1769  0.0523 -0.0552
30944W        W46075  11.692  15.494   1.559 -0.1197 -0.3693 -0.2554
30945W        W46076   4.545   7.306   2.601 -0.0963 -0.0636 -0.2014
30946W        W46077   7.872  12.250  15.439  0.2018  0.2022 -0.1775
30947W        W46078   7.277   6.413  14.320  0.0677  0.3241  0.0607
30948W        W46079  10.856   7.068  12.628 -0.0114 -0.1289  0.0909
30949W        W46080  16.856   4.667   3.204  0.0346 -0.1013 -0.1751
30950W        W46081  14.565   1.402  12.557 -0.3594  0.2489  0.1419
30951W        W46082   4.241   2.923   0.069  0.0873 -0.0524 -0.1577
30952W        W46083   4.530   6.732  13.733 -0.0718 -0.0319  0.0010
30953W        W46084   6.875   4.136   2.386  0.0475  0.1716 -0.1901
30954W        W46085   2.605  11.096   4.980 -0.0753  0.0723 -0.2472
30955W        W46086  10.460  17.424  11.698  0.0670  0.1556 -0.0743
30956W        W46087  14.456   4.154   1.486  0.0802  0.0229  0.2994
30957W        W46088   9.178  10.171  15.917  0.3934 -0.0651  0.0668
30958W        W46089  12.372  17.620  14.068 -0.0317 -0.1025  0.0452
30959W        W46090  11.015  15.571  10.655 -0.3511 -0.1808 -0.5207
30960W        W46091  14.410   3.438  14.970 -0.2209 -0.2797 -0.0568
30961W        W46092   6.283  18.289   3.856 -0.0595  0.1232  0.2019
30962W        W46093  14.847   5.781  11.968  0.1663 -0.0120  0.1874
30963W        W46094  12.722  12.314  14.419  0.0538  0.0626  0.0685
30964W        W46095   7.092   1.765  13.750 -0.0738  0.1507 -0.0966
30965W        W46096   4.796  11.517   3.055  0.1964 -0.1623  0.1462
30966W        W46097   0.104  17.370  10.340  0.1004  0.0495  0.2374
30967W        W46098   0.416  17.687   4.692  0.2009  0.2458  0.1099
30968W        W46099   1.766   6.080   1.718 -0.0572  0.1949  0.0515
30969W        W46100   8.038   6.828  12.751 -0.2124 -0.0187 -0.1586
30970W        W46101  15.776   1.818   3.225  0.0549 -0.0654  0.2683
30971W        W46102  17.720   3.664  14.016  0.1297 -0.0144  0.0263
30972W        W46103   4.799   2.163  12.997 -0.2571 -0.1604 -0.0334
30973W        W46104  15.124   6.888  12.833  0.2769  0.0217 -0.0683
30974W        W46105  16.938  17.324  11.495  0.1087  0.1239  0.2399
30975W        W46106   7.310   5.574  12.636  0.1451 -0.1524  0.1717
30976W        W46107  16.885  12.622  14.362  0.0964 -0.2554 -0.0189
30977W        W46108   1.621  10.124  13.175  0.1462  0.0598 -0.0511
30978W        W46109  10.126  12.932  13.574 -0.0463  0.2033  0.3549
30979W        W46110   3.860  10.930  15.205 -0.2227  0.1297  0.1899
30980W        W46111  12.293   5.739  11.331  0.0503  0.0360 -0.3650
30981W        W46112  17.409  11.964  13.631 -0.0456 -0.2641 -0.1785
30982W        W46113   6.116  17.753  13.124  0.0314  0.0948 -0.3368
30983W        W46114   7.885   0.183   4.779  0.1102 -0.1121  0.2308
30984W        W46115  12.992  15.623  10.883 -0.2914  0.1357 -0.1188
30985W        W46116   9.903   3.484   4.135 -0.0400 -0.0996 -0.0257
30986W        W46117  12.770   9.189   3.460 -0.0424  0.1186  0.0089
30987W        W46118   5.700   5.347   5.340 -0.0471 -0.1763 -0.2725
30988W        W46119   9.776   0.696   2.704 -0.2242 -0.2056  0.0742
30989W        W46120   4.477  18.054  15.781 -0.1254  0.1479  0.0063
30990W        W46121  17.054   3.202  12.766 -0.2727  0.0537 -0.0485
30991W        W46122   9.475   5.709  13.404 -0.0645 -0.2986  0.0512
30992W        W46123   5.343   6.730   1.370 -0.0287  0.0975 -0.1618
30993W        W46124  11.256   8.726  13.771 -0.0622 -0.3482  0.2119
30994W        W46125   3.576  17.891  12.730  0.0045 -0.0808 -0.1893
30995W        W46126   3.703   4.651   0.483 -0.0941 -0.1465 -0.1360
30996W        W46127   9.174   8.372   0.784  0.1876 -0.2611 -0.1236
30997W        W46128   7.012   1.687  13.269 -0.1941 -0.1120  0.0499
30998W        W46129  12.159  12.307   9.789 -0.0098  0.2261 -0.2275
30999W        W46130   3.465  10.997   2.592  0.0901  0.1686  0.1813
31000W        W46131  11.609  10.198  12.878 -0.0780 -0.1070 -0.3076
31001W        W46132  17.764   2.825  14.428 -0.0134  0.0829  0.1051
31002W        W46133  15.009  14.424  14.425 -0.0174 -0.1257 -0.0386
31003W        W46134   8.516   0.166  15.728  0.2036 -0.1894 -0.0902
31004W        W46135  16.750   8.700   9.783 -0.0961  0.0770  0.1402
31005W        W46136  11.985   2.974  11.324 -0.1511 -0.0923 -0.1743
31006W        W46137   1.280   7.908   4.690  0.1013  0.2630 -0.0607
31007W        W46138   2.010  12.519   0.368 -0.2606  0.0180  0.2472
31008W        W46139  16.240   5.304  14.076 -0.1353 -0.1606  0.0370
31009W        W46140  17.805  14.770   5.359  0.1650  0.1159 -0.0778
31010W        W46141   4.438   5.885  14.978  0.1735 -0.4351  0.1072
31011W        W46142  14.837   1.259  14.751  0.5254  0.0903 -0.1927
31012W        W46143   7.301   4.105  12.054 -0.1252 -0.1853  0.1140
31013W        W46144  10.376   1.635   1.686 -0.0500 -0.0698 -0.0836
31014W        W46145  15.279   9.307  12.991 -0.2976  0.0430 -0.1512
31015W        W46146  13.538   4.532  11.277  0.1312 -0.2269  0.0164
31016W        W46147   5.797   8.573  10.177 -0.2185  0.0843  0.1727
31017W        W46148   2.451   2.361  11.376 -0.2522 -0.0014  0.0927
31018W        W46149   4.589  16.576   4.036  0.0070  0.0628  0.3702
31019W        W46150   9.323   0.363  10.892  0.1718  0.1601  0.1269
31020W        W46151   3.080   9.060   4.550  0.2092  0.1226  0.1105
31021W        W46152   8.083  12.500   2.524  0.1624 -0.2422 -0.0370
31022W        W46153   0.690  11.500   0.257 -0.0205  0.1861 -0.1683
31023W        W46154  13.950  16.914   4.492  0.0317  0.3823  0.1889
31024W        W46155   7.929   4.686   1.357 -0.2958  0.2736 -0.2546
31025W        W46156  15.792  11.447   4.389  0.1220 -0.0082 -0.0891
31026W        W46157  18.263   8.621  12.195  0.0369 -0.1664  0.1324
31027W        W46158   8.876   2.779  15.209 -0.0248 -0.2175 -0.2016
31028W        W46159   1.401   9.175  16.031 -0.0033  0.0342 -0.0378
31029W        W46160  11.693  18.111  15.068 -0.2460 -0.0013 -0.3038
31030W        W46161   8.971   0.775   0.630  0.1706  0.0323  0.4067
31031W        W46162   8.711   9.223   1.812  0.0855  0.0253 -0.1249
31032W        W46163  13.068  14.236  11.254  0.0972 -0.0518  0.1395
31033W        W46164   3.777   4.500   4.253  0.2605 -0.0153  0.2220
31034W        W46165   3.236  16.016  11.419 -0.2446 -0.1008  0.1110
31035W        W46166   6.351   7.364   4.898 -0.0482 -0.0395  0.1078
31036W        W46167   0.134  13.630  13.988  0.3404  0.0500  0.0074
31037W        W46168   0.077   3.291  11.122 -0.1190  0.0404  0.2279
31038W        W46169  17.575  16.403  13.231  0.2426 -0.2011 -0.5843
31039W        W46170   0.469   7.184  13.165 -0.1790 -0.1024  0.2810
31040W        W46171   8.769   7.646  14.183 -0.1662  0.0965 -0.0533
31041W        W46172  10.232  14.895  13.704  0.2370  0.0584 -0.1684
31042W        W46173  14.307   6.666   0.186  0.1574  0.0238 -0.2228
31043W        W46174   7.957   1.612  13.179 -0.1700  0.0746  0.3428
31044W        W46175   7.370  18.098   2.852  0.0940  0.1485 -0.0202
31045W        W46176   9.641   3.355  13.758 -0.1202  0.3375 -0.0645
31046W        W46177  10.194  16.289   4.606  0.3044 -0.1629  0.0510
31047W        W46178   8.022  11.215   2.653  0.2050  0.0143  0.2999
31048W        W46179  13.102  16.252   0.640 -0.0385  0.0736  0.2123
31049W        W46180   2.647   8.824  13.980 -0.3545 -0.2254  0.1216
31050W        W46181  16.755   5.261   4.651 -0.0470  0.0343  0.0191
31051W        W46182   6.862  13.300  12.885  0.1967 -0.1199 -0.2699
31052W        W46183   9.289   3.632  15.126 -0.2851  0.0517 -0.2170
31053W        W46184  14.348   6.147   0.066  0.0607 -0.1184 -0.0762
31054W        W46185  14.491   4.166  12.018  0.1597 -0.1553  0.1350
31055W        W46186  12.919   0.210   4.527  0.1278 -0.0824 -0.1392
31056W        W46187   3.810  11.336  13.433 -0.0355  0.1214  0.0522
31057W        W46188   6.634   6.783   0.935  0.1478 -0.0225  0.1031
31058W        W46189  15.262   0.439   1.696  0.2338 -0.1050  0.0138
31059W        W46190   3.489  12.088  12.147  0.0178 -0.0857  0.2763
31060W        W46191  17.088   8.360   5.040 -0.1387 -0.3917 -0.2402
31061W        W46192   0.720   3.891  15.580 -0.1576  0.2021 -0.1379
31062W        W46193   0.851  12.513   2.937  0.0214 -0.2263 -0.0243
31063W        W46194   5.495  16.748   2.705  0.5998  0.1171 -0.4837
31064W        W46195  11.685   9.600   1.225 -0.1179  0.0895 -0.1727
31065W        W46196   0.509   7.054  12.208 -0.0105  0.1175  0.3878
31066W        W46197   7.108   0.977  14.228  0.0170 -0.0384 -0.0864
31067W        W46198   6.781  15.591   4.274  0.0430 -0.0239  0.1861
31068W        W46199  16.325  15.331   1.342  0.0745  0.1832  0.1034
31069W        W46200  15.218  13.465  15.599 -0.0560  0.1250 -0.2518
31070W        W46201  17.831  11.529  10.019  0.0111 -0.1553 -0.3154
31071W        W46202   8.826   8.813  14.942  0.1882 -0.1963  0.0503
31072W        W46203   9.845   2.726   1.360 -0.2850  0.0597  0.1165
31073W        W46204   3.635   0.262  13.708  0.0574 -0.0500 -0.3031
31074W        W46205   8.919  17.418  12.992 -0.0612 -0.1248 -0.2102
31075W        W46206  17.479  15.533  13.367 -0.0788 -0.1402  0.0966
31076W        W46207   8.819  13.747   2.390 -0.1956  0.0886 -0.2933
31077W        W46208  17.692  13.299  13.858 -0.1591  0.0476  0.0677
31078W        W46209   6.164   2.362  14.404 -0.0016 -0.0012  0.2610
31079W        W46210   9.301   9.797   4.829  0.2324 -0.1259  0.0942
31080W        W46211  11.513   4.386   0.947 -0.1391 -0.0339 -0.2385
31081W        W46212   6.717  14.791  12.755 -0.2163  0.0066 -0.0386
31082W        W46213  12.121  13.414   0.271 -0.0424 -0.0770 -0.0824
31083W        W46214   3.390   3.756  13.373  0.3222 -0.1491 -0.0360
31084W        W46215   7.748  15.058  13.084  0.0432  0.1942  0.1314
31085W        W46216  16.130  12.237  10.629  0.0542  0.0573 -0.0758
31086W        W46217  14.843   5.380   0.603 -0.0704  0.1140 -0.1014
31087W        W46218  12.293  18.234  10.399  0.2726 -0.1712  0.0583
31088W        W46219   1.056  11.815  10.754  0.0420 -0.5731 -0.3099
31089W        W46220   2.744   3.164   1.245  0.1187  0.2012 -0.3141
31090W        W46221   6.540   9.038  11.694  0.0461  0.1026 -0.2979
31091W        W46222  14.341  10.741  12.041  0.1731  0.1926  0.3623
31092W        W46223   5.011   2.886   3.502  0.0180 -0.0446 -0.0253
31093W        W46224  17.943   5.686   1.191 -0.1422  0.0973  0.0351
31094W        W46225   5.199   9.805   1.889 -0.1743  0.4160 -0.0134
31095W        W46226   9.953  17.055   4.323  0.3358  0.0949  0.0896
31096W        W46227   8.050  10.197   2.379 -0.0436  0.1387 -0.1431
31097W        W46228  18.173  13.199  12.967  0.0009  0.2093  0.1874
31098W        W46229  14.680  15.214  15.090 -0.3205 -0.1154  0.2499
31099W        W46230   0.528  11.396  14.406 -0.2597 -0.1524 -0.3094
31100W        W46231  11.841   8.389  15.067  0.0165 -0.0687 -0.2426
31101W        W46232   1.705   3.540   0.353 -0.0348  0.0368  0.0375
31102W        W46233  18.241  17.834  12.993 -0.1044 -0.4295 -0.0507
31103W        W46234   4.651  17.690   4.890  0.0533 -0.1293 -0.0998
31104W        W46235  14.549   4.469   2.655  0.0106 -0.0547 -0.0903
31105W        W46236  11.154   4.092  13.576  0.0378 -0.1360  0.1723
31106W        W46237   0.172   7.393  11.513 -0.0951 -0.4978 -0.1835
31107W        W46238  17.101   5.469   4.363 -0.0857 -0.0867  0.1742
31108W        W46239   6.453   6.272  14.039 -0.1571 -0.1623 -0.1526
31109W        W46240  17.977  11.670  12.552 -0.0998  0.3562 -0.2508
31110W        W46241  17.286   1.545  14.549 -0.2076  0.1297 -0.2148
31111W        W46242   2.791   8.706  15.929 -0.0835 -0.0366 -0.1002
31112W        W46243  15.295  16.783  11.090 -0.0788  0.2676 -0.0764
31113W        W46244   9.421  12.232  14.406  0.3099  0.0472 -0.1170
31114W        W46245  16.724   6.310   0.623  0.0218 -0.0421 -0.1345
31115W        W46246   5.421  11.028   4.112 -0.4202  0.1175  0.2437
31116W        W46247  13.799   2.206  11.109 -0.1136  0.2848  0.0322
31117W        W46248   4.086  14.863   3.477  0.0667  0.1307 -0.2555
31118W        W46249   2.830   0.635   5.892 -0.0497 -0.0488  0.2433
31119W        W46250   0.899   5.074   4.217  0.1540 -0.1081  0.0723
31120W        W46251   7.846  16.995   1.708 -0.0169 -0.2444  0.1618
31121W        W46252  14.577  14.094  10.374  0.1785  0.0710  0.0069
31122W        W46253   3.937  16.312   4.176  0.2456 -0.2289  0.2356
31123W        W46254   5.029  16.593  13.655 -0.2672  0.0546  0.0665
31124W        W46255   4.021   3.932  14.089 -0.1738 -0.1062 -0.1839
31125W        W46256  16.480   7.795   1.699 -0.0115 -0.0597  0.2019
31126W        W46257   7.530   0.126  12.233 -0.0716 -0.1436 -0.2949
31127W        W46258   4.681   8.027  14.822  0.0632  0.1304 -0.0453
31128W        W46259   9.602   8.160   3.906 -0.2010 -0.3420  0.0040
31129W        W46260  17.926   3.422   5.646  0.0081 -0.1606 -0.0573
31130W        W46261   1.489   8.693   2.006 -0.1149 -0.2323 -0.3071
31131W        W46262   2.424  16.262   2.333 -0.0544 -0.0290  0.2676
31132W        W46263   1.466   1.715   2.530  0.1328  0.0257  0.0871
31133W        W46264   4.311  14.136   0.349 -0.3031  0.0541 -0.2131
31134W        W46265   8.406   7.981  14.362  0.1800 -0.0817  0.3101
31135W        W46266  11.069  15.011   5.448  0.5122 -0.1373 -0.3410
31136W        W46267   5.172  12.227  15.456 -0.1931 -0.0875  0.1319
31137W        W46268  12.386   7.214   5.908  0.4095 -0.2094 -0.2589
31138W        W46269  16.181   4.348  15.939  0.2021 -0.1591 -0.1456
31139W        W46270   1.363   3.150  15.575  0.0193  0.1497  0.0866
31140W        W46271   1.364   3.149  12.758 -0.1198 -0.0494 -0.0320
31141W        W46272  16.884  17.084   4.270 -0.0292 -0.2027 -0.0277
31142W        W46273   2.358   0.042  13.823  0.0865 -0.1881 -0.1291
31143W        W46274   4.163   1.605   6.598  0.1167  0.0710  0.0884
31144W        W46275  12.753  14.459   5.047 -0.0775 -0.0232 -0.1008
31145W        W46276   5.145  16.610  11.537  0.1930 -0.1050  0.0052
31146W        W46277  15.537   3.471   2.937 -0.2826  0.0454 -0.0457
31147W        W46278   4.107  13.917   4.064  0.1419  0.3934  0.1125
31148W        W46279  13.729   4.295   4.890  0.1624  0.0374 -0.0563
31149W        W46280  14.560  12.225  12.879 -0.1695  0.0729  0.0801
31150W        W46281   3.069   7.119   2.348  0.0799  0.1457  0.0863
31151W        W46282  10.520   8.957  15.289  0.3323  0.0056  0.1905
31152W        W46283   6.952  12.790   3.752 -0.0519  0.0123 -0.1219
31153W        W46284  11.388   1.458  15.136 -0.2784  0.4772 -0.0800
31154W        W46285   0.898   9.109   4.103  0.0805 -0.0967  0.2263
31155W        W46286   3.466   4.165   3.365  0.0338  0.0958 -0.1098
31156W        W46287  17.463  13.796   1.463  0.2187 -0.3459  0.1037
31157W        W46288   7.879   8.540  13.907  0.1810  0.0971  0.3296
31158W        W46289   7.125  10.686   3.528 -0.1351 -0.2146 -0.0423
31159W        W46290   0.930  14.051  14.226 -0.0360 -0.1708 -0.1625
31160W        W46291   3.776  17.600   5.334 -0.2099  0.0783  0.0683
31161W        W46292  11.227   7.381  13.642 -0.1345 -0.2347  0.0065
31162W        W46293   9.852  12.519  12.809 -0.4573  0.2065 -0.1482
31163W        W46294   3.911   5.315   0.688  0.3337  0.1511 -0.0151
31164W        W46295   2.260   6.786   1.987 -0.0159  0.2405  0.3451
31165W        W46296   8.969  13.269  10.893  0.0359 -0.2068 -0.1749
31166W        W46297  12.699   4.732  13.434 -0.1951 -0.2376 -0.1430
31167W        W46298  17.626  11.423   9.512 -0.0415 -0.2460  0.2855
31168W        W46299   7.731  17.278  13.611 -0.1967  0.0300 -0.1253
31169W        W46300   4.787   4.476   1.371  0.0837  0.1000  0.2288
31170W        W46301   2.115   6.398  15.964 -0.1415 -0.1422 -0.1451
31171W        W46302   3.760   3.708   3.637 -0.2369 -0.1912 -0.1996
31172W        W46303  18.313  14.107   3.139 -0.2869 -0.1347 -0.2030
31173W        W46304   0.989  18.212  11.788 -0.1836 -0.0139  0.0617
31174W        W46305  17.455  15.686   0.274 -0.2397  0.2684 -0.0425
31175W        W46306   7.516   1.689  15.964  0.1281 -0.0410  0.2454
31176W        W46307   2.573   8.561  11.283  0.0274 -0.0467  0.2009
31177W        W46308   7.471   8.891   0.511 -0.0783 -0.1662  0.0452
31178W        W46309   5.658  17.463   3.858 -0.0784 -0.2007  0.0451
31179W        W46310   3.892   2.331  13.045 -0.1517  0.0186  0.2510
31180W        W46311  12.152   0.107  15.089  0.0224  0.2377  0.0604
31181W        W46312   4.394   4.711   4.163  0.0507  0.0568  0.0900
31182W        W46313   3.285   9.777   1.540  0.2709 -0.1636 -0.2018
31183W        W46314  17.287   2.351  13.587 -0.1028  0.4024 -0.0103
31184W        W46315  18.115   4.152  13.979  0.0296  0.0872  0.1369
31185W        W46316  15.794   7.674   4.421 -0.3065 -0.3332 -0.1957
31186W        W46317   3.965  14.432   5.670 -0.0831 -0.0920 -0.1152
31187W        W46318  12.384  17.446   3.206  0.3034 -0.1404 -0.2006
31188W        W46319  11.214  10.177   9.782 -0.1614  0.1313 -0.2879
31189W        W46320  14.378  16.215  11.586 -0.0241  0.0570  0.0760
31190W        W46321   5.011   8.684   0.257 -0.0527 -0.3316 -0.2346
31191W        W46322   6.574  11.994   0.277  0.0662 -0.0824  0.6000
31192W        W46323  10.443   6.258   1.542 -0.0855  0.1559 -0.1119
31193W        W46324   0.854  10.555   6.247  0.0884  0.0098  0.1637
31194W        W46325  12.559  15.563   1.184 -0.2182 -0.0904  0.1076
31195W        W46326  13.649   1.003   0.628  0.1948  0.0778 -0.1251
31196W        W46327  10.285  13.140   2.584  0.0471 -0.1245  0.0096
31197W        W46328   8.689  14.975  15.515  0.1075  0.1673 -0.1946
31198W        W46329   5.147   1.208  13.481 -0.0963  0.1821 -0.0083
31199W        W46330  13.261  10.292   2.284 -0.2452  0.1510  0.0188
31200W        W46331  17.398  16.973  11.977 -0.0504  0.0573  0.0330
31201W        W46332   2.780  14.416  11.974 -0.0231  0.0599  0.2236
31202W        W46333  17.038  15.115   0.864 -0.0899  0.0482  0.0126
31203W        W46334   6.846   9.711   1.359 -0.1509 -0.0741  0.3089
31204W        W46335  17.414   4.867  14.476 -0.0532 -0.1338 -0.2501
31205W        W46336  15.675  17.623  13.829 -0.1179  0.1521  0.2111
31206W        W46337   1.612  11.490   3.199  0.2264 -0.1750  0.0394
31207W        W46338  12.070  12.120  12.017 -0.0290  0.0840 -0.1037
31208W        W46339   7.979  14.796   3.589 -0.0116  0.1039 -0.1365
31209W        W46340   0.843  10.374  14.553  0.2174 -0.1856 -0.1094
31210W        W46341  15.976  16.058   0.940  0.0985 -0.1029 -0.1248
31211W        W46342  13.397   9.946  10.808  0.0108  0.0403  0.0865
31212W        W46343   9.432  15.561  12.276  0.2895 -0.0210  0.1654
31213W        W46344  13.131  14.060  15.097  0.1409  0.3130  0.0183
31214W        W46345  17.068  17.235   3.278 -0.0365 -0.0908  0.0068
31215W        W46346  13.123  10.422   1.800  0.0846  0.2149 -0.0423
31216W        W46347  16.440  16.446  14.015  0.3575 -0.0268  0.2860
31217W        W46348   2.739   7.545   5.670  0.0603 -0.1786  0.0455
31218W        W46349   3.756  14.523   5.229  0.2298 -0.2420  0.1717
31219W        W46350   3.073  13.930   2.009 -0.0195 -0.2529  0.3915
31220W        W46351   3.277   9.876  14.402  0.1553 -0.2741  0.3026
31221W        W46352  11.769   2.115  11.377  0.1291 -0.1011 -0.0446
31222W        W46353   5.473  18.152   1.394  0.2615 -0.2419 -0.1210
31223W        W46354  15.595  12.287  15.095 -0.2784 -0.1293  0.2505
31224W        W46355   3.002   8.441  12.094  0.3696 -0.1128 -0.3014
31225W        W46356   9.311   5.428  11.303  0.3273 -0.1134  0.0183
31226W        W46357   9.886   4.929   3.512 -0.1349 -0.1011  0.2475
31227W        W46358   2.418  16.272   1.547  0.0803  0.1568  0.6654
31228W        W46359   7.472  11.396   4.980  0.1191  0.0334  0.0751
31229W        W46360  12.720   9.258   3.006 -0.0013 -0.1617 -0.1078
31230W        W46361   3.450   8.731   1.486  0.0672 -0.1244  0.2708
31231W        W46362  11.464   9.761   4.739 -0.0175  0.3863  0.1358
31232W        W46363  13.838   9.493   3.630  0.1541 -0.1453 -0.3971
31233W        W46364  15.456  15.166  13.177  0.1404 -0.0697 -0.1713
31234W        W46365   1.273  17.401   5.538  0.1032  0.0168 -0.1935
31235W        W46366  15.415   9.201   4.655 -0.0617 -0.2263 -0.1474
31236W        W46367   4.963  11.071   2.907 -0.1180  0.0813 -0.1627
31237W        W46368   4.888   4.320  14.901 -0.0476 -0.1550 -0.1854
31238W        W46369  11.194   0.528  16.058  0.1541 -0.0627  0.2654
31239W        W46370   9.482   0.238   1.313 -0.1046 -0.0537 -0.0859
31240W        W46371   0.563   6.756  11.800 -0.2267  0.2140  0.1330
31241W        W46372  14.196   7.244   1.629 -0.2583 -0.2521  0.2296
31242W        W46373   9.118  18.210   1.299 -0.1313 -0.4127 -0.1057
31243W        W46374   2.077   1.640  13.248 -0.0296 -0.1504  0.1853
31244W        W46375  14.326  12.697  13.015  0.2853 -0.2630 -0.0309
31245W        W46376  17.742   2.268   6.238 -0.0737  0.0763 -0.1620
31246W        W46377   5.911   2.453   2.399  0.1326 -0.0222 -0.3724
31247W        W46378   3.588   7.271  13.263 -0.1365 -0.0456  0.2289
31248W        W46379  14.305  15.787   5.160 -0.1127 -0.0089 -0.2067
31249W        W46380   7.267   6.470  12.114 -0.1219 -0.0323  0.2268
31250W        W46381  11.332  13.600   2.564 -0.0466  0.1122 -0.1355
31251W        W46382  12.661  11.312   3.701 -0.2232 -0.0305 -0.0444
31252W        W46383  16.202   9.412  11.594  0.1291 -0.4174 -0.1112
31253W        W46384   9.477   1.050   0.303 -0.0670  0.2739 -0.1100
31254W        W46385   1.482   6.835   3.797 -0.0867  0.2783 -0.2239
31255W        W46386  12.915   2.182  13.313 -0.1094  0.1781  0.0067
31256W        W46387  10.174  11.977  15.072  0.1566  0.2762  0.0982
31257W        W46388  17.562  13.831   4.812 -0.2654  0.1322  0.0497
31258W        W46389  16.170   1.363  14.244 -0.1954 -0.1763  0.1359
31259W        W46390  14.358  15.926   2.762  0.0434 -0.0620 -0.0327
31260W        W46391   9.839   7.258  13.945  0.2207  0.1116  0.2125
31261W        W46392  17.972   0.164  12.519 -0.1043 -0.0698  0.0081
31262W        W46393   5.297   2.431   3.736 -0.1715  0.0104  0.0629
31263W        W46394  10.036  16.785  15.394  0.1464  0.3491 -0.2440
31264W        W46395   6.585   7.407   3.731  0.0170 -0.1241 -0.0835
31265W        W46396   8.243  17.598   3.525 -0.2288  0.0665  0.0667
31266W        W46397   7.952   0.305  13.846  0.0596  0.2443  0.0463
31267W        W46398   6.369   4.615  14.339  0.0590 -0.0537  0.1110
31268W        W46399   5.143  16.854  11.108  0.0287 -0.1840 -0.2561
31269W        W46400   3.859   3.795  10.199  0.2345  0.0045  0.2212
31270W        W46401   6.989   1.960  14.601  0.1400  0.0577 -0.2932
31271W        W46402   7.979   8.611  15.914  0.0639 -0.2939 -0.1516
31272W        W46403  13.530   8.546  12.770  0.0920  0.1180  0.0704
31273W        W46404   4.993   5.958  15.399  0.2702  0.2204  0.0820
31274W        W46405   3.109   6.123   0.243  0.0576 -0.0453 -0.0362
31275W        W46406   8.572   7.586  11.621 -0.3402  0.1235 -0.2305
31276W        W46407  14.872   8.329  13.993  0.2370  0.1762 -0.0470
31277W        W46408   6.837  16.875   1.248  0.2309  0.0000  0.2552
31278W        W46409  16.739  15.023   1.242  0.0615  0.1846  0.0889
31279W        W46410  13.417  10.718  10.319  0.2849  0.0531  0.3368
31280W        W46411   6.590  11.481  10.703 -0.0805 -0.3220  0.1464
31281W        W46412   2.917  12.915   1.162  0.1097 -0.1927  0.1116
31282W        W46413   8.127  14.189  13.326  0.4331  0.0623 -0.0785
31283W        W46414   0.351  15.287   3.801  0.1441  0.0929  0.0396
31284W        W46415  10.905  16.556  14.830 -0.4163  0.0355  0.2145
31285W        W46416  13.025   6.519   5.141  0.2388 -0.0689 -0.1969
31286W        W46417  17.189   6.183   6.263 -0.0351  0.1132  0.1003
31287W        W46418  17.265   0.525   3.148  0.0761 -0.2627 -0.0020
31288W        W46419  13.170   4.174   2.889  0.0569 -0.0513 -0.0068
31289W        W46420  13.578   4.789   1.669 -0.0115  0.0393  0.0022
31290W        W46421   1.805  11.518   1.817 -0.2023 -0.0175  0.0702
31291W        W46422   3.854  15.865   0.657 -0.1031 -0.3409  0.2458
31292W        W46423   7.741  13.789   4.258 -0.2735 -0.3391  0.0709
31293W        W46424   1.487  14.482   4.489 -0.0981 -0.3117  0.0946
31294W        W46425  12.507  13.862   5.211 -0.2975 -0.0079 -0.2596
31295W        W46426  16.315  11.340   5.254  0.0931  0.1167 -0.0342
31296W        W46427  14.467   3.568  14.377  0.2419  0.2205  0.3015
31297W        W46428  16.281   2.128  14.879  0.0024  0.0336  0.2611
31298W        W46429   2.133  14.684   0.543 -0.0230  0.0715 -0.0874
31299W        W46430  16.250  11.623   4.275 -0.0775  0.2621  0.3997
31300W        W46431  16.625   0.804  10.914  0.0232 -0.0755  0.2915
31301W        W46432   7.250  12.843   4.158 -0.2604  0.0348 -0.3551
31302W        W46433  18.053  16.667  15.702  0.0744 -0.1257 -0.1104
31303W        W46434  11.070   2.300  13.447 -0.0657  0.0375  0.0322
31304W        W46435   4.833   4.331  12.551 -0.1561 -0.2944  0.0667
31305W        W46436   1.256  15.758   5.840  0.2272 -0.0844  0.0424
31306W        W46437   5.495   5.185   3.973  0.0917 -0.3254  0.0689
31307W        W46438  16.332   8.224  12.995 -0.2127 -0.1562 -0.1688
31308W        W46439   9.461   8.462   4.811  0.0653 -0.1185 -0.2358
31309W        W46440   9.113   5.426   4.764 -0.1164 -0.0764 -0.0819
31310W        W46441   1.367  12.291   2.846 -0.2785  0.0053 -0.0316
31311W        W46442   6.765  15.442   1.484  0.1987  0.2168 -0.0401
31312W        W46443   8.676   1.942   0.001 -0.0126  0.1501 -0.0982
31313W        W46444   3.870  13.878   0.097  0.1363  0.1480 -0.1491
31314W        W46445  17.474   1.435   0.091  0.2407 -0.0779 -0.2154
31315W        W46446   1.821   4.889  12.630  0.2224 -0.0983 -0.1663
31316W        W46447   2.969   5.916   4.587  0.1224  0.0523 -0.0839
31317W        W46448   2.944   2.125   0.511  0.0045  0.0284  0.1160
31318W        W46449   2.227  16.132   5.768  0.2752 -0.0118 -0.0681
31319W        W46450   3.498   0.432  14.719  0.1823  0.1528  0.2772
31320W        W46451   6.624  12.836  12.676  0.0068  0.0301 -0.2639
31321W        W46452  17.197   3.958   4.128 -0.1254  0.2191 -0.1466
31322W        W46453   6.750   4.392   0.201 -0.0708 -0.1236  0.0528
31323W        W46454   1.287   9.505  14.302 -0.2573  0.2242  0.0556
31324W        W46455  10.167   5.779  10.534  0.1261  0.0086 -0.2246
31325W        W46456   0.047   9.793   0.092  0.0027  0.0720 -0.3490
31326W        W46457  10.240   7.460  14.151 -0.1766  0.2119 -0.0861
31327W        W46458   7.793  15.525   4.789  0.2727  0.2081  0.0744
31328W        W46459  14.936   2.216   1.643  0.0359  0.1536  0.0493
31329W        W46460   0.008   6.972  12.357 -0.4347  0.0271  0.0335
31330W        W46461  15.171   3.029  15.254  0.3335 -0.0609 -0.0077
31331W        W46462  14.977  13.968   2.829 -0.3442  0.0638  0.0754
31332W        W46463  11.456  16.520   3.879 -0.1461  0.0888 -0.4213
31333W        W46464  15.448   8.373  14.664 -0.0397  0.2491 -0.1068
31334W        W46465  11.659  11.352  11.537  0.2802  0.2784 -0.0390
31335W        W46466   2.183   4.836   2.679 -0.2015  0.3022 -0.4140
31336W        W46467  17.759  12.773   3.263 -0.0903 -0.0699  0.2728
31337W        W46468   2.191   8.987  13.178  0.0156 -0.0373  0.2201
31338W        W46469   0.701   3.593   4.401  0.1459  0.0230 -0.1935
31339W        W46470  18.095  15.245   1.802  0.2903 -0.0849 -0.1287
31340W        W46471   7.141  13.391   4.196  0.1319 -0.1693  0.2784
31341W        W46472   2.714  16.361  13.595  0.1298  0.0894 -0.1180
31342W        W46473   4.864  16.784  14.272  0.4292  0.2549  0.2156
31343W        W46474   4.685  10.736   3.673  0.1112  0.1257  0.0812
31344W        W46475   0.869  12.906  11.924 -0.1555  0.0422 -0.2500
31345W        W46476   7.373  11.475   4.069 -0.3178 -0.3712  0.0900
31346W        W46477  15.446   6.188  15.951  0.2917 -0.0669 -0.2367
31347W        W46478  17.471  15.906  10.662  0.0743  0.2096 -0.1270
31348W        W46479   5.302   1.267  11.381 -0.0140  0.1837  0.0487
31349W        W46480   2.135   5.424  14.308 -0.1108  0.1988  0.1109
31350W        W46481  12.201  12.411  13.636  0.2206  0.0620  0.0452
31351W        W46482   1.798   7.100   0.714  0.1658 -0.1797 -0.0869
31352W        W46483  12.312  15.007   3.141  0.3318 -0.0367  0.5329
31353W        W46484   2.329  12.516  15.678 -0.0932  0.0339  0.4013
31354W        W46485  11.261  16.055   5.668 -0.0741 -0.0771  0.3285
31355W        W46486   2.550   3.098  15.885 -0.0145  0.1289 -0.0153
31356W        W46487  17.996   3.894  15.842  0.0436  0.0362  0.2385
31357W        W46488  10.507  13.078  13.860  0.0811  0.1569  0.0056
31358W        W46489   2.771  12.550   3.022 -0.0120 -0.3199 -0.1589
31359W        W46490  15.333  10.428   1.594 -0.2253  0.3481  0.1757
31360W        W46491  12.091  14.168   0.913 -0.2589 -0.0368  0.1462
31361W        W46492  12.365   9.006   3.728 -0.2205 -0.0239  0.0754
31362W        W46493   6.206  10.444   3.912 -0.0221  0.0306 -0.3837
31363W        W46494   6.292   2.094  12.178 -0.2066  0.0143 -0.1995
31364W        W46495   4.271  11.199  13.252 -0.0033  0.0372 -0.1035
31365W        W46496  17.490   4.418  14.721  0.3632  0.0670 -0.0726
31366W        W46497  10.878   3.336  13.030 -0.0439 -0.2024 -0.2727
31367W        W46498  12.124  12.574   0.096 -0.1370 -0.2504  0.3028
31368W        W46499   4.674  10.856   1.024 -0.2260 -0.2335  0.1210
31369W        W46500   8.948   4.693  12.820 -0.2368 -0.1968 -0.2463
31370W        W46501   6.244  10.843   2.369  0.0861 -0.0139  0.4438
31371W        W46502   0.771  12.858  10.666  0.0569  0.2233  0.2601
31372W        W46503   4.446   6.795   5.156  0.1944  0.0850 -0.1631
31373W        W46504   1.465   6.447   2.375  0.0024  0.1259  0.1324
31374W        W46505   1.368   4.465  10.820  0.1189  0.0565 -0.0742
31375W        W46506   7.248  10.471   3.980 -0.0378 -0.0810 -0.2516
31376W        W46507   4.421  18.075   5.397 -0.1840 -0.1365  0.0966
31377W        W46508  16.324  11.264   3.895 -0.1261  0.0717 -0.0958
31378W        W46509  15.612  13.824   5.418 -0.0245  0.2154 -0.0486
31379W        W46510   0.550   5.042   2.881 -0.0782 -0.1968  0.1253
31380W        W46511  15.022  17.508   0.396 -0.1310 -0.3105  0.0177
31381W        W46512  11.025  17.214  15.481 -0.0141 -0.0855  0.2679
31382W        W46513  10.578  16.820  11.150 -0.1361 -0.1989  0.3588
31383W        W46514  17.927  13.154  12.525  0.1538 -0.2593 -0.1313
31384W        W46515   5.491  12.575   5.376  0.0689 -0.2017 -0.1127
31385W        W46516  13.668   3.066  14.052  0.0482  0.0379 -0.1077
31386W        W46517   1.390   0.619   5.310 -0.3320  0.1941 -0.0018
31387W        W46518  17.897   7.676  14.815 -0.2586  0.2924 -0.0557
31388W        W46519  12.624   9.655   3.301  0.0255  0.1527  0.0245
31389W        W46520  16.223   9.215  14.255  0.1579  0.2684  0.2201
31390W        W46521  14.406  12.956   4.944 -0.1737 -0.1822  0.0182
31391W        W46522   1.284  10.978   2.487  0.3146  0.4521  0.1441
31392W        W46523  13.119  10.630   5.264 -0.0225 -0.3262  0.0312
31393W        W46524   6.485  16.071   6.023 -0.1361  0.0268  0.0928
31394W        W46525  14.331   5.395   3.077  0.0148 -0.0681 -0.0330
31395W        W46526   9.521  15.160  11.342  0.2562  0.1430 -0.0866
31396W        W46527  14.227  10.549   2.622  0.0152 -0.0064  0.2206
31397W        W46528   3.883   8.552  15.052  0.2400  0.1891  0.4390
31398W        W46529   9.086   3.286   5.710  0.3125  0.3433 -0.1882
31399W        W46530  12.212  11.186  14.400  0.1960 -0.2711  0.2398
31400W        W46531   4.790  13.988  11.514  0.1316 -0.1175  0.2305
31401W        W46532   8.061  14.896  14.970 -0.0401  0.3454  0.0247
31402W        W46533   1.249   8.592  10.777 -0.1404  0.0699 -0.0139
31403W        W46534  12.103   7.784   4.376  0.0822 -0.0691  0.0512
31404W        W46535   2.425   7.413  10.506 -0.2511 -0.2548  0.0370
31405W        W46536  12.869  17.259   4.989 -0.1614  0.2607  0.2053
31406W        W46537  16.178   7.181   5.008 -0.0315  0.0766  0.1864
31407W        W46538   5.109   5.718  10.948 -0.0699 -0.1742 -0.1452
31408W        W46539  16.142  13.057  13.630  0.0284 -0.1949 -0.2153
31409W        W46540   9.138  11.245  15.654  0.2959  0.2814  0.0206
31410W        W46541  15.611  10.576   4.969 -0.1864  0.0632 -0.1077
31411W        W46542  15.661   3.831   3.889  0.1737  0.1701  0.2059
31412W        W46543   8.406   8.553   3.807 -0.2397  0.0055  0.1938
31413W        W46544   6.967  10.267  14.549 -0.1848 -0.0784  0.1141
31414W        W46545   2.548  12.997  13.229  0.1133 -0.3107 -0.2415
31415W        W46546  10.272  10.211   1.398 -0.2009  0.0509  0.0782
31416W        W46547   2.731  12.275   5.333  0.2785  0.0231  0.0309
31417W        W46548   0.212   2.434  13.888 -0.5007  0.0803 -0.1702
31418W        W46549  14.895   1.613   2.742  0.0025  0.0162 -0.2456
31419W        W46550   6.560   2.244  10.714 -0.1537  0.2046  0.1724
31420W        W46551   0.443   1.397  14.982  0.3537  0.0344 -0.1767
31421W        W46552  15.009  10.748  14.871  0.1304  0.4109 -0.1573
31422W        W46553   2.300  16.427  11.592  0.2983  0.0386  0.0630
31423W        W46554   0.352   9.813   5.721 -0.0576  0.2126 -0.2920
31424W        W46555   8.070  16.734  12.272 -0.3537  0.0988 -0.2884
31425W        W46556   3.700  13.626   3.331  0.0853  0.0324 -0.3024
31426W        W46557   4.045   2.283   4.386 -0.0677  0.5096 -0.3774
31427W        W46558   0.242  12.486  12.242 -0.2947 -0.0120  0.1668
31428W        W46559  15.700   1.319  12.345  0.1198 -0.2837 -0.0013
31429W        W46560  10.939   6.737   9.989  0.2677  0.3131 -0.1983
31430W        W46561   5.702   2.491   0.665  0.0235  0.2753  0.0220
31431W        W46562  10.547   2.068   3.699  0.2119 -0.0521  0.0567
31432W        W46563   4.817  15.466   4.969 -0.0185  0.2472  0.0160
31433W        W46564   5.437   4.908   1.853  0.1458  0.3563 -0.1355
31434W        W46565   0.844  15.770   3.001 -0.1836 -0.0903 -0.1316
31435W        W46566  12.978   3.875  13.787 -0.2523 -0.5205  0.2954
31436W        W46567  16.107  17.428   2.864 -0.0133 -0.1992  0.2610
31437W        W46568   6.289  13.966   5.505  0.3026  0.2628 -0.4802
31438W        W46569   6.800  17.803  15.602  0.1447 -0.0729  0.2217
31439W        W46570  13.961  13.114   5.635 -0.1893 -0.1452  0.2760
31440W        W46571   4.149   1.920   0.115  0.2721 -0.1834  0.0593
31441W        W46572   7.914   0.627  10.606 -0.4088 -0.3311 -0.2971
31442W        W46573   7.424   0.620   3.350  0.0812  0.1238 -0.1097
31443W        W46574  18.316   6.319   2.029 -0.0603 -0.1520  0.1035
31444W        W46575   0.746   0.037   3.377 -0.1200 -0.2597 -0.3642
31445W        W46576   4.816  17.054  11.485 -0.2141  0.0706  0.1564
31446W        W46577   2.685   7.623  13.495 -0.0465  0.0438  0.0135
31447W        W46578   3.631   2.581   2.772 -0.0882  0.0488  0.0177
31448W        W46579  12.833  16.845  12.990 -0.0535  0.1285 -0.0926
31449W        W46580  12.585  16.976   4.407 -0.1598  0.0901 -0.0013
31450W        W46581  17.038   6.750  10.984  0.1079  0.0633  0.0107
31451W        W46582  15.048   9.125   5.004  0.1025 -0.0398  0.3372
31452W        W46583   0.593   4.850   1.677 -0.1598 -0.0028  0.0174
31453W        W46584  14.318  18.173   2.483 -0.1250 -0.1629 -0.0017
31454W        W46585   3.592   1.656  14.241 -0.1483  0.4259 -0.1758
31455W        W46586   3.735   8.465  15.620 -0.1772 -0.1102  0.1179
31456W        W46587   8.974   5.044   5.817 -0.0921  0.2626  0.0653
31457W        W46588  11.931  12.055  13.402  0.2112 -0.0137 -0.2030
31458W        W46589  15.065   9.411  14.617 -0.1336  0.2614 -0.0070
31459W        W46590   2.405  11.614  13.260 -0.0708 -0.2172  0.4235
31460W        W46591   8.932  13.846  13.498  0.2039 -0.0504  0.2077
31461W        W46592   9.073   2.713   0.802  0.1711 -0.3778  0.0053
31462W        W46593   2.358   8.296   1.950  0.1452 -0.0510 -0.0548
31463W        W46594  16.529   5.651   3.688 -0.0223  0.0670  0.0618
31464W        W46595   4.687   6.324   1.538 -0.0388 -0.0092 -0.4374
31465W        W46596  12.098   3.634   3.857  0.2622 -0.0857 -0.0888
31466W        W46597  17.888  17.397  14.282 -0.1001 -0.0368  0.0426
31467W        W46598  16.126   4.530   2.184  0.0971 -0.1268 -0.0378
31468W        W46599   9.416  18.039   2.864  0.3231 -0.0073 -0.2505
31469W        W46600   9.578   2.581   0.041 -0.0327  0.1018  0.1334
31470W        W46601  11.735  17.837   3.783  0.0914 -0.0837 -0.1392
31471W        W46602  14.140  16.782   5.042 -0.0759  0.0919 -0.0678
31472W        W46603  17.916  10.737   1.808  0.0384  0.1227  0.1078
31473W        W46604   5.508  12.180  12.543 -0.4096 -0.0128 -0.1978
31474W        W46605   9.842   2.225   1.269 -0.0183 -0.0123 -0.2927
31475W        W46606   9.259   0.701   1.290 -0.1407 -0.1825  0.2643
31476W        W46607  16.925  12.954   1.958  0.0044 -0.1611  0.0937
31477W        W46608  13.873  15.139   4.398 -0.1374 -0.2684 -0.2666
31478W        W46609  15.778   5.985   4.439 -0.1255  0.1339 -0.1440
31479W        W46610  14.970   5.486   2.969  0.3292  0.1494  0.0218
31480W        W46611  15.722  12.722  14.843  0.0265 -0.1472  0.1623
31481W        W46612  13.874   5.394   0.750  0.1669  0.2348  0.1526
31482W        W46613   8.048   3.565   1.891  0.1415  0.1993 -0.2615
31483W        W46614   7.935   1.623   1.810  0.3739  0.2171 -0.2028
31484W        W46615   5.138   8.142  15.144 -0.0832 -0.2552 -0.2767
31485W        W46616   7.642  11.222  15.555  0.1874  0.0833  0.0895
31486W        W46617  11.107  18.097   3.148  0.0893 -0.2781  0.1705
31487W        W46618  11.490  13.936  15.714 -0.1143  0.1504 -0.5147
31488W        W46619   2.463  12.543   4.909 -0.0074 -0.1544 -0.0306
31489W        W46620   4.178  10.134   1.407 -0.3751 -0.1758  0.0927
31490W        W46621   0.460   5.866  15.852 -0.1748 -0.0503  0.0387
31491W        W46622   8.024   9.345  16.030  0.1434  0.2293 -0.2405
31492W        W46623  16.710  17.434   0.824 -0.3008 -0.2122  0.0663
31493W        W46624  10.890  10.702   2.035 -0.1965 -0.0313 -0.2219
31494W        W46625   5.684  10.314  11.439 -0.0207 -0.1297 -0.0966
31495W        W46626   6.017   9.278  10.464 -0.2651  0.0085  0.2593
31496W        W46627   9.927  14.205   3.461  0.0547  0.0723  0.1069
31497W        W46628   7.617   5.157  15.267  0.1213 -0.2455  0.0565
31498W        W46629  14.635   8.798   4.236  0.1174 -0.2077  0.0885
31499W        W46630   8.662   8.084  15.639 -0.1362  0.0687 -0.1513
31500W        W46631   2.255  16.240  13.912  0.2934 -0.1926 -0.0260
31501W        W46632  14.298   3.404   3.940 -0.2735  0.1907  0.1006
31502W        W46633   8.924  13.282   2.714 -0.1596 -0.1162 -0.0777
31503W        W46634  14.291   1.512   1.889 -0.0286 -0.2054  0.2154
31504W        W46635   7.890  16.664   5.198 -0.0773  0.0248 -0.1874
31505W        W46636   2.961  10.532  12.065 -0.1436  0.1173  0.0310
31506W        W46637   2.982  16.235   2.185 -0.2406 -0.0133  0.1998
31507W        W46638  11.457   4.406  15.074  0.1110 -0.2402 -0.2510
31508W        W46639  16.860   1.613   2.542 -0.2205 -0.1962  0.1233
31509W        W46640  12.693   5.619   4.768 -0.1883 -0.0465  0.0132
31510W        W46641   7.777   9.471  11.095  0.0261  0.0589 -0.0719
31511W        W46642  11.330  14.197   0.143  0.1179  0.1680  0.0919
31512W        W46643   5.715   4.302   3.563  0.0015 -0.1143 -0.1338
31513W        W46644   6.751  14.685  10.371 -0.0161  0.3842  0.0759
31514W        W46645  18.176   6.028  12.182 -0.3987  0.1038 -0.0821
31515W        W46646  14.418  13.756  14.509  0.0564  0.2185 -0.1544
31516W        W46647   5.368   0.214  16.059  0.0247 -0.3895 -0.0883
31517W        W46648   9.658  14.845   3.212 -0.0421  0.1892  0.0908
31518W        W46649  18.269   9.093   5.566 -0.1040 -0.3437  0.1498
31519W        W46650  14.960  15.503   3.310 -0.2940  0.2459 -0.3375
31520W        W46651  13.956   3.599  13.247  0.1254  0.2663  0.3889
31521W        W46652   8.502  11.622  14.618  0.1607 -0.1702 -0.0150
31522W        W46653  13.407  16.206  11.483  0.0466  0.0825 -0.1270
31523W        W46654  17.521   9.448  16.024  0.1127  0.0652  0.0813
31524W        W46655   7.007   1.214   3.935 -0.1510 -0.0669  0.0682
31525W        W46656   1.737   5.433  14.697 -0.0103  0.1078 -0.4180
31526W        W46657   1.066   8.949  12.961  0.1759 -0.0575  0.0360
31527W        W46658   4.542   4.062   4.764 -0.3811 -0.0183  0.0883
31528W        W46659  14.952   3.187  10.622  0.0928  0.0169  0.1297
31529W        W46660   5.683   3.590  14.566  0.0004  0.0249 -0.2516
31530W        W46661   4.890  17.862   3.277  0.0695  0.1526  0.1733
31531W        W46662  16.109   3.742   3.497  0.1744 -0.0378 -0.0492
31532W        W46663  13.240  17.473   0.951  0.3037 -0.0222  0.0261
31533W        W46664  10.731  16.275   1.263  0.3083 -0.1279  0.1044
31534W        W46665  15.048   4.956   2.008 -0.0210 -0.0759 -0.1475
31535W        W46666  14.757  14.420  11.638 -0.0167  0.0990 -0.0317
31536W        W46667  12.529   5.840   0.964  0.1623 -0.5116 -0.3143
31537W        W46668  16.790   4.934  14.746 -0.2282 -0.1106 -0.2424
31538W        W46669  13.143  17.480  15.660 -0.4811  0.0457  0.0385
31539W        W46670   1.502   0.656  15.622  0.0323  0.0595 -0.3803
31540W        W46671   8.123  18.281  13.076  0.4403 -0.1613  0.0685
31541W        W46672  16.182   2.537  14.077  0.1595  0.0607  0.0193
31542W        W46673  11.050   4.613   0.486  0.2198 -0.0323  0.3811
31543W        W46674   3.221   3.041   0.978  0.2035 -0.0471  0.1982
31544W        W46675   8.920  13.864   5.579  0.1408 -0.1762  0.2494
31545W        W46676  15.817   5.053   4.487  0.1924  0.3208  0.1649
31546W        W46677   1.367  17.950   2.759  0.1984  0.1075  0.2118
31547W        W46678   5.596   9.648  15.628  0.1044  0.0778  0.0840
31548W        W46679  15.681  15.241  15.444 -0.1983  0.1595 -0.1761
31549W        W46680  12.005   8.680  10.877  0.0409 -0.2641  0.2387
31550W        W46681  11.704   2.275  14.044  0.0613 -0.4008  0.0969
31551W        W46682   2.302   8.903   1.802 -0.0982  0.0172 -0.1210
31552W        W46683   2.247   4.784  11.401 -0.3373 -0.1513 -0.1788
31553W        W46684  11.787   5.155   2.045 -0.3111  0.1068  0.0511
31554W        W46685   7.976  13.350   5.220 -0.1596  0.2585  0.0754
31555W        W46686   2.814   1.791  14.763 -0.2537  0.2642  0.1363
31556W        W46687   6.402  16.380   2.217 -0.1090 -0.1562  0.0397
31557W        W46688  11.727  18.120  13.041 -0.3044  0.4006 -0.2101
31558W        W46689  14.807   0.196   2.708 -0.1596 -0.0065  0.2309
31559W        W46690   2.298  10.367   4.338  0.0775  0.3841 -0.1134
31560W        W46691   7.824   0.385  15.243 -0.0233 -0.2055  0.0649
31561W        W46692  12.693   2.283   3.676  0.1015 -0.0591  0.1640
31562W        W46693  16.907   7.276   5.501 -0.1026 -0.2767 -0.3842
31563W        W46694  10.028  16.531  11.861  0.1418  0.0057  0.1110
31564W        W46695   5.374   8.578   3.590 -0.0387  0.4398 -0.0007
31565W        W46696   4.967   6.868  11.700  0.1552  0.0216 -0.1785
31566W        W46697  17.161   4.330  11.043  0.1271 -0.1916 -0.2756
31567W        W46698   0.587   1.855   0.966  0.0970  0.0807 -0.0396
31568W        W46699   6.845  11.187  12.292 -0.0212 -0.0197 -0.1217
31569W        W46700  13.596   6.467   1.537 -0.1328 -0.2249  0.1682
31570W        W46701  14.772   7.465  14.776 -0.0181  0.1981  0.0408
31571W        W46702  10.542  11.974  13.209  0.1435  0.1624 -0.1485
31572W        W46703   3.795   8.516  12.451 -0.1138 -0.1600 -0.1045
31573W        W46704   3.509  17.108   5.835 -0.1850 -0.0418  0.0261
31574W        W46705   9.634  11.806  13.339 -0.2571 -0.1500  0.1191
31575W        W46706  15.281   0.784   0.195  0.0004 -0.0345  0.0841
31576W        W46707  16.397  11.821  12.580 -0.1114  0.0613  0.0069
31577W        W46708  10.317  12.852  12.701 -0.3571 -0.1100  0.2336
31578W        W46709  14.039  14.506  14.346 -0.0307  0.0344 -0.1062
31579W        W46710   9.120  14.809   4.341 -0.2248 -0.1735  0.3011
31580W        W46711  17.221   0.336   3.670  0.2508 -0.0677 -0.1050
31581W        W46712  14.889   3.224  11.442 -0.3786  0.1084  0.0373
31582W        W46713   4.329   6.940  12.295  0.1674 -0.2071  0.1960
31583W        W46714   9.990  14.289  11.489 -0.0967 -0.0439  0.2668
31584W        W46715   8.885  15.365  15.259 -0.1359  0.2295  0.3134
31585W        W46716   6.646  13.995   4.098  0.0905  0.0197  0.0309
31586W        W46717  10.632  12.027  14.462 -0.5881  0.0559  0.2195
31587W        W46718   4.255   6.137   0.976 -0.0019  0.2006 -0.0502
31588W        W46719   0.877  16.043  14.125  0.3189  0.0610 -0.2313
31589W        W46720   6.319   9.509  11.750 -0.0615 -0.1022 -0.0267
31590W        W46721  16.469   2.984   1.621  0.0391 -0.1383  0.0584
31591W        W46722  17.260   6.388   4.931 -0.1606  0.2644 -0.0154
31592W        W46723   3.106   4.423   1.609 -0.0442  0.0388  0.0779
31593W        W46724   9.605  17.112  15.803 -0.5051  0.0739 -0.1622
31594W        W46725   1.758   1.395  14.158 -0.0878 -0.0544 -0.1897
31595W        W46726   3.722   4.294  14.177  0.0697 -0.0551  0.1468
31596W        W46727   1.841  12.563  14.166  0.0675  0.0507  0.3386
31597W        W46728  15.688   2.607   3.382  0.1192 -0.1522 -0.0085
31598W        W46729  14.136  12.031  10.574  0.0660  0.0853  0.1712
31599W        W46730   9.952  10.245  13.367 -0.1527  0.0906  0.1571
31600W        W46731   5.097  12.826  11.849  0.2201  0.1238 -0.0513
31601W        W46732  13.067  15.345   4.479 -0.1010 -0.0744  0.2044
31602W        W46733   6.132  17.983   5.912  0.0633  0.0948  0.0046
31603W        W46734   1.396  17.676   3.297 -0.1005 -0.1365 -0.0331
31604W        W46735   7.411  13.716  15.085  0.0493  0.2653 -0.1315
31605W        W46736  14.097   8.876   5.250  0.1583  0.4950  0.0261
31606W        W46737  13.496   2.752  14.589 -0.0126  0.2030  0.1553
31607W        W46738   4.559   5.720   2.405 -0.3054 -0.0659  0.3619
31608W        W46739   7.726  16.987   4.012 -0.0384 -0.1004  0.0726
31609W        W46740   5.044  10.572   1.320 -0.4051 -0.1678  0.1559
31610W        W46741   9.625  11.708  12.411 -0.0951 -0.0056 -0.1669
31611W        W46742   3.304   9.786  15.288  0.1564  0.0336  0.0594
31612W        W46743  15.477  10.908   0.775  0.0019 -0.3208 -0.0647
31613W        W46744   5.924  10.683   1.371 -0.2326 -0.0641  0.0320
31614W        W46745   3.292  14.189  13.796  0.2197  0.1007  0.1560
31615W        W46746   4.432   8.567  11.973  0.0340 -0.0847 -0.0730
31616W        W46747   7.613  11.548  14.148 -0.2868  0.1714 -0.1734
31617W        W46748  14.995  11.896  13.554 -0.4410  0.2000 -0.3373
31618W        W46749  13.919   9.926  10.363 -0.0958  0.1730  0.0568
31619W        W46750   5.883   0.371   0.186 -0.1343  0.2150 -0.3464
31620W        W46751   1.608   3.594   5.116 -0.1656 -0.0082  0.2439
31621W        W46752   9.816  16.663   1.147 -0.1509 -0.1048 -0.0583
31622W        W46753   9.469  10.509   0.653  0.0131  0.0168  0.3964
31623W        W46754  12.176   7.228  15.775  0.0535  0.1263 -0.0312
31624W        W46755  10.736  14.183  15.427  0.1809 -0.2699  0.0453
31625W        W46756   6.021  16.356   3.327 -0.2849  0.3170 -0.0431
31626W        W46757  15.730   1.023   0.240  0.2959  0.3925  0.2440
31627W        W46758  15.660   6.000   3.653  0.0639  0.1117  0.0383
31628W        W46759  11.375   7.103  11.757 -0.1775  0.0687 -0.0177
31629W        W46760  15.674   5.583  14.910  0.4628  0.0315  0.0357
31630W        W46761  11.327  14.121   3.906 -0.0273 -0.1356 -0.3402
31631W        W46762   5.529  12.164  15.086  0.0491 -0.0426 -0.0021
31632W        W46763   4.509   1.877   4.589 -0.0189 -0.1476  0.2177
31633W        W46764  16.687  15.480   1.605  0.1191  0.3373 -0.3065
31634W        W46765  10.395  12.073   2.347 -0.0301 -0.1342  0.0205
31635W        W46766  13.655  15.131  14.007 -0.1188 -0.0016 -0.0364
31636W        W46767   1.092  13.817  12.551  0.2347 -0.0846  0.1637
31637W        W46768  13.666   5.819  14.254  0.1473  0.2768  0.0086
31638W        W46769  17.223   0.671  11.963 -0.0229  0.1655  0.0355
31639W        W46770   5.505   1.168  13.820 -0.0001 -0.0630 -0.0568
31640W        W46771   3.781   1.874  15.487 -0.3375  0.0725 -0.0629
31641W        W46772   1.396   4.072   1.775  0.2203  0.0484 -0.1020
31642W        W46773  10.692  17.805   3.058 -0.1298  0.0581 -0.3973
31643W        W46774  16.950   8.201   4.235  0.1320  0.0264  0.0612
31644W        W46775  16.655  16.112   2.895  0.1475 -0.0585 -0.2700
31645W        W46776   9.274  14.985  15.307 -0.1843 -0.1825 -0.0423
31646W        W46777  18.316  15.940  10.397 -0.0410  0.0595  0.0576
31647W        W46778   0.407  12.265   5.813 -0.0489 -0.2193 -0.2617
31648W        W46779   5.006  15.944   4.707  0.0446  0.1262 -0.0490
31649W        W46780   9.321   7.098   3.338 -0.1985  0.2310  0.3516
31650W        W46781  11.164   5.148  15.670 -0.1473 -0.0102 -0.3039
31651W        W46782  16.608  11.314   0.413  0.2442  0.3282 -0.0313
31652W        W46783   1.682   5.641  12.539 -0.1969  0.2207  0.3122
31653W        W46784  16.510   1.003  13.686 -0.0734 -0.3006  0.0469
31654W        W46785   4.447   9.828   2.143  0.1536  0.1746 -0.2763
31655W        W46786  18.216   0.385  12.128 -0.0475  0.0044  0.1926
31656W        W46787   3.226   5.227   1.136 -0.3479  0.0778 -0.3634
31657W        W46788   3.268   2.967   2.084 -0.1586  0.0554  0.1261
31658W        W46789   3.938  13.603   1.442 -0.2525  0.2316 -0.0930
31659W        W46790  15.830   7.253   1.985 -0.0890 -0.0406 -0.0248
31660W        W46791   0.278  18.003  15.597 -0.2994  0.2062 -0.1731
31661W        W46792   7.336  12.109   0.111 -0.0375 -0.1893  0.0007
31662W        W46793  12.156   8.825  14.710 -0.1349 -0.2387 -0.4305
31663W        W46794  11.536   6.401   3.476  0.2344  0.0766 -0.2557
31664W        W46795   0.127   4.062   3.611  0.0749  0.1238 -0.0586
31665W        W46796   9.200   3.729  14.395  0.1828  0.1234 -0.1805
31666W        W46797  16.181  15.906  12.006 -0.0232 -0.0856 -0.2509
31667W        W46798  10.342   8.165  13.341 -0.1726  0.0078 -0.1993
31668W        W46799  11.929  13.204  14.650 -0.0141 -0.1975  0.3352
31669W        W46800   3.476   8.114  13.442  0.0258 -0.2068 -0.4898
31670W        W46801   3.323   4.513   2.109 -0.1188  0.0832  0.0937
31671W        W46802   3.668   5.103  11.210  0.1632 -0.1608  0.4057
31672W        W46803   8.984   9.050   5.787 -0.3516  0.1157 -0.3203
31673W        W46804   9.831  17.372  12.553 -0.3549 -0.0216 -0.0842
31674W        W46805  15.318   9.976   0.392 -0.0406 -0.0765 -0.2283
31675W        W46806   9.837   5.945   2.956 -0.2763  0.2173 -0.0398
31676W        W46807  14.177   5.803  11.061  0.0925 -0.0190  0.0765
31677W        W46808  12.186  17.562  11.063  0.1502 -0.0168 -0.1174
31678W        W46809   0.117  14.377   4.090  0.1424  0.1404  0.1794
31679W        W46810   6.964   8.530   3.798  0.1984  0.0927  0.2525
31680W        W46811  15.454   4.711   3.434  0.1562 -0.0589  0.2391
31681W        W46812  13.440   7.253  13.752 -0.1502  0.0768 -0.1220
31682W        W46813  18.186   5.767  15.288 -0.1071 -0.1503  0.2284
31683W        W46814   7.524   8.752   2.450  0.0790  0.1166 -0.0638
31684W        W46815   1.008   0.202  13.028  0.0691  0.1359  0.3609
31685W        W46816   6.257   5.752   2.702 -0.1049  0.2375  0.0099
31686W        W46817  14.026  17.384   9.835  0.0998  0.0130 -0.1926
31687W        W46818   1.739   0.552  14.150 -0.1299  0.0194  0.2296
31688W        W46819  18.131  13.200   1.542 -0.0734  0.1938  0.2977
31689W        W46820  11.825  14.221  10.841 -0.0285  0.1664  0.4803
31690W        W46821   5.786  10.372   2.901 -0.3409 -0.2899  0.0466
31691W        W46822  13.939  15.179   1.480 -0.0254 -0.2556  0.1623
31692W        W46823   6.885  15.628   5.312 -0.0051 -0.1698 -0.0677
31693W        W46824  13.940  14.103   0.060  0.0712 -0.0891  0.0947
31694W        W46825  10.759   3.555   0.003 -0.0128 -0.1484 -0.3037
31695W        W46826  16.455  10.360   4.607  0.0232  0.1690  0.2944
31696W        W46827  11.709  10.105   1.117 -0.0574  0.2229 -0.2835
31697W        W46828   1.034   2.800   1.734  0.0677  0.0040 -0.0134
31698W        W46829  10.359  10.488   4.550  0.1651  0.1150  0.1234
31699W        W46830  17.435   9.616   5.349  0.0889  0.1092 -0.2564
31700W        W46831   5.943  13.287  11.370 -0.2835 -0.0520  0.1807
31701W        W46832   2.070   6.897   2.419 -0.1772 -0.2370  0.0075
31702W        W46833   0.937   8.330  15.295 -0.3499 -0.1025 -0.1921
31703W        W46834  10.938   3.694  14.992  0.1583 -0.1456  0.0562
31704W        W46835   3.168   9.699  15.765  0.1155 -0.1749 -0.0378
31705W        W46836  14.656   6.450   4.875  0.3442 -0.4221 -0.2811
31706W        W46837  18.154   7.253   5.875 -0.1789 -0.3417  0.0248
31707W        W46838  15.000   5.525   3.463 -0.1866 -0.3525  0.5145
31708W        W46839   4.889  18.007  10.933  0.0937 -0.2204 -0.0376
31709W        W46840   1.325   9.975   4.438  0.0334  0.1706 -0.0776
31710W        W46841  13.854  13.309  12.675 -0.1823 -0.1125 -0.2039
31711W        W46842   8.091   3.703  13.206  0.1541 -0.1522  0.2214
31712W        W46843   3.565  16.051   4.471  0.0536 -0.0618  0.1518
31713W        W46844  11.407   6.278   2.245 -0.0016 -0.1581 -0.0069
31714W        W46845  13.272  12.293   3.171 -0.3566 -0.0555  0.0079
31715W        W46846  13.342  15.190  14.791 -0.1713  0.0202  0.1522
31716W        W46847  16.516   4.012   0.170 -0.0836 -0.1524  0.3421
31717W        W46848  10.749   2.042  16.066 -0.0844  0.3590  0.0579
31718W        W46849  11.901   8.949  11.959 -0.1271 -0.3169  0.0430
31719W        W46850   3.280   9.643  12.360  0.0783  0.5835  0.0520
31720W        W46851   2.610  15.729  15.326 -0.3211  0.0527  0.3140
31721W        W46852   6.927   7.160  13.795 -0.3195 -0.0301 -0.1326
31722W        W46853   9.873   8.550   0.142  0.1160  0.0075  0.0365
31723W        W46854  14.937   8.915   0.196 -0.1156  0.1902 -0.2300
31724W        W46855   5.734  18.123  12.768  0.1413 -0.1974 -0.0134
31725W        W46856   2.348   0.833   5.657 -0.1268  0.0289  0.0845
31726W        W46857  14.863   4.670  13.212  0.1145  0.3182  0.1524
31727W        W46858   2.764  15.468  14.752 -0.0712  0.1675  0.0290
31728W        W46859  14.330  16.600   2.576 -0.1737  0.2311 -0.0440
31729W        W46860   3.858   5.506  10.978  0.1322 -0.2357 -0.3458
31730W        W46861   2.047   5.647   3.849 -0.0648 -0.0247 -0.0216
31731W        W46862  12.689   4.249  13.542 -0.1088 -0.0296 -0.0564
31732W        W46863  10.620   0.527  13.722  0.0860  0.0705  0.1914
31733W        W46864   2.505  18.133   5.631 -0.3500  0.1352  0.0195
31734W        W46865  13.888  15.898   2.985 -0.0016 -0.0244 -0.0336
31735W        W46866  14.246  11.337  15.499 -0.2017 -0.1350  0.1303
31736W        W46867   6.004  12.987  13.822 -0.0303  0.1983 -0.1390
31737W        W46868  15.626  14.537  10.055 -0.3389  0.2209 -0.1604
31738W        W46869   0.476   9.339  15.488  0.2100 -0.0769  0.2055
31739W        W46870   5.876   5.421  11.525 -0.2707  0.1298 -0.0147
31740W        W46871  17.366   4.465  11.515  0.0690 -0.2242 -0.0904
31741W        W46872  10.961   0.236  11.641  0.2695 -0.0302 -0.1960
31742W        W46873   1.965   5.505  15.688 -0.2116 -0.1998  0.0454
31743W        W46874  18.290   3.117   5.827  0.2362 -0.1061 -0.0259
31744W        W46875   3.287  15.524  14.869  0.1636 -0.0577 -0.1597
31745W        W46876  12.396   6.173  15.426 -0.2457 -0.2420 -0.2225
31746W        W46877  15.263  18.322   0.552  0.1282 -0.2352 -0.1311
31747W        W46878  12.587   1.876   4.784  0.0556 -0.1747 -0.0281
31748W        W46879   0.192   2.735  12.143 -0.2498 -0.0653 -0.2685
31749W        W46880   6.035   8.410  11.568  0.1582  0.2686  0.0261
31750W        W46881   5.435   3.722  15.880 -0.1586  0.1586  0.0461
31751W        W46882   3.792   0.109   2.241  0.1156  0.4547  0.3531
31752W        W46883  16.129   2.272  12.174  0.0285 -0.0449  0.1145
31753W        W46884  16.174  12.248  12.450 -0.1074 -0.0874 -0.0368
31754W        W46885   7.145   3.769  16.034 -0.0230  0.1238 -0.1184
31755W        W46886  10.213  16.497   3.115  0.0531  0.0371  0.0326
31756W        W46887  10.689   7.643   4.659 -0.0228 -0.0185  0.1379
31757W        W46888  16.869   5.123   3.968  0.1781 -0.1098  0.1829
31758W        W46889   6.065   5.053  14.579 -0.0668  0.0360  0.3407
31759W        W46890   8.644   7.179   1.075 -0.0457  0.2766  0.2199
31760W        W46891   2.889   0.940  13.915 -0.2071 -0.2116  0.1144
31761W        W46892  14.955   3.695  13.220  0.1002 -0.1188 -0.0114
31762W        W46893   8.409   9.803   3.691 -0.0574  0.2729 -0.1066
31763W        W46894   0.376  16.414  11.978 -0.1712  0.0197 -0.0609
31764W        W46895   4.579   9.310   2.010 -0.3835 -0.4240  0.1099
31765W        W46896   2.995   3.747   2.381 -0.0357 -0.0781 -0.2084
31766W        W46897  10.685   8.641   0.307 -0.0946  0.1427  0.0884
31767W        W46898   9.205  10.355  14.520  0.2165  0.2213  0.0021
31768W        W46899   1.888  17.204  11.715 -0.0864  0.2484  0.0277
31769W        W46900  16.606  12.353   4.433 -0.0062 -0.3738 -0.0552
31770W        W46901  17.451   5.211  12.598 -0.1344  0.1516  0.2509
31771W        W46902   6.281   8.487   0.588  0.1361 -0.1411  0.0949
31772W        W46903  17.294   5.590   2.893 -0.2005  0.0489  0.2438
31773W        W46904  18.248   4.588  15.235 -0.0767 -0.2931  0.1294
31774W        W46905   4.271   8.396   1.570 -0.1438  0.4015  0.2239
31775W        W46906  13.198   9.810  14.062 -0.2839  0.1229  0.1010
31776W        W46907   0.183   4.601  13.579  0.1949 -0.1437  0.2678
31777W        W46908   2.390  17.398   0.744 -0.1539  0.4611 -0.1068
31778W        W46909  16.712   9.819   4.732 -0.2788 -0.1926  0.0873
31779W        W46910  17.898   8.324   4.578  0.0522  0.2223 -0.2723
31780W        W46911   1.514  10.527   1.709  0.0768 -0.0597  0.0222
31781W        W46912   0.174   9.629  12.768 -0.3693  0.1969 -0.1661
31782W        W46913   5.398  13.452  15.671  0.3752 -0.1589  0.2798
31783W        W46914  17.777   1.880  11.758  0.1831  0.1014 -0.0080
31784W        W46915  11.247   5.546   3.980  0.0050  0.1880  0.3474
31785W        W46916  17.126   0.015   3.106  0.1712  0.3221 -0.2264
31786W        W46917   5.460  11.324   4.600 -0.1072  0.2828 -0.1531
31787W        W46918  16.027  16.999  14.511 -0.1083  0.1744 -0.0409
31788W        W46919  10.638   7.464   3.288 -0.0566 -0.1783  0.0357
31789W        W46920  10.427   5.336   3.701 -0.2544 -0.0843 -0.0992
31790W        W46921   3.090   9.537  14.787 -0.0810  0.1836  0.0042
31791W        W46922   1.483  15.563  13.523 -0.1821  0.0022 -0.0820
31792W        W46923   2.158   0.756   1.978 -0.1051  0.0320  0.2732
31793W        W46924   4.684  15.726   4.330 -0.1240  0.0422 -0.4121
31794W        W46925   9.630   8.034   4.487  0.2531  0.1484 -0.0803
31795W        W46926  17.480  14.121  15.876  0.3601 -0.0145  0.0425
31796W        W46927  11.579   8.290   0.563  0.0942 -0.4185 -0.1619
31797W        W46928   3.782  14.428  15.251  0.0180 -0.0111  0.0418
31798W        W46929   2.692   2.800  11.731 -0.0646 -0.1152 -0.0304
31799W        W46930  10.832   8.939  12.724  0.0048 -0.0844 -0.0405
31800W        W46931   8.271   3.431  13.885  0.1949  0.1084 -0.2010
31801W        W46932   3.793   1.366   3.603 -0.0622 -0.1426  0.1320
31802W        W46933   8.002   9.741  12.100 -0.0159  0.1293 -0.1338
31803W        W46934   4.149  17.535  15.251  0.2372  0.1884 -0.1420
31804W        W46935  14.191   0.160  14.533  0.0824 -0.3525  0.0464
31805W        W46936   7.633  14.146   3.079 -0.1765 -0.0252 -0.1418
31806W        W46937   2.883   0.474  11.602 -0.0301  0.1439  0.2543
31807W        W46938   7.294   2.373   1.447 -0.5677 -0.1333 -0.2428
31808W        W46939   8.435   9.223   5.356  0.0501  0.0464 -0.0188
31809W        W46940  12.788  12.753   3.907 -0.1739  0.4835 -0.2486
31810W        W46941   3.038   3.513  14.224  0.0072 -0.1794  0.1576
31811W        W46942   2.092   6.734   2.985  0.2413 -0.3111  0.2805
31812W        W46943   5.381   1.230   5.177  0.1003 -0.0106 -0.0391
31813W        W46944  13.081  17.612  11.901 -0.0651 -0.1451  0.2097
31814W        W46945  13.853  15.808  12.168 -0.1309 -0.1626  0.0472
31815W        W46946  11.689   2.833  13.554  0.0480  0.1874 -0.2091
31816W        W46947  16.735  11.362  13.536 -0.1482 -0.0632  0.0760
31817W        W46948  13.387  11.000  11.720  0.0041 -0.1197 -0.0656
31818W        W46949   3.501   4.590  11.157  0.3266  0.2454 -0.1366
31819W        W46950  13.102  16.658  14.794 -0.0411  0.1777 -0.1283
31820W        W46951  16.349  12.830   3.214 -0.1553  0.0515  0.1005
31821W        W46952   2.528   6.766   4.989  0.2826  0.3450 -0.3735
31822W        W46953  12.843   6.560  12.867  0.1383  0.1821  0.0129
31823W        W46954  17.742   8.760   3.725  0.2718  0.0003 -0.4185
31824W        W46955   2.289   8.968   4.679 -0.1421  0.1511 -0.0820
31825W        W46956  11.279  13.377  13.570  0.4314 -0.0027 -0.2808
31826W        W46957  16.654   4.828   2.369 -0.0321  0.2595  0.1152
31827W        W46958   9.658  18.317   0.464 -0.2637  0.2819 -0.1278
31828W        W46959   0.870  14.554  11.398 -0.0601 -0.3403 -0.0337
31829W        W46960   7.731   7.685  14.235  0.4450  0.1719 -0.0303
31830W        W46961   9.217  13.700   1.181 -0.0060  0.3714 -0.0438
31831W        W46962  12.083  16.270   3.387  0.0698  0.2795 -0.0514
31832W        W46963  17.303  12.939   1.488 -0.1357 -0.1652  0.0966
31833W        W46964  15.580   7.445   1.563 -0.0118 -0.0386  0.3076
31834W        W46965  12.663  12.986  10.690  0.1194  0.1045 -0.2823
31835W        W46966  17.482  11.533   1.387 -0.0676 -0.0831 -0.2846
31836W        W46967   4.935   8.795   1.913 -0.1373  0.0942  0.1001
31837W        W46968  18.046  15.532  15.002 -0.0985  0.0513 -0.2536
31838W        W46969  16.726   9.303   0.467 -0.2024  0.1086 -0.1218
31839W        W46970   0.191   0.152  11.253 -0.1322  0.1243 -0.1520
31840W        W46971   1.823   0.940  10.610 -0.1246  0.0571 -0.1558
31841W        W46972  14.830  10.498   2.288  0.3139 -0.3238 -0.1878
31842W        W46973  16.566  14.288  13.726 -0.1286  0.3673  0.1414
31843W        W46974   6.322  10.170   1.204 -0.0790  0.0157  0.0813
31844W        W46975   7.361   2.886  15.837  0.1467 -0.0342 -0.2820
31845W        W46976  16.496   8.952   9.387  0.0786  0.1090  0.2321
31846W        W46977  14.586  17.957  15.772 -0.1092 -0.0004  0.0470
31847W        W46978   4.363   4.565   3.156 -0.0335 -0.2283  0.0009
31848W        W46979   8.191   9.023   4.615  0.2346  0.0836 -0.2852
31849W        W46980   8.862  16.599   2.261  0.0602  0.1239  0.0529
31850W        W46981   4.197  10.137   4.509 -0.1601  0.2511  0.2446
31851W        W46982  14.940  11.756   5.371 -0.0602 -0.0623  0.0361
31852W        W46983  10.130   0.748  12.582 -0.0199 -0.0255  0.0462
31853W        W46984   7.575  15.680  11.941  0.0049 -0.2668  0.0951
31854W        W46985   9.557   2.395   1.672 -0.5052  0.1911  0.0383
31855W        W46986   9.948   7.067  10.565  0.2536 -0.5269  0.0727
31856W        W46987   9.709  11.111   2.870 -0.1377 -0.2308 -0.3533
31857W        W46988  16.877  12.095   3.489  0.1037  0.0715 -0.2778
31858W        W46989   8.106  12.952  10.739 -0.0493 -0.1399 -0.2356
31859W        W46990   7.616  15.546  15.440  0.2264 -0.3704  0.1878
31860W        W46991  13.677   3.835  14.667  0.3574  0.0922 -0.0273
31861W        W46992  10.713   1.267  13.135  0.0662  0.2231 -0.3881
31862W        W46993   0.644   9.154  14.914 -0.1855 -0.0126 -0.1878
31863W        W46994  13.991  13.580  13.107  0.0400 -0.0138  0.1390
31864W        W46995   4.044   7.737  12.509 -0.1154  0.0112  0.0703
31865W        W46996   4.572  12.687  14.753 -0.0918 -0.3019 -0.1319
31866W        W46997   3.242   0.879   3.072 -0.1872  0.4795  0.0798
31867W        W46998   8.693   1.977   2.934  0.0474 -0.0512  0.1042
31868W        W46999   0.620  15.165  11.406  0.0710 -0.0809  0.4087
31869W        W47000  12.869   2.617  11.360  0.6541 -0.1208 -0.1295
31870W        W47001   3.192  11.896   1.482 -0.0253  0.0683 -0.0416
31871W        W47002  10.860   5.486  11.713  0.0396  0.5005 -0.0340
31872W        W47003  14.752   1.176   4.261  0.2882 -0.1867 -0.1540
31873W        W47004   1.777  13.449   5.763  0.0945 -0.0786  0.5051
31874W        W47005   4.698   8.563  15.764  0.0918  0.0254 -0.1716
31875W        W47006  12.841   9.179   0.891  0.0521 -0.0667  0.2002
31876W        W47007   5.454   9.943  14.235  0.2563  0.5798 -0.0637
31877W        W47008  15.202  15.315  13.954 -0.1792 -0.0295  0.0741
31878W        W47009  14.993   9.361  13.809  0.0973 -0.4170 -0.1063
31879W        W47010  12.053  13.343  14.206 -0.1984  0.1067  0.0117
31880W        W47011  13.017  12.242  13.790 -0.4548 -0.1103 -0.1187
31881W        W47012   9.527  17.103  15.144  0.0213 -0.2138 -0.0490
31882W        W47013   3.704  14.990   4.300 -0.1644  0.1744  0.1814
31883W        W47014  13.015  12.246   0.738 -0.1524  0.1136 -0.1266
31884W        W47015   8.529   6.100  12.866 -0.3113 -0.0202 -0.1298
31885W        W47016  10.375   6.090   0.462 -0.1455 -0.0135  0.0832
31886W        W47017  14.525  10.168   0.037 -0.2833 -0.1340  0.1038
31887W        W47018   2.164   1.952  16.082 -0.1479  0.2132 -0.2255
31888W        W47019   5.202   5.251   0.538 -0.2417  0.4196 -0.0817
31889W        W47020  14.171  15.100  16.105 -0.3923 -0.1952  0.0343
31890W        W47021   3.228  11.248  14.618  0.1349 -0.2474  0.1764
31891W        W47022   2.559   2.680  13.309  0.0631 -0.2343 -0.0012
31892W        W47023   6.189  15.355   5.784  0.2938  0.2047 -0.1679
31893W        W47024  17.909  11.777   3.332 -0.1337  0.1914  0.1379
31894W        W47025  16.787  16.261  13.630 -0.0386 -0.3697 -0.1679
31895W        W47026   3.855  16.732  15.125 -0.0140 -0.0291  0.0493
31896W        W47027  13.556   7.594   5.749 -0.0276  0.1756 -0.1311
31897W        W47028  10.421   4.972   0.748 -0.2654  0.0619  0.0625
31898W        W47029   4.039   9.563  14.874 -0.1766 -0.0676 -0.1597
31899W        W47030  13.717  11.392   1.058  0.0775 -0.3704 -0.1468
31900W        W47031  13.145  17.636   4.080 -0.0315  0.2689 -0.1896
31901W        W47032  13.719   7.310  15.929  0.1445  0.2443 -0.1514
31902W        W47033   1.686   0.233   3.145  0.1056  0.0217 -0.1955
31903W        W47034  11.256   3.119   0.602 -0.2937  0.1720  0.0532
31904W        W47035   0.362  17.180   4.731 -0.1666 -0.2060 -0.0294
31905W        W47036  16.945  17.135  13.665  0.0540  0.0070  0.2145
31906W        W47037  15.612  10.012  12.721 -0.1700  0.0865  0.0637
31907W        W47038  17.931  14.372  14.093  0.0370  0.0006  0.3336
31908W        W47039  15.321  17.849   3.353 -0.3637  0.1288 -0.2043
31909W        W47040   6.813   9.017   0.360 -0.1749 -0.2992  0.1605
31910W        W47041   3.294  15.433   5.432 -0.2071 -0.1831 -0.0501
31911W        W47042   0.067   7.394  11.028 -0.0955 -0.1223  0.2671
31912W        W47043   0.855   9.169  10.242  0.3779 -0.2980 -0.2964
31913W        W47044  13.671  17.530   3.175 -0.1753  0.1204  0.0628
31914W        W47045  10.527  16.262  14.689 -0.2314  0.0498  0.0547
31915W        W47046  18.086   8.086   3.617 -0.0357 -0.0527  0.2432
31916W        W47047  16.868   9.941  11.139 -0.0863  0.0046 -0.1594
31917W        W47048   2.297  10.724  14.911 -0.1679  0.0103  0.1744
31918W        W47049  16.432   8.411  15.496  0.1993  0.0372 -0.0322
31919W        W47050   0.412   8.899   0.241  0.2454  0.0608 -0.1939
31920W        W47051   0.701   8.934   1.489  0.1838 -0.1371  0.2180
31921W        W47052  13.030   5.972   3.942  0.0039  0.1515  0.0763
31922W        W47053   9.533   5.680   4.592 -0.0195 -0.1548  0.0221
31923W        W47054  10.300   0.929   0.414  0.1854  0.1656  0.1070
31924W        W47055   5.660  13.699  11.508 -0.1002  0.1174 -0.2201
31925W        W47056   7.885   3.787  14.516 -0.4278 -0.2037 -0.0654
31926W        W47057   5.356   5.183   4.999  0.2596 -0.2619 -0.4401
31927W        W47058   9.244  14.104  15.300 -0.1394  0.0656  0.0513
31928W        W47059   2.036   7.249  11.601  0.0483 -0.0658 -0.0434
31929W        W47060   1.957  14.289   4.750 -0.0339 -0.0628  0.3052
31930W        W47061   8.962  12.695  12.368 -0.1232  0.1270 -0.2506
31931W        W47062  11.694  13.016  13.860 -0.1590 -0.1853 -0.3766
31932W        W47063  10.223   8.263   0.987 -0.0479  0.2438  0.2960
31933W        W47064   8.135   5.510  11.822  0.2583  0.1412 -0.0418
31934W        W47065   0.269  12.159  12.975  0.0401  0.2155 -0.2428
31935W        W47066  11.648   1.281  13.115 -0.0268 -0.3280  0.2487
31936W        W47067   3.584  12.802  11.082 -0.1854  0.1191  0.0714
31937W        W47068   6.599  17.959   3.956 -0.0171 -0.2034 -0.1740
31938W        W47069  13.614  10.538  11.525 -0.0964 -0.2535  0.3326
31939W        W47070   1.007   3.838   1.479 -0.0493 -0.1000 -0.4020
31940W        W47071   0.935   1.440   5.048 -0.1875 -0.0338  0.1485
31941W        W47072   6.415   6.989   3.883  0.2082 -0.1044 -0.1148
31942W        W47073   1.005   1.668   2.763  0.1812  0.0367  0.1462
31943W        W47074   9.865   8.942  13.000  0.1688  0.0778  0.2603
31944W        W47075  17.537   0.167   3.359  0.1792  0.1762 -0.1285
31945W        W47076  13.531  17.124  12.349 -0.2931  0.0478  0.0902
31946W        W47077   2.897   0.896  14.409  0.4682 -0.1499  0.4021
31947W        W47078   6.960   8.482  13.523 -0.0056 -0.2153  0.0438
31948W        W47079  13.875  14.717  12.626  0.1154 -0.0940  0.2577
31949W        W47080  10.770  13.306   1.872 -0.0418 -0.2514 -0.2623
31950W        W47081  11.356  16.566  16.014 -0.2545  0.0712 -0.0560
31951W        W47082   6.105  15.047   0.828  0.0639 -0.1333 -0.2537
31952W        W47083  15.080  15.534  13.205  0.2115 -0.1326  0.0401
31953W        W47084   8.315   2.835   3.925 -0.3621 -0.1831 -0.0665
31954W        W47085   2.985  15.907  13.587  0.0759  0.0752  0.0979
31955W        W47086  11.142   0.110   1.291 -0.2022 -0.0208  0.4262
31956W        W47087  16.512  18.131   1.378  0.2146 -0.0675  0.0885
31957W        W47088  13.261   5.663   4.701 -0.0023 -0.1771  0.0113
31958W        W47089   2.179  15.718  15.588  0.0957  0.1788 -0.0336
31959W        W47090  13.648  10.955   0.255  0.3741 -0.1640  0.2414
31960W        W47091  17.709  16.896  13.896 -0.2564  0.1927  0.2134
31961W        W47092   6.449   4.360   4.787  0.1040  0.0259 -0.1319
31962W        W47093  11.232   9.061  12.397  0.0899 -0.0982 -0.0423
31963W        W47094  17.383   7.479   5.401  0.0644 -0.0287  0.1719
31964W        W47095  13.525   8.197  12.311 -0.0406  0.0069  0.1934
31965W        W47096  12.724  17.283   3.515 -0.0664  0.0209  0.0904
31966W        W47097  13.821  15.421  15.791  0.1975 -0.2389 -0.1758
31967W        W47098   8.167  13.934  16.043  0.2523 -0.1966  0.1447
31968W        W47099   6.421  14.364   1.800 -0.1394  0.0784  0.1430
31969W        W47100   2.189  17.841  15.562 -0.3567 -0.1230  0.2237
31970W        W47101   7.737  14.697  14.036  0.0833  0.0432  0.2265
31971W        W47102  13.067   5.894   0.818 -0.1361 -0.3676  0.0495
31972W        W47103   1.859   5.159   3.091  0.1141  0.1167  0.0177
31973W        W47104   7.817   5.181  14.370 -0.1800 -0.0671  0.2550
31974W        W47105   0.284  13.838   3.447 -0.0301  0.3199  0.0081
31975W        W47106  17.622  17.137  12.818 -0.0507 -0.2021 -0.1082
31976W        W47107   8.436  16.191  15.060 -0.0736 -0.0434 -0.0442
31977W        W47108   6.896   7.358   1.702 -0.0965 -0.2563  0.0890
31978W        W47109   4.861  15.180   1.142 -0.0977 -0.0918  0.0536
31979W        W47110   7.335  10.686  11.515  0.1969 -0.0300 -0.1371
31980W        W47111   2.594   3.448  12.317 -0.1308  0.1441  0.0383
31981W        W47112  14.206   0.618   4.462  0.1457 -0.3671  0.2544
31982W        W47113  15.275   8.891  11.591 -0.1112  0.0431  0.1708
31983W        W47114   0.477   6.159   2.181  0.2228 -0.0299  0.0292
31984W        W47115   7.188  12.708   0.272 -0.0611  0.0578  0.0655
31985W        W47116   7.730   1.429   5.387  0.3982  0.0407  0.1587
31986W        W47117  11.125   3.442   1.864 -0.1354 -0.1353  0.1468
31987W        W47118  17.694   3.635  14.537 -0.2652  0.3677 -0.2758
31988W        W47119  17.932   9.776   3.639  0.0517 -0.0895 -0.2692
31989W        W47120   5.915   0.653  14.859  0.0762 -0.1847 -0.0117
31990W        W47121   9.373  15.774   1.449  0.0204 -0.0053  0.1901
31991W        W47122   7.912  11.975  14.228  0.0338 -0.1154  0.0957
31992W        W47123  17.175  15.907  14.359 -0.2571 -0.0314 -0.0919
31993W        W47124   7.273   4.286   2.970 -0.0178  0.1862 -0.2314
31994W        W47125  10.229   2.855  11.102 -0.2085  0.1299  0.0867
31995W        W47126   1.472  14.060   4.804  0.0693 -0.1551  0.1543
31996W        W47127  14.748  16.002   5.243  0.0084  0.0771  0.3280
31997W        W47128  12.660   1.898   1.856  0.0111  0.1158  0.0567
31998W        W47129   3.477   3.891   0.768 -0.1137 -0.0814  0.0851
31999W        W47130  16.872  14.579   1.577  0.1502 -0.0202 -0.2001
32000W        W47131   5.430  15.322  13.713 -0.0790 -0.1063  0.3079
32001W        W47132  14.509  15.908  11.192 -0.2367 -0.1678 -0.2402
32002W        W47133   7.534  10.504   5.294 -0.3714  0.3642 -0.3786
32003W        W47134   6.680   4.949  10.876  0.0108 -0.1575  0.5290
32004W        W47135   8.395  13.272  13.938 -0.2404 -0.1847  0.0567
32005W        W47136   7.270  11.539  15.432  0.2250 -0.1422 -0.0117
32006W        W47137  13.959  13.151  13.732 -0.0859 -0.3181 -0.0872
32007W        W47138  14.356   1.759  13.964  0.1237 -0.4361 -0.0526
32008W        W47139  16.904  13.572  12.130 -0.2600  0.1445  0.1465
32009W        W47140   7.557  17.865  12.906 -0.1080 -0.0453  0.0718
32010W        W47141  13.029   5.503   3.061  0.2450 -0.0280  0.1601
32011W        W47142  15.671  16.960  11.355 -0.1387 -0.0718  0.3186
32012W        W47143   1.546   6.538   3.303  0.0583 -0.2755  0.0267
32013W        W47144   3.092  15.256  14.468 -0.0865 -0.1058 -0.0798
32014W        W47145  15.543  12.422  12.453  0.2735  0.1237  0.1332
32015W        W47146  17.463  10.366   4.196 -0.0996 -0.0300  0.0619
32016W        W47147   6.948   5.002   4.727  0.1256 -0.0628  0.1112
32017W        W47148   8.086   6.422   1.209 -0.1268 -0.0955  0.0016
32018W        W47149   4.011  12.346  14.482  0.0188 -0.0825  0.3702
32019W        W47150  18.221   6.208   3.476  0.0088  0.0129  0.0179
32020W        W47151   7.240  13.164   2.373  0.1000  0.0350 -0.1805
32021W        W47152   7.253  11.212   3.638  0.0124 -0.1171  0.0728
32022W        W47153  17.930  12.756   0.095  0.0134  0.0337 -0.0345
32023W        W47154   3.608   6.032  10.983  0.1114 -0.1220 -0.2328
32024W        W47155  13.176  10.093   4.438  0.1302 -0.1402  0.1295
32025W        W47156  17.822  14.557  14.827  0.5731 -0.0499 -0.2746
32026W        W47157  16.064   1.510   3.670 -0.2453 -0.3235 -0.0635
32027W        W47158  14.485  17.003  11.667 -0.1150  0.2866 -0.2572
32028W        W47159  10.207   6.301   6.243 -0.1597 -0.2055  0.1700
32029W        W47160  10.647   3.075   5.242 -0.0532 -0.1782  0.1284
32030W        W47161  14.370  12.897  13.578  0.1384  0.1576  0.0622
32031W        W47162  16.500   2.889   3.820 -0.2047  0.0470  0.2298
32032W        W47163   0.289   8.069  13.647 -0.2511 -0.0899  0.1891
32033W        W47164  10.434   2.557   4.611 -0.2388  0.0158  0.1246
32034W        W47165   5.680  15.747   1.188 -0.0300 -0.1067 -0.2117
32035W        W47166  13.555  16.675  11.651 -0.0802 -0.0520 -0.3885
32036W        W47167   7.430   0.120  15.030  0.0137 -0.0541 -0.1846
32037W        W47168   5.731  10.206   0.399  0.0688 -0.0408 -0.4858
32038W        W47169  12.035   6.433   3.404  0.3001  0.0902 -0.0750
32039W        W47170  10.012  12.703   4.728  0.1659 -0.4408  0.0217
32040W        W47171   1.141   4.324  12.915 -0.0448  0.1533  0.0168
32041W        W47172  14.093  14.165   4.015  0.0645  0.0823 -0.2664
32042W        W47173   1.202   6.136   4.175 -0.0113  0.2553 -0.0874
32043W        W47174   6.264  10.601   0.964 -0.1211  0.2265  0.1168
32044W        W47175   6.156   5.176   5.202 -0.1898  0.1905 -0.2223
32045W        W47176   6.573  16.685  14.496  0.3840  0.1047  0.0642
32046W        W47177  12.339  10.959  11.399  0.0830  0.1971  0.1709
32047W        W47178   2.667  15.297  13.163  0.0855 -0.1446  0.0937
32048W        W47179  13.823   2.972  15.829  0.4991 -0.2426  0.3583
32049W        W47180   3.825  14.417  10.976 -0.3998 -0.0143  0.1535
32050W        W47181  13.284   1.769   1.813  0.3056 -0.0068 -0.5003
32051W        W47182   7.072  12.523  14.077  0.2093 -0.3017  0.1870
32052W        W47183  11.073   8.658   0.671  0.0831 -0.2701  0.0615
32053W        W47184   9.291   0.042  11.822  0.0526  0.1633 -0.0567
32054W        W47185   0.433  13.370  11.188  0.0621 -0.1511  0.0757
32055W        W47186   1.070   5.293  11.071  0.2560  0.0508 -0.4676
32056W        W47187   4.192  16.309   5.632  0.0056  0.0317 -0.4224
32057W        W47188   7.059   8.108   0.522 -0.0905  0.2605  0.0227
32058W        W47189   0.840   0.598  14.928 -0.6265  0.0535  0.1767
32059W        W47190   4.156  15.511  13.026 -0.0238 -0.0415 -0.2656
32060W        W47191  13.628   6.073   1.150  0.0573 -0.2323  0.4584
32061W        W47192   5.808  13.229  12.977 -0.0449 -0.2482  0.0896
32062W        W47193  15.858   3.255   2.599 -0.1702 -0.2404 -0.0443
32063W        W47194  13.044  16.579  11.569 -0.4705 -0.1228 -0.3827
32064W        W47195   6.308   6.012   0.584  0.1169  0.1559 -0.1443
32065W        W47196  16.218  11.287   9.573 -0.3073 -0.2036  0.4419
32066W        W47197  13.396  16.704   3.361  0.2355 -0.0872 -0.5602
32067W        W47198  10.402  12.940   6.132  0.1842  0.2503  0.3943
32068W        W47199  14.105  16.880  14.668  0.0642 -0.1621  0.3985
32069W        W47200   1.462  18.046   0.556  0.0950  0.1167 -0.3489
32070W        W47201   9.235   9.889  10.204  0.1889 -0.1395 -0.0540
32071W        W47202  17.211  13.730  15.750 -0.1934  0.0540  0.0782
32072W        W47203  15.679   8.972  12.993  0.0877 -0.1484  0.0221
32073W        W47204  11.457   2.630  10.523  0.0528  0.0065 -0.1356
32074W        W47205   7.977   8.378  11.838 -0.0482 -0.2681  0.0146
32075W        W47206  16.023  14.231  13.779  0.2205  0.4959  0.0920
32076W        W47207   4.967   7.533   5.450 -0.0470 -0.0232  0.0049
32077W        W47208   1.589   0.670   0.220 -0.1366  0.2779  0.1000
32078W        W47209  12.612   5.740  11.723 -0.0795 -0.0575  0.1124
32079W        W47210   8.409   4.267   2.547  0.1910 -0.3629  0.2428
32080W        W47211   0.620  17.328  11.293 -0.1478  0.1832  0.1323
32081W        W47212   3.116  17.125  14.085 -0.1278 -0.1931  0.3210
32082W        W47213   3.080   9.863  11.088 -0.1303 -0.0278 -0.1292
32083W        W47214   8.210   6.073   6.334 -0.1548 -0.2647  0.0998
32084W        W47215   6.238  16.918  14.205 -0.0203  0.0774  0.1465
32085W        W47216   7.177  11.486  13.664 -0.1258  0.0792 -0.3738
32086W        W47217   5.860   7.950   2.381  0.1295  0.0048  0.0197
32087W        W47218  17.872  15.971   0.253 -0.0074  0.0870 -0.0485
32088W        W47219   8.174  16.315  14.494 -0.1529  0.2024  0.2078
32089W        W47220  10.042   3.675  13.898  0.0245 -0.2586 -0.0470
32090W        W47221   9.447   7.149  12.975  0.0675  0.0611 -0.3204
32091W        W47222   1.068  18.222   5.682  0.1357  0.0312 -0.0599
32092W        W47223  11.270   0.305   4.620  0.0216 -0.0771 -0.1503
32093W        W47224   2.855  10.688  11.559 -0.1368 -0.1134 -0.1861
32094W        W47225  17.602   8.183   2.344 -0.2168 -0.0517  0.2547
32095W        W47226   9.914   1.825   0.424  0.1820 -0.0107  0.1019
32096W        W47227   3.075  13.791  15.539  0.0429 -0.1253  0.0302
32097W        W47228  12.579   2.490  15.575  0.0264 -0.2527  0.0040
32098W        W47229  14.672   1.808   1.847 -0.0717  0.0639  0.0280
32099W        W47230  13.145   4.802  15.802 -0.0829 -0.2693  0.1251
32100W        W47231   1.161   1.562   4.575 -0.3322 -0.0272 -0.1586
32101W        W47232   7.522   6.423   3.881  0.1667 -0.1054  0.1517
32102W        W47233   7.179   7.449  15.971  0.2554  0.0233 -0.0222
32103W        W47234   8.175  17.303   4.014  0.0117  0.0736  0.2309
32104W        W47235  17.634   7.290   2.294 -0.3555  0.2017 -0.1792
32105W        W47236  10.728   3.104  11.089  0.1976 -0.3050 -0.1953
32106W        W47237   0.175   8.594  15.973 -0.1153 -0.2437 -0.3080
32107W        W47238  16.772   3.496  12.398 -0.0588  0.0131  0.0054
32108W        W47239   7.706   8.317   1.168 -0.1569 -0.0125 -0.0564
32109W        W47240  13.644  17.740   0.036  0.0635  0.0621 -0.1413
32110W        W47241  11.916  15.390  13.701  0.1515 -0.2502 -0.0708
32111W        W47242  12.309  15.132  10.543  0.2458  0.2266 -0.1301
32112W        W47243   6.991  10.148   1.154 -0.1076 -0.2393 -0.2574
32113W        W47244   8.179  15.224   5.325 -0.6224  0.1808 -0.4015
32114W        W47245  17.906   8.966  15.947 -0.0013 -0.2670 -0.1029
32115W        W47246   6.092   8.896  11.439  0.0440 -0.3141  0.0619
32116W        W47247   8.396   9.452  15.711  0.0641 -0.0223 -0.1705
32117W        W47248  12.602  10.382  10.065  0.4025  0.0549  0.1050
32118W        W47249   4.696  14.464  13.808 -0.0989  0.1690  0.1160
32119W        W47250   3.137  13.376  12.062 -0.0340  0.1077  0.0490
32120W        W47251   0.082  16.035  11.393  0.0921  0.1057 -0.0874
32121W        W47252   9.659   0.900   3.948 -0.2671  0.1138 -0.2486
32122W        W47253   2.497  14.567   1.590 -0.0063 -0.0734 -0.0780
32123W        W47254   2.175  10.997   0.711  0.4746 -0.2274 -0.2965
32124W        W47255  17.825   1.999   3.949  0.2366 -0.1450  0.1671
32125W        W47256   0.056   9.774   1.607  0.3266  0.1937 -0.5384
32126W        W47257  18.150   8.676  14.403  0.1110 -0.0360  0.1975
32127W        W47258  15.032   3.132  13.272  0.1153  0.1116  0.3122
32128W        W47259   9.831   2.996  13.351  0.1839  0.0116  0.2932
32129W        W47260  11.123  11.962   4.607  0.1344 -0.1301  0.0684
32130W        W47261  12.731  14.018   0.196 -0.2237  0.0265  0.1809
32131W        W47262   9.746   4.284  13.848 -0.0841 -0.1294  0.1372
32132W        W47263   9.606  10.839   4.331 -0.0484  0.1688  0.1228
32133W        W47264  15.681   6.745  14.942  0.0388  0.1812  0.1641
32134W        W47265  13.734   7.018   1.709  0.3444 -0.2489 -0.1090
32135W        W47266   5.255   8.784   3.151 -0.1293  0.1120  0.0298
32136W        W47267  17.582   3.356  12.550  0.1675 -0.0540  0.2749
32137W        W47268   5.954   8.887   2.559  0.1026 -0.2347  0.0718
32138W        W47269  13.516   2.371   4.059 -0.0183 -0.0897  0.0747
32139W        W47270   4.554   2.872   0.437  0.0454 -0.0365  0.3160
32140W        W47271  11.457   6.210  11.669 -0.0335 -0.2738 -0.0898
32141W        W47272   9.560  14.886  14.205  0.0203 -0.1429 -0.2513
32142W        W47273  14.788  15.014  13.804  0.2376  0.1736  0.0601
32143W        W47274   6.141   7.046   3.020  0.1101  0.0380  0.0603
32144W        W47275   3.058  15.455  12.337  0.0505  0.1855 -0.0015
32145W        W47276  12.920   8.923   0.474 -0.1268  0.0442 -0.2707
32146W        W47277   1.278   8.565  12.747  0.1301 -0.0098  0.0900
32147W        W47278  17.551  16.306   2.542 -0.0702  0.0801  0.1065
32148W        W47279   4.283   0.146   1.245 -0.2369 -0.2805  0.1673
32149W        W47280   4.904   7.187   4.210  0.0418 -0.1654 -0.2047
32150W        W47281  12.131   2.250   2.049  0.0645 -0.0104  0.0456
32151W        W47282   6.481  15.002  14.169 -0.0710  0.2176 -0.3394
32152W        W47283  12.945  14.181   5.446 -0.1738 -0.2629  0.0195
32153W        W47284  10.257  16.041   3.462  0.0560 -0.3156 -0.0864
32154W        W47285  13.571   6.852   2.565 -0.1613 -0.0008 -0.1131
32155W        W47286   3.396  12.075   2.561  0.1358 -0.3279 -0.0961
32156W        W47287  16.330   3.928  13.880  0.0233  0.2949  0.1238
32157W        W47288   5.279   6.200   2.128  0.0811 -0.1931  0.1742
32158W        W47289  16.033   5.251   5.996  0.1737 -0.2225 -0.0477
32159W        W47290  14.112   2.736   1.839  0.0836 -0.2060  0.0563
32160W        W47291  12.135  18.106   4.031  0.0143 -0.1435  0.0374
32161W        W47292  14.421  11.936   2.554  0.0559 -0.3402  0.1711
32162W        W47293   3.484   3.775  14.096  0.0778  0.0027 -0.1782
32163W        W47294  12.637   1.305  15.646  0.1983 -0.1520 -0.2418
32164W        W47295   5.124  15.008   3.768 -0.1165  0.1446 -0.0676
32165W        W47296   7.810   7.480   1.161 -0.3441  0.3479 -0.1146
32166W        W47297  11.999  13.052   4.255 -0.4855  0.1910  0.1155
32167W        W47298  11.007   1.528   3.215 -0.1470  0.0900 -0.1414
32168W        W47299  16.201   1.731  15.788 -0.2954 -0.1333  0.3215
32169W        W47300   9.933   2.193  16.049 -0.0036 -0.0444  0.1870
32170W        W47301  18.184   1.286  15.464  0.2899  0.2795  0.0887
32171W        W47302  18.258   8.728  15.075 -0.2915  0.0825 -0.1455
32172W        W47303   2.150  13.056   5.684 -0.2633 -0.0930  0.1436
32173W        W47304   0.807   6.310   4.597 -0.1717  0.2837  0.1112
32174W        W47305  15.920   5.997   4.977  0.0591  0.3958  0.0022
32175W        W47306   4.888   9.082  11.158  0.2257 -0.0310 -0.0395
32176W        W47307   4.187   4.344   0.618 -0.3780  0.0629  0.0811
32177W        W47308   8.660  12.408  13.827 -0.0578  0.0833 -0.2846
32178W        W47309  15.247   7.533  14.722  0.2089  0.0056 -0.3006
32179W        W47310   8.492   5.196  11.758 -0.3211 -0.0071  0.0339
32180W        W47311   9.118   7.882   4.695 -0.1923 -0.0109 -0.3172
32181W        W47312  17.647  10.250  15.924  0.0449  0.0319  0.0357
32182W        W47313   3.390  16.738  11.822  0.3754  0.3512  0.1919
32183W        W47314   6.055   2.826   3.147  0.1044 -0.2773  0.1064
32184W        W47315  16.667  11.264  10.502 -0.1070  0.1478 -0.3034
32185W        W47316   6.199   6.567   4.131 -0.2063  0.3454  0.2238
32186W        W47317  13.723   1.416   5.374  0.0863  0.1405 -0.2095
32187W        W47318   6.558  10.113  15.782 -0.0155  0.1633  0.1556
32188W        W47319  15.696  17.398   3.525 -0.1483  0.1059 -0.2681
32189W        W47320  17.320   5.353   4.779  0.0749  0.0953  0.1383
32190W        W47321  16.234  10.098   2.815  0.0142  0.0552 -0.0232
32191W        W47322  18.050  14.789  14.362 -0.0030  0.0283  0.0006
32192W        W47323   2.008   3.576   0.895 -0.1303 -0.0180  0.0618
32193W        W47324   6.940  11.131  14.031  0.0762  0.0398 -0.1280
32194W        W47325  16.391  16.743  10.527  0.0422 -0.2264  0.0693
32195W        W47326  15.655   9.085   1.245 -0.0368 -0.0041 -0.0974
32196W        W47327   1.197   3.833  15.100 -0.1178  0.0450 -0.2092
32197W        W47328   9.697   9.975  15.655 -0.2825 -0.0889 -0.0649
32198W        W47329   8.166   8.445  10.969  0.4265 -0.0039 -0.0110
32199W        W47330   2.129  15.560   0.881 -0.0726 -0.2974  0.0862
32200W        W47331  15.031  18.159   2.970  0.2243  0.3221  0.0828
32201W        W47332   7.819   5.046   0.965  0.1559  0.2482 -0.1705
32202W        W47333  12.769  10.864   3.779  0.0273  0.1344  0.1695
32203W        W47334   4.347  15.202   1.426 -0.1642  0.0038  0.0936
32204W        W47335  16.627   7.302  13.221  0.1735  0.0346  0.3876
32205W        W47336   1.548   8.242   0.599  0.0764  0.0612  0.3205
32206W        W47337  16.094   7.904  10.567 -0.0445 -0.0393  0.0029
32207W        W47338   9.561   6.442  12.037 -0.0893 -0.3554  0.0290
32208W        W47339  12.808   8.117  16.024 -0.3715 -0.0747  0.3502
32209W        W47340   9.912  16.717   4.696  0.0059  0.0354 -0.1039
32210W        W47341  14.915  15.923   0.689  0.2378  0.1299 -0.0587
32211W        W47342   5.978   2.659   4.690 -0.0280  0.0404 -0.1441
32212W        W47343  17.031  14.040  13.890 -0.0719 -0.3488  0.4435
32213W        W47344   1.379  15.619   5.338 -0.1248 -0.2856  0.1516
32214W        W47345  14.267   3.517  11.847  0.0949  0.1435  0.0561
32215W        W47346  10.426   6.016   5.395 -0.1113 -0.1649 -0.1220
32216W        W47347  14.037   3.826   2.967 -0.3590 -0.3582  0.2228
32217W        W47348   8.074  15.950   1.373  0.0143  0.1953 -0.1519
32218W        W47349   4.212  14.553   0.772 -0.1073  0.0025  0.0311
32219W        W47350   3.873  11.731  15.783 -0.0538  0.0503 -0.3917
32220W        W47351  10.934   9.412  13.009 -0.0324 -0.2388 -0.0420
32221W        W47352   2.320  10.315  13.203 -0.0702 -0.1285 -0.0456
32222W        W47353  11.129  17.427  11.343 -0.0335 -0.4114 -0.1092
32223W        W47354   1.031  16.397  13.321  0.0678 -0.2092 -0.3057
32224W        W47355  13.188   9.559   2.040 -0.0575  0.1246 -0.0541
32225W        W47356   3.919   3.041   2.883  0.1467 -0.0725  0.0494
32226W        W47357   9.082  16.301  11.527 -0.2547  0.2611  0.0432
32227W        W47358   1.504   7.904   0.996  0.1970 -0.1217  0.0732
32228W        W47359   1.550  11.242   2.202 -0.3441 -0.1057 -0.3730
32229W        W47360  17.728  14.098  13.131  0.0724 -0.1269 -0.1799
32230W        W47361  17.927   1.707  15.249  0.2288  0.1601  0.0402
32231W        W47362   3.681   9.085   1.843 -0.0316 -0.1247 -0.1771
32232W        W47363   2.736   4.762  12.694 -0.1294  0.2249 -0.1393
32233W        W47364   8.583   7.562   2.672  0.1976 -0.3121  0.1132
32234W        W47365   8.386   6.515  12.623 -0.4344  0.0500  0.1206
32235W        W47366   3.754  12.869  13.627 -0.2289  0.0337  0.0790
32236W        W47367   6.637  13.250  10.144  0.2556 -0.1458 -0.1301
32237W        W47368   1.922   0.599  13.078 -0.0764 -0.2729 -0.2446
32238W        W47369  12.998   7.007  11.598  0.0620 -0.0436 -0.0098
32239W        W47370  12.378  14.916   5.597  0.2350  0.0529 -0.0762
32240W        W47371  11.389   9.330  15.031 -0.0122  0.2902  0.1549
32241W        W47372   5.950  13.551   2.166 -0.1676  0.3294  0.0461
32242W        W47373   8.231   7.439  11.975  0.1234 -0.0243 -0.2288
32243W        W47374  15.118   6.489  15.746  0.1373 -0.2402  0.1977
32244W        W47375   7.319  16.038   6.045  0.1128  0.1879  0.1665
32245W        W47376  10.653   3.707   5.783  0.1315  0.0004 -0.0206
32246W        W47377  15.175   1.730   4.382 -0.1841 -0.1599 -0.1990
32247W        W47378  13.979   3.382  14.438 -0.3289  0.1177  0.0155
32248W        W47379   2.151   9.352   4.444  0.1176  0.1156  0.0625
32249W        W47380   6.724  15.755   3.033 -0.0401  0.1014 -0.5074
32250W        W47381   4.575   3.575   3.079  0.1129  0.0456  0.0429
32251W        W47382  13.080   6.831   2.299  0.0759 -0.2320 -0.2302
32252W        W47383   2.313   9.343   5.720  0.3853 -0.0975 -0.1083
32253W        W47384   8.259   2.909   3.296  0.3239  0.1808  0.2286
32254W        W47385   6.545   4.131  11.088 -0.3038  0.3035  0.0018
32255W        W47386  16.858  16.617   3.762  0.0737 -0.2772  0.1358
32256W        W47387   2.902   1.803   5.030  0.2855  0.1720  0.1087
32257W        W47388   9.143  15.504  13.141  0.1391  0.2886 -0.1264
32258W        W47389   5.585   0.380  13.855  0.1785  0.0690  0.1292
32259W        W47390   1.596   5.269  11.063 -0.1999 -0.2672 -0.1012
32260W        W47391  10.540   4.625  10.704  0.0409 -0.1076 -0.0008
32261W        W47392   8.495  12.964   2.697 -0.1788  0.2182  0.1788
32262W        W47393   0.295  17.003  12.434 -0.1595 -0.2372 -0.1789
32263W        W47394   6.434   1.534  13.840  0.1844  0.0970 -0.1388
32264W        W47395   7.643  12.773   2.426 -0.0412  0.1062 -0.1872
32265W        W47396   9.617  12.436   3.468  0.2611  0.0505  0.4209
32266W        W47397  12.099  13.229  10.625  0.1820 -0.0943 -0.0431
32267W        W47398  10.897   5.885  13.392 -0.1173 -0.0528  0.1746
32268W        W47399   1.599   7.162   5.119  0.0450  0.0647  0.0231
32269W        W47400  14.705   8.440  12.182 -0.1096 -0.1553 -0.1854
32270W        W47401   1.069   5.377  13.388 -0.0457  0.1120  0.0783
32271W        W47402   4.341  12.582  10.850  0.1845 -0.1095  0.0206
32272W        W47403  17.929   3.847   2.913 -0.2140  0.0525  0.0386
32273W        W47404   4.371   7.314  13.825 -0.1264  0.2006  0.0564
32274W        W47405   6.680   5.449  13.366 -0.0437  0.0853 -0.0702
32275W        W47406  13.741   9.736   4.962 -0.0184  0.1872 -0.2046
32276W        W47407   3.165   7.803  13.859 -0.1775  0.3796  0.2810
32277W        W47408  12.559  11.646   1.197 -0.0127  0.2507  0.0777
32278W        W47409   3.164  14.645  13.640 -0.2610  0.2572 -0.3253
32279W        W47410   8.344  16.008   3.007 -0.0734 -0.0522  0.1172
32280W        W47411   8.306   6.541  13.577 -0.0975  0.3770  0.1833
32281W        W47412  12.188  15.621   1.625 -0.1787  0.0660  0.2029
32282W        W47413   2.247   7.774  14.238  0.1633 -0.3290 -0.1241
32283W        W47414   8.215   7.252   0.379 -0.1821  0.2439  0.0241
32284W        W47415   2.455  13.433  14.965  0.1726 -0.2746 -0.0251
32285W        W47416   4.511   9.854   5.994 -0.1068  0.3021 -0.2429
32286W        W47417  16.119  12.254   0.459 -0.4549  0.0319 -0.2037
32287W        W47418  15.253   6.300   0.360  0.0634  0.4386  0.0262
32288W        W47419  12.222   8.756  14.093 -0.1743 -0.1830 -0.0419
32289W        W47420   4.831   0.581  13.470 -0.1953 -0.0559  0.1390
32290W        W47421   6.807   6.228   3.394  0.0486  0.0917  0.0747
32291W        W47422   8.575   9.562  13.154 -0.3086  0.1727  0.0035
32292W        W47423   1.917  12.249  12.452 -0.0848  0.1876  0.0670
32293W        W47424   2.517   0.873  11.784 -0.3662  0.3247  0.0721
32294W        W47425   7.492  12.063  13.142  0.5596  0.0234 -0.0897
32295W        W47426   3.188  11.570   4.015  0.1546 -0.3355  0.2721
32296W        W47427   0.668   2.994  13.150 -0.3312  0.3543  0.3782
32297W        W47428   3.311  10.991   5.337 -0.3155 -0.0830 -0.0088
32298W        W47429   4.493  10.059  11.137 -0.0737 -0.2396  0.1071
32299W        W47430  11.893   7.608   1.892 -0.2113 -0.1074 -0.0965
32300W        W47431   7.075  11.690   0.210  0.1239 -0.1021  0.3650
32301W        W47432   3.247   5.567   2.050 -0.1238 -0.1915  0.0893
32302W        W47433   6.857  17.222  11.160 -0.0436  0.0317  0.2883
32303W        W47434  14.573   4.157  12.527  0.1259 -0.3374  0.1839
32304W        W47435   9.852  15.693   1.845  0.1426 -0.1079  0.0092
32305W        W47436  17.084  13.440   1.667 -0.0466  0.0501  0.3568
32306W        W47437  10.291  17.444   4.345  0.2763  0.0592 -0.1108
32307W        W47438   5.185  18.009   0.697 -0.0874  0.3240  0.0205
32308W        W47439  15.833   3.049  14.364  0.1617  0.1602  0.2610
32309W        W47440  12.763   8.355   1.298 -0.1260 -0.1270 -0.2986
32310W        W47441  17.526  15.044  11.739 -0.1827 -0.0456  0.1836
32311W        W47442  11.615   4.870  13.258 -0.0613  0.1194  0.1472
32312W        W47443   3.264   8.532  13.125 -0.1563  0.0331  0.0251
32313W        W47444   2.288   1.101   0.993 -0.0193  0.0390 -0.1324
32314W        W47445  13.450   7.821   5.270  0.1537 -0.0255  0.0620
32315W        W47446   8.956   1.378   5.998  0.0526 -0.0033  0.0522
32316W        W47447  14.691   9.484   4.227 -0.2648  0.1801  0.1122
32317W        W47448   0.920  17.853  12.156  0.1276  0.0775 -0.1117
32318W        W47449   7.991  14.724  11.125 -0.0405  0.0425  0.4345
32319W        W47450  13.079   6.504  11.720 -0.0399  0.1919  0.0383
32320W        W47451   9.405   3.441   3.002  0.1885 -0.0427 -0.1311
32321W        W47452   9.511   6.423  13.784  0.4407  0.1886 -0.2725
32322W        W47453  13.413   7.663   2.125 -0.1170 -0.1271  0.0578
32323W        W47454  14.952   7.682   3.817 -0.1999  0.3605 -0.0529
32324W        W47455   7.472  10.174   1.730  0.1131  0.3967 -0.0522
32325W        W47456   0.309   3.854   4.564 -0.4176  0.0129  0.0500
32326W        W47457  14.707  15.981  15.848  0.3151 -0.2204 -0.2376
32327W        W47458  16.415  12.119   1.715 -0.3388  0.0863 -0.1794
32328W        W47459   0.644   2.743  10.613  0.0098 -0.1171  0.0549
32329W        W47460  10.928  12.268   0.914 -0.0404 -0.1045 -0.1049
32330W        W47461  13.908  11.871  11.243 -0.0081 -0.1442 -0.2332
32331W        W47462   0.779  11.626   3.805  0.1850 -0.0970 -0.1717
32332W        W47463   0.681  13.570  15.438 -0.1428  0.1205  0.0057
32333W        W47464   4.962   7.440  11.550  0.1609  0.2364  0.1176
32334W        W47465  15.234   6.948   2.987 -0.0386  0.1136  0.2505
32335W        W47466  17.119  13.477  13.986  0.0181 -0.0001  0.1750
32336W        W47467   9.882  13.867  11.735 -0.2220 -0.0050 -0.1663
32337W        W47468  12.019  16.564   5.585  0.4735  0.2632  0.0861
32338W        W47469  10.029  15.686   3.143 -0.1046 -0.2163 -0.3143
32339W        W47470   2.237   5.340   4.334  0.0602  0.1019 -0.1546
32340W        W47471   0.391   0.513   0.164 -0.2891 -0.2263 -0.0162
32341W        W47472   7.975   2.484   3.121 -0.1418  0.0060  0.2458
32342W        W47473  16.028  11.071   5.549  0.1532  0.0013 -0.0688
32343W        W47474   7.408  13.221  12.176 -0.0366 -0.1566 -0.1070
32344W        W47475  16.522   0.245   2.422 -0.2193  0.3055 -0.1167
32345W        W47476  18.267  12.590  11.033  0.1860 -0.0324 -0.0191
32346W        W47477   0.185  17.349  13.802  0.0865 -0.0941  0.0629
32347W        W47478  11.069  10.284  15.372 -0.0442  0.3322 -0.2524
32348W        W47479  14.594   3.678   4.943 -0.0307 -0.0155 -0.1353
32349W        W47480   2.831   9.509   1.437  0.0241  0.2473  0.0032
32350W        W47481  14.079  14.266   4.853 -0.0363 -0.1156  0.1774
32351W        W47482   1.562   6.823  15.980  0.0299 -0.3698 -0.1941
32352W        W47483   8.556  15.110   2.385  0.2923 -0.2365 -0.1103
32353W        W47484  15.997  16.577   0.664  0.0220 -0.0941 -0.3016
32354W        W47485  18.202   8.029  14.396  0.1291 -0.0729 -0.0215
32355W        W47486   0.107   8.006   1.781 -0.2055 -0.1913  0.2532
32356W        W47487  15.085  13.540   4.806 -0.1112 -0.0514  0.0838
32357W        W47488  17.724  16.955  14.395  0.1221 -0.0527  0.1202
32358W        W47489  12.640  10.932   4.773 -0.0803  0.2210 -0.0155
32359W        W47490  10.613   6.556  12.754 -0.0590  0.2927  0.0045
32360W        W47491   4.622   2.513   0.085  0.4168 -0.1345 -0.2614
32361W        W47492   9.233  14.342  13.700 -0.0753  0.2323 -0.0939
32362W        W47493  13.936  11.060   2.910 -0.0339  0.0588  0.0227
32363W        W47494  14.014  12.273   4.722  0.2394 -0.2092  0.0412
32364W        W47495  17.025  15.739   2.988  0.1288 -0.2470  0.1781
32365W        W47496  12.869   9.949   0.589 -0.4779 -0.1030  0.0522
32366W        W47497  15.942  15.673  10.644 -0.0672 -0.1423  0.0116
32367W        W47498   5.689  10.788  10.509  0.0950  0.2347 -0.1379
32368W        W47499   0.038  11.409   0.929 -0.0474 -0.0482 -0.2656
32369W        W47500  16.356  16.271  15.939 -0.3428  0.1687  0.0449
32370W        W47501   8.928   3.176   0.006 -0.0256 -0.0765 -0.1898
32371W        W47502   1.156  10.347  13.077 -0.2531  0.0386 -0.1175
32372W        W47503  17.893   6.326  14.586 -0.2046 -0.0412 -0.2994
32373W        W47504   2.481  10.624  10.147  0.0081 -0.3194 -0.0533
32374W        W47505  14.449   8.075   1.264 -0.0271 -0.1509 -0.0256
32375W        W47506   4.138   9.761  11.936 -0.1141 -0.1918  0.1615
32376W        W47507   6.954  16.316   3.873  0.0445 -0.1889 -0.4654
32377W        W47508   2.470   2.301   3.776 -0.0804  0.0923 -0.1104
32378W        W47509  16.134  14.023   0.241  0.0819  0.0778  0.1213
32379W        W47510  11.642  10.847   0.035 -0.4146 -0.2614 -0.0220
32380W        W47511   6.835   5.225   2.022  0.0773  0.1631  0.3717
32381W        W47512   5.485   5.937  12.964  0.0361 -0.0465 -0.2555
32382W        W47513  11.303   0.992  14.924  0.0341 -0.1230  0.0319
32383W        W47514  14.745   2.660   5.237 -0.1415 -0.2456 -0.1995
32384W        W47515   8.357  13.036   3.336 -0.0010 -0.0929  0.1233
32385W        W47516  11.256   5.380  15.226 -0.0225  0.0317  0.0792
32386W        W47517  17.323  15.574  15.843 -0.0908  0.1042  0.1228
32387W        W47518  13.346   0.239   0.219  0.0511 -0.0534 -0.1940
32388W        W47519   3.108  14.305   1.652  0.0832 -0.0121 -0.1764
32389W        W47520  18.092   1.544  11.929  0.1202 -0.0685 -0.1488
32390W        W47521   0.993  18.001   4.458  0.3217 -0.2227 -0.0425
32391W        W47522   4.047   3.159  13.148 -0.0042  0.0515 -0.3223
32392W        W47523   4.709   5.480  14.234  0.2026  0.3429  0.0963
32393W        W47524  15.111   2.236   6.068 -0.1310 -0.2958  0.0634
32394W        W47525   7.460   6.369   5.750  0.3191 -0.2089 -0.0775
32395W        W47526   4.783  13.681  14.563  0.1365  0.1281 -0.2344
32396W        W47527   1.565  13.989  12.642 -0.1984 -0.2420  0.2492
32397W        W47528   8.130  13.866   0.960 -0.1568 -0.0114  0.0029
32398W        W47529   1.948   7.463   1.908 -0.1564  0.0537 -0.2969
32399W        W47530   0.414   7.971  14.647 -0.0205  0.1459  0.4202
32400W        W47531   4.134  12.934   2.062  0.1521  0.1197  0.0942
32401W        W47532   1.852   5.788   5.646 -0.1624  0.3394  0.1606
32402W        W47533   5.900  12.674  14.224  0.1845  0.1595  0.0434
32403W        W47534  13.058  16.997  12.342  0.2013 -0.0836 -0.0317
32404W        W47535   2.509  11.258  12.847 -0.0367  0.2021  0.4097
32405W        W47536  16.814   9.751  14.353 -0.1384 -0.1129 -0.2075
32406W        W47537   7.088   6.918  14.206  0.3823  0.2520 -0.0663
32407W        W47538  10.313   4.900   3.265  0.1219 -0.0638  0.1695
32408W        W47539   4.239  11.173  10.730 -0.1930 -0.2051 -0.0451
32409W        W47540   8.312  13.765   2.022  0.2717  0.0795  0.0772
32410W        W47541  17.634   8.400  13.622  0.0031 -0.0485 -0.2607
32411W        W47542  10.609   4.647   1.891  0.0649 -0.1987 -0.2454
32412W        W47543   2.753  16.102  14.041 -0.0773  0.1673 -0.2660
32413W        W47544   6.676  14.273   4.523 -0.0498  0.0193  0.1675
32414W        W47545   9.982  15.170  14.082 -0.0487  0.0106 -0.1634
32415W        W47546  10.650   8.550  12.955  0.0664  0.2297  0.2335
32416W        W47547  10.397   3.481  13.052 -0.2289 -0.1442 -0.2159
32417W        W47548   6.613  14.113   5.045 -0.0085 -0.1865 -0.2152
32418W        W47549  16.431  14.939   5.254  0.1818  0.0491 -0.0830
32419W        W47550   1.085   1.456  15.225 -0.1927  0.3200  0.0286
32420W        W47551   1.893  10.802  15.776  0.5026  0.0972 -0.0816
32421W        W47552   9.419  11.014  15.381  0.2898 -0.3224  0.1640
32422W        W47553  16.745   6.962  11.286  0.0203 -0.1176 -0.0011
32423W        W47554  14.599  14.137  16.010 -0.1320 -0.2448 -0.3287
32424W        W47555   5.494  12.086   0.795  0.2830 -0.0035 -0.2102
32425W        W47556   6.615   6.525   3.799 -0.1281 -0.1266  0.0689
32426W        W47557  12.851   4.465  10.781  0.1513 -0.0473 -0.3286
32427W        W47558   8.228   0.332  13.428 -0.1606  0.1429  0.1513
32428W        W47559   7.404  13.607   4.627  0.0320 -0.1262  0.2066
32429W        W47560   6.967   6.626   2.393  0.0868  0.0037  0.1067
32430W        W47561  11.832  12.568  12.662 -0.0659 -0.0581 -0.1127
32431W        W47562  11.253   4.701  12.874  0.3828 -0.0413  0.1227
32432W        W47563   1.662  11.325  13.968  0.1869 -0.0209  0.1527
32433W        W47564   9.418   1.994   1.299 -0.3565  0.3562  0.1072
32434W        W47565   6.227  11.126   0.401 -0.0147  0.2052 -0.0175
32435W        W47566  10.570   8.045  11.064 -0.3334  0.0462  0.1559
32436W        W47567   4.760   8.717   5.434  0.0168  0.0990 -0.0759
32437W        W47568   2.751  10.565   5.917  0.1065 -0.1351 -0.0725
32438W        W47569   4.424   0.636  13.816 -0.3627 -0.0558  0.1020
32439W        W47570   2.325  17.799  14.391  0.0806  0.0923  0.1759
32440W        W47571   1.009   4.248   2.241  0.1792 -0.1240  0.1694
32441W        W47572   6.213   8.202   0.123  0.0752 -0.3084 -0.1460
32442W        W47573  17.547   1.745   1.031 -0.2953 -0.3974  0.5063
32443W        W47574   1.275  11.712   3.966 -0.4024 -0.0027  0.1727
32444W        W47575   2.501  13.897  10.938 -0.0492  0.0340 -0.2246
32445W        W47576   0.245   3.764   2.173 -0.1683 -0.0117 -0.1286
32446W        W47577   7.630  14.552   2.774  0.1460  0.0962 -0.1234
32447W        W47578  18.077  10.797   2.761 -0.2364 -0.1575 -0.3827
32448W        W47579  17.640   0.633   2.296 -0.3416  0.2326 -0.2831
32449W        W47580  18.083  17.485   0.667 -0.0335 -0.0173  0.2423
32450W        W47581   9.905  13.788  12.680 -0.2688 -0.1935  0.0091
32451W        W47582  17.033   0.493   0.506 -0.2519 -0.2074 -0.0680
32452W        W47583  13.180   0.560   4.253 -0.1009 -0.0202  0.0306
32453W        W47584   8.266   0.302   3.010  0.0778  0.1090 -0.2243
32454W        W47585   4.113  10.863   0.791 -0.3767 -0.3561 -0.0609
32455W        W47586  16.665  11.798  14.323 -0.0634 -0.0906  0.1424
32456W        W47587   8.344   7.918  16.019 -0.1279 -0.0850  0.3986
32457W        W47588   0.694   4.264  13.905  0.1437  0.1368 -0.3702
32458W        W47589   6.597  10.665   5.757 -0.1731  0.1180 -0.1171
32459W        W47590  18.201  16.056  15.564  0.0828  0.4959 -0.1502
32460W        W47591   8.722   4.389  15.367  0.0184  0.0349 -0.2346
32461W        W47592   6.221  15.212   2.368 -0.0361 -0.0608 -0.0562
32462W        W47593  10.818   0.102  13.841  0.1365  0.4192  0.2212
32463W        W47594   2.831   3.075   3.971 -0.0391 -0.0918  0.0163
32464W        W47595  14.218   2.531  11.878  0.1961 -0.1092 -0.1740
32465W        W47596  12.490   6.556  11.016  0.1694  0.2674  0.0064
32466W        W47597   6.838   7.154   4.233 -0.4464  0.3448  0.1083
32467W        W47598  15.410  11.558  13.301  0.1961  0.3038  0.0312
32468W        W47599  10.610  14.596   3.875 -0.1365 -0.1017 -0.1156
32469W        W47600   0.270   9.714   1.135  0.2211 -0.0411 -0.0596
32470W        W47601  15.726  11.939  12.450  0.1495  0.3996 -0.0153
32471W        W47602   0.987  16.436   1.508 -0.0395  0.1371  0.0745
32472W        W47603   7.290  13.276  14.908 -0.0768 -0.0228  0.5058
32473W        W47604   1.063   6.154  15.549  0.1227 -0.0713  0.2324
32474W        W47605  17.609  17.816   5.335 -0.0130 -0.0382 -0.1698
32475W        W47606   4.898  17.432   2.334  0.3632  0.2975  0.0128
32476W        W47607  11.202  16.419   1.015  0.0675  0.2340 -0.0367
32477W        W47608   8.740   6.862  13.691  0.1315  0.2691 -0.1584
32478W        W47609   5.567   7.610  13.694 -0.1798  0.0063  0.3000
32479W        W47610   2.168   2.619  13.638 -0.2066 -0.0750  0.0713
32480W        W47611  15.862  16.011  13.535 -0.1080  0.1236  0.0540
32481W        W47612   3.045   2.446   4.946  0.0264  0.0891 -0.0776
32482W        W47613   1.239   0.794   2.141 -0.1183 -0.1439  0.0696
32483W        W47614  12.970   5.099   1.168 -0.1726 -0.2176 -0.3095
32484W        W47615   9.689   4.628   4.799  0.0230 -0.1003 -0.0435
32485W        W47616   0.541   8.961  15.849 -0.1148 -0.0645  0.2382
32486W        W47617  13.010   9.352  13.126  0.0550 -0.3854  0.0270
32487W        W47618  14.680   5.227  12.897  0.0011 -0.0347 -0.0120
32488W        W47619   8.876   9.048  14.405  0.0125 -0.1063  0.1161
32489W        W47620   5.599   9.879  10.462  0.0208 -0.0877 -0.1696
32490W        W47621   1.242  13.831  10.517 -0.2996  0.0023 -0.2484
32491W        W47622   4.417  16.592  14.452 -0.1725  0.1502 -0.0380
32492W        W47623  10.308  12.345  14.664 -0.0641 -0.0393 -0.4370
32493W        W47624   2.685  15.398   0.985 -0.2550 -0.1901 -0.2081
32494W        W47625   3.149   7.134  14.906  0.1839 -0.2437 -0.0273
32495W        W47626   0.690  10.537   0.140  0.2541  0.1290 -0.0106
32496W        W47627  17.784   2.538   5.251  0.1619  0.0681 -0.0886
32497W        W47628  17.151  16.802   2.459  0.4233 -0.0385  0.2702
32498W        W47629   2.196  11.058  13.238  0.2040  0.1922 -0.0111
32499W        W47630   5.370  10.143  12.338 -0.3086  0.1318 -0.2636
32500W        W47631   6.334   5.628   4.848  0.1518  0.2548  0.1165
32501W        W47632  15.069   2.493   1.244 -0.1420 -0.0928 -0.0426
32502W        W47633  10.565   0.911  14.193  0.0638 -0.1799 -0.0590
32503W        W47634   8.525   5.827   1.661 -0.0829  0.0017  0.2061
32504W        W47635  18.296  17.523   1.196  0.1032 -0.1077 -0.0432
32505W        W47636  15.641  12.807   5.766  0.3010  0.0731 -0.1545
32506W        W47637  13.138   8.227  15.603  0.0502 -0.0010  0.0171
32507W        W47638  12.388  13.451  14.990 -0.2564 -0.0308 -0.2541
32508W        W47639   9.722   6.670  11.556 -0.2184 -0.4015  0.0281
32509W        W47640  18.057  15.615   3.159 -0.1048  0.1455  0.2773
32510W        W47641  15.047  17.681  15.917 -0.0392 -0.4162  0.0680
32511W        W47642  16.159  16.581   2.784  0.1163  0.0495 -0.1872
32512W        W47643  17.165   7.634   4.613  0.0780 -0.2233 -0.3524
32513W        W47644   1.534   9.753  15.995  0.2679  0.1408  0.1169
32514W        W47645  17.599   8.584   4.921 -0.0145  0.2029  0.2229
32515W        W47646   8.696   7.314   1.700  0.0749  0.2872 -0.0207
32516W        W47647  14.628   0.585  11.476  0.0784  0.1814 -0.1319
32517W        W47648  16.121   3.100  13.177 -0.1440  0.3502  0.0886
32518W        W47649  12.518  16.932  11.030  0.1975 -0.1188  0.1980
32519W        W47650   7.854  17.945   1.579  0.1994  0.3901  0.1960
32520W        W47651  17.791  10.720   0.113  0.1720 -0.0974  0.0106
32521W        W47652   7.589  10.789   3.627 -0.1132  0.1139  0.0807
32522W        W47653  14.727   4.401  11.039  0.2849 -0.0857  0.0481
32523W        W47654  14.319  11.776  11.524 -0.2155  0.1783 -0.1876
32524W        W47655   0.161   9.251   2.267 -0.2316  0.0894 -0.1996
32525W        W47656   1.402  17.494   5.033  0.3436 -0.2047  0.2205
32526W        W47657  16.634  10.700   2.386  0.2693  0.2933 -0.0661
32527W        W47658  10.257   0.739   2.255 -0.0383  0.3400 -0.0418
32528W        W47659  10.237  10.615   2.199 -0.0169  0.1790 -0.0120
32529W        W47660  15.588  10.596   1.980 -0.1881 -0.1190  0.1021
32530W        W47661   7.828  10.637  14.036  0.1792 -0.3003  0.0053
32531W        W47662   7.366   1.371   2.663  0.5257  0.0103  0.0090
32532W        W47663  18.305  18.170   5.955 -0.0606 -0.2190  0.1955
32533W        W47664   0.811  16.815  13.675 -0.2683  0.0345  0.2074
32534W        W47665   8.203   8.708  13.512 -0.1820 -0.1616 -0.1887
32535W        W47666   8.169  17.373   2.652  0.0147  0.2125 -0.1348
32536W        W47667  16.575   2.244  14.375 -0.0595  0.0139  0.1193
32537W        W47668  14.834   1.683   3.960  0.1013  0.0723  0.0101
32538W        W47669   0.005  11.246   5.331  0.1561  0.0736 -0.0197
32539W        W47670   3.543   8.828  14.267  0.1071 -0.1213 -0.2400
32540W        W47671   9.271  11.867   5.931 -0.0197  0.2646 -0.0761
32541W        W47672   5.657  18.226  10.985  0.1785  0.1057 -0.0171
32542W        W47673   1.717   0.133  15.426 -0.2809 -0.1992  0.1508
32543W        W47674  10.997   7.463  11.807  0.1385  0.0396 -0.3529
32544W        W47675  17.144   5.827   4.692  0.0945  0.1591  0.1799
32545W        W47676   1.903  17.584  14.592  0.1640  0.1194 -0.1407
32546W        W47677  17.986   6.604   6.130 -0.0935  0.1629  0.1464
32547W        W47678   6.777  14.356  12.315 -0.0833 -0.0329 -0.0071
32548W        W47679   9.540   6.675   1.407  0.0799 -0.0302  0.0848
32549W        W47680   4.056  12.562   5.324 -0.1645  0.2378  0.0167
32550W        W47681  18.210   0.485   4.394  0.3968 -0.1436  0.2040
32551W        W47682  10.283   1.656   9.968 -0.2371 -0.2975  0.1537
32552W        W47683   4.214   0.803   0.599 -0.2591  0.1522 -0.2697
32553W        W47684   5.710  14.683   3.616 -0.1483 -0.0463  0.0060
32554W        W47685   9.179  12.707   0.846  0.1483 -0.2078 -0.0702
32555W        W47686   1.316  12.609   5.430 -0.0803 -0.3926 -0.0030
32556W        W47687  11.444  16.191   4.299 -0.0336  0.1093 -0.3200
32557W        W47688   9.425  10.456  15.549  0.2526 -0.2062 -0.3535
32558W        W47689  14.238  11.692  13.490 -0.1246  0.4064 -0.1899
32559W        W47690  16.810  17.488  14.831 -0.2465  0.1257  0.0335
32560W        W47691   2.692   6.140   0.519  0.1982  0.1727  0.0507
32561W        W47692   1.467   0.381  13.156 -0.0755  0.0716  0.0910
32562W        W47693   2.138   7.779   1.494 -0.0851 -0.1161  0.2879
32563W        W47694   9.695   9.638  12.520  0.1457 -0.2243 -0.0365
32564W        W47695  17.944  12.690  11.383  0.0421 -0.1499  0.1264
32565W        W47696   0.071  14.122   5.851 -0.0641  0.2687 -0.1446
32566W        W47697  17.587   4.915   0.831 -0.1463  0.3833  0.1272
32567W        W47698   1.016   1.428   0.116  0.1140  0.0078 -0.1440
32568W        W47699   9.156   8.904  12.117  0.2097  0.1495 -0.0941
32569W        W47700  17.473   9.484  11.000  0.1214  0.2708  0.2640
32570W        W47701   0.503  16.009   3.321 -0.0789  0.0562  0.0003
32571W        W47702   2.241  15.855   4.255  0.1230 -0.0321 -0.0984
32572W        W47703   0.138  13.468   0.686  0.1487 -0.1963  0.1699
32573W        W47704  14.327   9.777   3.767 -0.0261  0.1183  0.0026
32574W        W47705   8.896  12.208   5.020 -0.1444 -0.0006 -0.0203
32575W        W47706   7.854   9.383  15.565 -0.0496 -0.0215 -0.1550
32576W        W47707   5.578   9.859   4.158 -0.1117 -0.0172 -0.1252
32577W        W47708  16.871  16.352   1.772  0.0145 -0.2368 -0.2175
32578W        W47709  10.602  13.123   4.097 -0.0212 -0.1370 -0.1940
32579W        W47710  11.494  11.898  14.705  0.0966  0.2054  0.0513
32580W        W47711  14.373   7.234  12.760 -0.3643  0.2554 -0.2919
32581W        W47712   0.415  10.130   2.927 -0.3740 -0.2026  0.0395
32582W        W47713  11.192   7.287   3.106 -0.2737  0.2413 -0.1015
32583W        W47714  14.537   3.439   5.389  0.1765  0.4013 -0.2292
32584W        W47715   8.111  17.117   2.132 -0.2620 -0.1562 -0.3272
32585W        W47716   3.366   2.996   2.917  0.1194 -0.2011 -0.0834
32586W        W47717   1.418   3.714   2.829 -0.3135 -0.2236  0.3233
32587W        W47718  15.741   7.517  12.866 -0.2355 -0.0076  0.0116
32588W        W47719   3.972  10.737  11.193  0.1576 -0.0337 -0.1862
32589W        W47720   4.902   2.401  11.539 -0.0471 -0.3453 -0.2368
32590W        W47721  11.134   2.453  15.015  0.0811 -0.2484  0.0488
32591W        W47722  12.695  10.292   3.067 -0.0494  0.0192  0.0455
32592W        W47723  15.061  14.646   5.013  0.0237  0.2299 -0.3313
32593W        W47724   2.066  10.650  15.348  0.0925  0.3758  0.3780
32594W        W47725  14.733   4.065   3.353  0.1894  0.1490 -0.1185
32595W        W47726   5.428   0.638   0.147  0.0265 -0.0969 -0.0621
32596W        W47727  11.155   1.243  11.095 -0.1909 -0.0872 -0.1185
32597W        W47728   7.416  10.906   1.976 -0.4101 -0.0588  0.1109
32598W        W47729   3.070  15.925   4.649 -0.1620 -0.0085 -0.1143
32599W        W47730  11.993   7.261   4.567  0.1367 -0.3479  0.0234
32600W        W47731   0.888  10.660  15.850 -0.3872  0.1270 -0.0100
32601W        W47732  13.049   4.198  15.730  0.0699 -0.0548 -0.3796
32602W        W47733   5.187   1.244   3.452  0.0597 -0.1096 -0.0999
32603W        W47734   1.131  13.816  13.762 -0.0643 -0.4570  0.3345
32604W        W47735   9.236  12.805  13.365  0.1497  0.1016  0.0438
32605W        W47736   8.548   3.843  12.300 -0.0972  0.1666  0.1599
32606W        W47737   0.691   2.648   5.091  0.0367  0.0881 -0.1732
32607W        W47738  11.829  10.767  13.657  0.1583 -0.0352 -0.4267
32608W        W47739   5.923   9.165  12.416 -0.0101  0.1756 -0.0382
32609W        W47740  12.108  17.210  13.321  0.0938 -0.1133  0.1884
32610W        W47741  10.579  12.577   3.374 -0.1499  0.1862 -0.1864
32611W        W47742   0.961  18.048  12.681 -0.1003 -0.1363 -0.1317
32612W        W47743   7.945   9.712   0.626  0.0448 -0.0113  0.1489
32613W        W47744  11.017   8.072  12.250  0.1993  0.1693 -0.0331
32614W        W47745   0.698  12.061   0.259  0.2353 -0.2248 -0.0840
32615W        W47746  16.279  10.197  15.286  0.2194 -0.1754  0.1764
32616W        W47747   0.403   6.173   3.438  0.2100 -0.2695  0.1818
32617W        W47748  13.500  11.731  11.784  0.1480  0.0819 -0.2306
32618W        W47749  17.837   1.131  14.497  0.1240 -0.2760  0.0991
32619W        W47750  10.369  14.638   4.722 -0.1145  0.2001 -0.2890
32620W        W47751  17.842   5.300  11.858 -0.2444  0.2105 -0.2964
32621W        W47752   4.352  15.686  14.506  0.0601 -0.0717 -0.2081
32622W        W47753  17.149   4.728  13.998  0.2695  0.1074  0.0216
32623W        W47754   5.932   1.349  15.426 -0.1986 -0.0861  0.0174
32624W        W47755  12.185   4.201  14.635  0.0509 -0.0168 -0.2371
32625W        W47756  14.963  16.147   2.155  0.0140  0.0589 -0.2260
32626W        W47757  16.064   9.250   2.408 -0.1768 -0.1923  0.0983
32627W        W47758  12.009   8.226  15.795  0.0083  0.2676  0.0312
32628W        W47759   2.680  12.069  13.832  0.0086  0.0173 -0.1156
32629W        W47760  10.497   7.834   2.692 -0.0685 -0.0185 -0.2061
32630W        W47761  16.358   6.365   5.490  0.2168  0.0734  0.2046
32631W        W47762   3.672   2.372   1.453  0.1876 -0.1510  0.2235
32632W        W47763   3.496   1.163   1.342 -0.0412  0.1435 -0.2082
32633W        W47764  12.492  16.940  13.507  0.0752  0.1847  0.2962
32634W        W47765   7.612   8.153   4.454 -0.0071  0.1479 -0.0084
32635W        W47766  10.546  13.314   4.843 -0.1981 -0.0430 -0.0585
32636W        W47767  11.252   4.267  14.588  0.2456 -0.1601 -0.1604
32637W        W47768   1.984  17.356  11.253 -0.0203 -0.1591 -0.0085
32638W        W47769  16.222  17.268   5.129  0.0964 -0.4020  0.4867
32639W        W47770   4.950   1.742  12.747  0.0925 -0.2304  0.1714
32640W        W47771  12.185  12.287  14.342  0.1092  0.3491  0.1728
32641W        W47772  16.326  14.909   3.171  0.1299 -0.0440 -0.0127
32642W        W47773   4.025   7.006  15.443 -0.3420 -0.1389 -0.3570
32643W        W47774   5.756  13.033   4.200  0.2399  0.0819 -0.3173
32644W        W47775  15.962  10.548  14.983 -0.0964 -0.1591  0.2734
32645W        W47776   2.438  15.932  13.521  0.0492 -0.0866  0.2073
32646W        W47777   6.604  15.168   4.451 -0.0199 -0.0414 -0.0131
32647W        W47778   1.171  10.640   2.819 -0.0222  0.0534 -0.2867
32648W        W47779  15.314   2.274  16.008 -0.0419 -0.0458  0.0725
32649W        W47780  13.125  11.469   2.965 -0.0399  0.0038  0.3930
32650W        W47781  15.581  18.275  12.174  0.0634  0.1128  0.2202
32651W        W47782   4.265  12.607  13.627 -0.0127  0.1617  0.0972
32652W        W47783   3.931   9.576   4.672 -0.1820  0.0809  0.2394
32653W        W47784   2.714  14.250   3.771  0.2600  0.0763 -0.0260
32654W        W47785  16.109  14.511   2.910 -0.1521 -0.2024 -0.0854
32655W        W47786  15.407  16.952   3.169 -0.2944 -0.1046 -0.0729
32656W        W47787  10.592  10.147   4.208  0.0050 -0.1375  0.3070
32657W        W47788  12.981   5.531   2.074  0.1437  0.1156  0.0803
32658W        W47789   8.996  12.480   4.609 -0.0217 -0.0447  0.2772
32659W        W47790   2.504   8.818  12.871 -0.2957  0.1109 -0.0095
32660W        W47791   7.738  13.818   1.433  0.0948  0.0860  0.0047
32661W        W47792   9.963   7.339   0.764  0.0951  0.2398  0.1598
32662W        W47793  16.476   8.629   0.214  0.0551  0.1690 -0.0443
32663W        W47794  15.577   8.917  12.026 -0.0414 -0.2651  0.1003
32664W        W47795   4.440   5.357   0.524 -0.2065 -0.0322  0.0552
32665W        W47796  12.315   9.061  10.998 -0.1947 -0.0705  0.0485
32666W        W47797  10.041   9.424  12.820  0.0769 -0.0755  0.1542
32667W        W47798   6.735   8.137  13.971 -0.3205 -0.3065 -0.1732
32668W        W47799   3.231   2.818  11.867  0.0860 -0.1724 -0.0724
32669W        W47800   7.397  14.208  12.582 -0.2917  0.2976  0.1280
32670W        W47801   0.017  11.845   3.079  0.2154 -0.2652  0.1761
32671W        W47802   2.587   4.487  14.097  0.1977 -0.0942  0.2323
32672W        W47803  12.663   8.982  14.303  0.1855 -0.0234  0.4101
32673W        W47804   9.233   7.873   3.696  0.1726 -0.0519 -0.2330
32674W        W47805   1.985   9.785  15.731 -0.4415  0.0802  0.0078
32675W        W47806   6.987   3.159  15.196 -0.0748  0.0076 -0.1147
32676W        W47807  14.659  17.817   0.142  0.1802 -0.0006  0.0210
32677W        W47808   0.151   5.434  14.562  0.0125 -0.1155 -0.0948
32678W        W47809   2.076  13.346   0.758 -0.0685 -0.1796 -0.0362
32679W        W47810   4.177  15.369   1.891 -0.1302  0.1656  0.1997
32680W        W47811   3.998  10.063   0.962  0.0196  0.0493  0.2237
32681W        W47812  12.225  15.819   0.386 -0.3232  0.1302  0.1112
32682W        W47813  14.903  13.297  14.875 -0.0216  0.0615 -0.1362
32683W        W47814  17.749   7.202  11.733  0.0647 -0.0279  0.3129
32684W        W47815   0.205   7.022  10.055 -0.2235  0.0712  0.0467
32685W        W47816  17.534   3.717   5.514 -0.0187 -0.2108 -0.0182
32686W        W47817   0.843  15.209   4.532  0.2441  0.1717  0.0673
32687W        W47818   8.729   8.653   9.730  0.0970 -0.0591 -0.3695
32688W        W47819   1.887   0.686  13.619  0.4010  0.0199 -0.0553
32689W        W47820   6.624  10.751   0.588  0.0568 -0.0767  0.2031
32690W        W47821   2.905   5.435  11.297  0.1451 -0.1907 -0.1572
32691W        W47822   3.287  10.858  11.711 -0.0882 -0.0710 -0.1575
32692W        W47823  15.060  13.137   0.655 -0.2126  0.1095 -0.1595
32693W        W47824   5.570   1.554   3.595 -0.2201  0.4793 -0.2975
32694W        W47825   3.142   8.025  14.759  0.0222  0.0733 -0.3266
32695W        W47826   6.888   2.102   5.074  0.2065 -0.2847 -0.0468
32696W        W47827  11.115   8.873  13.124 -0.0930  0.0048  0.0942
32697W        W47828  18.073   3.918  14.705  0.1856  0.1517 -0.1890
32698W        W47829   3.883   1.990  11.739 -0.0167 -0.1017  0.1172
32699W        W47830  12.543   3.764  15.784 -0.2365  0.0008 -0.0075
32700W        W47831   0.421   5.033  14.457 -0.4355  0.1318 -0.2439
32701W        W47832   3.422  13.828   1.663 -0.0689 -0.1674  0.1014
32702W        W47833   1.737  18.060   3.163 -0.0265 -0.1371  0.1063
32703W        W47834   9.307  15.090   2.768  0.1194 -0.1578  0.3043
32704W        W47835  13.919   5.982  11.511  0.1948 -0.0521  0.1203
32705W        W47836  17.540  12.837  13.750  0.3677  0.1001 -0.0966
32706W        W47837   8.107   7.576   4.071  0.1927  0.1351 -0.1206
32707W        W47838  11.176  15.014   2.238  0.3308 -0.1307 -0.2337
32708W        W47839   2.577   1.662   3.032 -0.6504  0.2189 -0.1320
32709W        W47840   6.987  13.099  12.424  0.2578  0.1457  0.1536
32710W        W47841   2.486  16.429   5.192 -0.2218  0.0010  0.1211
32711W        W47842  15.557  15.287   2.699  0.1053 -0.1716  0.2555
32712W        W47843  13.330   3.273   3.067  0.0258  0.0993  0.0203
32713W        W47844   3.784   4.440   4.762 -0.1352  0.0443 -0.1384
32714W        W47845  13.792  10.172   0.366 -0.1134 -0.0555  0.3081
32715W        W47846   1.565   1.763   3.218  0.3273  0.0921  0.1201
32716W        W47847   6.299   8.824  15.402 -0.5700 -0.0759 -0.0250
32717W        W47848  10.488   8.187   1.533 -0.0950  0.0264 -0.1184
32718W        W47849  16.275   0.513   0.777 -0.2697 -0.1563 -0.1611
32719W        W47850  17.708   2.942  14.983  0.0069  0.1450 -0.0835
32720W        W47851  12.546  13.511   0.044 -0.0344 -0.2186 -0.1273
32721W        W47852  17.014   2.856   2.460  0.0028 -0.2116 -0.2852
32722W        W47853   3.353  13.732   5.651 -0.1018  0.1706 -0.1367
32723W        W47854   2.302  14.772  12.746 -0.0866  0.1799  0.0119
32724W        W47855  11.240  16.235  12.127  0.0570  0.0291 -0.1426
32725W        W47856  18.245  10.223   2.722 -0.0229 -0.0422 -0.1706
32726W        W47857   2.900   9.285   2.717 -0.0988 -0.1303 -0.1472
32727W        W47858   2.798  14.394   1.216  0.0624 -0.0157  0.1224
32728W        W47859   4.437  13.906   3.531 -0.1655 -0.1475  0.0364
32729W        W47860  12.375   7.343   5.000 -0.3374 -0.2388 -0.1318
32730W        W47861  11.459  17.539  13.995  0.4252 -0.0038 -0.4080
32731W        W47862   4.888   1.890   0.603  0.0504  0.0135  0.2430
32732W        W47863  11.824  15.794  10.115  0.1569 -0.1996 -0.1205
32733W        W47864  14.539  13.153  11.746 -0.1636 -0.1000  0.0883
32734W        W47865   6.940   0.524   5.567  0.1387  0.3102  0.1192
32735W        W47866   1.755  14.705  13.999 -0.0627  0.0145 -0.0061
32736W        W47867   0.738   9.149   4.760  0.0062  0.3623 -0.1101
32737W        W47868  10.450  16.626  15.022 -0.2897 -0.3265  0.0342
32738W        W47869   5.125   7.606   3.865 -0.1107 -0.0112  0.0117
32739W        W47870  13.200   7.974  13.172 -0.0095 -0.0668 -0.1607
32740W        W47871   2.115  13.948  10.406  0.0778 -0.0569 -0.0783
32741W        W47872   9.254   8.884   0.629 -0.1561 -0.1586 -0.1983
32742W        W47873   3.370   8.771  12.244  0.2895  0.2848  0.1082
32743W        W47874   4.243  17.910  11.520  0.1820 -0.0550 -0.0647
32744W        W47875  16.437  17.091   1.221  0.0396 -0.2946  0.2031
32745W        W47876   6.635   9.746  13.619  0.2095  0.0664  0.0024
32746W        W47877  11.792  13.215  15.203  0.0942 -0.0230  0.1461
32747W        W47878  15.350  17.469   4.324 -0.0868 -0.2949  0.0306
32748W        W47879  12.909   2.355   3.227  0.1653  0.2453 -0.0765
32749W        W47880  12.381  16.568   4.143  0.1726 -0.0511  0.0309
32750W        W47881  17.048   1.890   1.004  0.0066 -0.2036  0.0584
32751W        W47882   8.976  10.355  11.938  0.0398 -0.2812  0.2100
32752W        W47883  13.825  13.702   4.600 -0.0482  0.2838  0.0703
32753W        W47884   7.885  16.372   4.759 -0.1238  0.1245 -0.0906
32754W        W47885   1.599   3.979   0.673  0.3725 -0.0266 -0.2840
32755W        W47886  13.849  13.679  12.304  0.0523 -0.0356 -0.2092
32756W        W47887   7.165  17.112   0.940  0.0790  0.1713  0.0383
32757W        W47888  11.931   8.317   3.143 -0.0498  0.3574  0.4442
32758W        W47889   2.468  16.062  12.670  0.1308  0.2636 -0.2188
32759W        W47890  18.026  11.996   5.385 -0.2307  0.3169 -0.1988
32760W        W47891  13.621   0.323   2.886  0.2341 -0.0139 -0.0035
32761W        W47892  11.914  16.041   1.607 -0.0363  0.1189  0.1833
32762W        W47893  11.374  13.804   1.730  0.2436  0.0999  0.0308
32763W        W47894   2.049  18.294  15.766  0.2805  0.1384 -0.1220
32764W        W47895   1.733  16.193   0.457  0.0096 -0.0551  0.1093
32765W        W47896  14.571   3.428  13.516  0.1233 -0.3126  0.2797
32766W        W47897  14.361   1.469   6.062 -0.3535  0.1843  0.0481
32767W        W47898   3.266   1.594   4.712 -0.1026 -0.0143  0.2187
32768W        W47899   9.029  16.082  13.865  0.5609  0.2349 -0.2327
32769W        W47900  14.191   8.268  14.881  0.1594 -0.0388  0.1270
32770W        W47901  15.460  11.082  11.182  0.2951  0.0401 -0.2262
32771W        W47902  11.839  17.106  11.907  0.0904 -0.1954  0.3219
32772W        W47903  16.255   3.987   2.192 -0.0693 -0.0366  0.1040
32773W        W47904  11.917   6.152   2.483  0.0906  0.4117 -0.1243
32774W        W47905   8.086  10.368  13.255  0.1302  0.0186  0.3503
32775W        W47906  15.104  17.909  12.063 -0.0957  0.0335 -0.3470
32776W        W47907   8.731   5.698  11.613  0.1695 -0.0072  0.2274
32777W        W47908   5.618  12.460   4.531 -0.1246 -0.0039  0.3645
32778W        W47909   9.090   3.104   2.200  0.0475 -0.1401  0.3916
32779W        W47910   6.794  12.038  13.975  0.4876 -0.0373  0.0404
32780W        W47911   3.071   2.043  12.382 -0.3938 -0.0278  0.2547
32781W        W47912   5.036   0.275  15.558 -0.1501  0.1413  0.0043
32782W        W47913  12.462   4.157  14.166 -0.2566 -0.1465 -0.4196
32783W        W47914   7.088   5.861   1.274  0.0130 -0.0204  0.1225
32784W        W47915  11.628   4.562   3.661 -0.1535 -0.0817  0.2827
32785W        W47916   5.700   7.104  15.572 -0.0133  0.0830 -0.0732
32786W        W47917  12.918  15.489  15.769  0.0710 -0.1025 -0.1582
32787W        W47918   3.465   7.584   3.596  0.2249 -0.0294  0.0014
32788W        W47919   7.154   4.903  10.952  0.0301 -0.3205  0.1431
32789W        W47920  14.808   1.156   3.749 -0.1051 -0.0337  0.0601
32790W        W47921   2.213   3.938  10.032  0.0388  0.0073  0.2983
32791W        W47922   3.698   7.868   3.957 -0.3997  0.0350  0.2102
32792W        W47923   9.512   2.013  11.487 -0.1590 -0.3171  0.0768
32793W        W47924   4.559   2.079   2.473  0.0231 -0.0141 -0.0519
32794W        W47925   9.076  15.068  12.886  0.1319  0.0868  0.0352
32795W        W47926  14.567  13.738  15.033  0.0238  0.0471  0.3366
32796W        W47927  13.749  14.108  11.962 -0.1336 -0.2744 -0.3295
32797W        W47928   1.174  15.504  14.005  0.1373 -0.3604 -0.2350
32798W        W47929  10.355   0.840  11.527 -0.0893 -0.1192  0.2345
32799W        W47930  13.596   6.235   3.908 -0.0735  0.1230  0.0880
32800W        W47931   2.562  12.589   4.411 -0.1990 -0.2280  0.2117
32801W        W47932  17.258   5.691  12.683  0.0558  0.2498  0.1627
32802W        W47933   6.791   5.136   3.517  0.0356  0.2388  0.0134
32803W        W47934   6.304   6.425  11.362 -0.0962  0.3395 -0.1272
32804W        W47935   2.612  12.665   1.618 -0.3222  0.1469  0.0576
32805W        W47936  16.768   5.609   2.920 -0.0299 -0.4770 -0.0001
32806W        W47937   2.690  10.462  13.935  0.2618  0.0022 -0.0276
32807W        W47938   0.793  14.497  10.346  0.2940 -0.4956  0.1646
32808W        W47939  18.292   4.550   3.465  0.0447 -0.0006 -0.4424
32809W        W47940   1.855   6.199   0.523 -0.2770 -0.0532 -0.0071
32810W        W47941  11.302   8.854   2.379 -0.0533 -0.1928  0.1405
32811W        W47942   9.434  17.100  10.523  0.0064 -0.0792  0.0339
32812W        W47943  10.518  12.052  12.142 -0.2212  0.1957  0.1576
32813W        W47944  16.195  12.064   3.917  0.1907  0.1888 -0.2337
32814W        W47945   4.404   1.077   3.100  0.2231 -0.2177  0.1371
32815W        W47946  16.417  14.780   2.642  0.2236 -0.3474  0.0544
32816W        W47947  17.408  10.509  11.821  0.0271 -0.3574 -0.2145
32817W        W47948   1.184  16.565  14.918  0.0916  0.1537 -0.0845
32818W        W47949   9.202   1.170   2.785  0.3413 -0.0867 -0.0552
32819W        W47950  10.308   8.661  13.350  0.3642  0.2664  0.1586
32820W        W47951  10.194  13.856   1.660  0.2119 -0.0842  0.0229
32821W        W47952   9.336   5.864   6.194 -0.1429  0.1518  0.3986
32822W        W47953  17.504   1.482  12.163  0.0076 -0.0882  0.0967
32823W        W47954   7.498   9.983   0.711  0.1462 -0.1400 -0.0313
32824W        W47955   8.887  16.213   1.940 -0.0092  0.0947 -0.0644
32825W        W47956   6.195   1.529  14.816  0.0391  0.1500  0.1377
32826W        W47957   7.089   3.033  13.124  0.0066 -0.0253 -0.2477
32827W        W47958   3.801   5.327   3.696 -0.0484  0.1010 -0.0399
32828W        W47959  14.813  16.830   5.360  0.1470 -0.1398  0.1496
32829W        W47960  10.605  12.980   0.145  0.0205  0.1238  0.3234
32830W        W47961   1.172  10.401   3.612  0.0940 -0.1719 -0.1358
32831W        W47962  16.728   0.760   4.740  0.0150 -0.1944 -0.1756
32832W        W47963  12.553  11.093   2.323  0.0111 -0.1305 -0.0496
32833W        W47964  10.411  10.360  12.613  0.1011  0.0139 -0.1284
32834W        W47965   4.755   4.527   5.063 -0.1267  0.0574  0.0067
32835W        W47966   5.656  16.216   2.027  0.0324 -0.0120  0.0521
32836W        W47967  12.473  11.856  13.841 -0.1917  0.1417 -0.0279
32837W        W47968  13.928   8.155  14.478 -0.1132 -0.0064  0.0006
32838W        W47969   9.181  10.675   4.678  0.2256  0.3841 -0.1914
32839W        W47970   6.958  12.305   5.046 -0.2107 -0.3956  0.2198
32840W        W47971   6.539  12.164   4.183 -0.2187  0.0967  0.2025
32841W        W47972   2.585  14.460   3.267 -0.2304  0.0742  0.2043
32842W        W47973   9.753   5.686   3.394 -0.0040 -0.1036 -0.0140
32843W        W47974   9.822   2.713  11.897  0.3650 -0.1704  0.0158
32844W        W47975  17.140   0.709   2.594 -0.1945  0.1534 -0.0151
32845W        W47976   1.578   3.518   3.364  0.0308  0.0800  0.0586
32846W        W47977   8.893  10.262  15.426  0.1741  0.0695 -0.1095
32847W        W47978  11.695   4.397   5.330  0.1014 -0.0468 -0.0590
32848W        W47979   8.075   3.759   0.368 -0.0339 -0.1079  0.1030
32849W        W47980   9.144  14.729   3.128  0.3607 -0.1920 -0.0247
32850W        W47981  13.549   7.687   0.126  0.2318  0.1836  0.3165
32851W        W47982   4.381   8.077   4.153  0.0646 -0.1665  0.1335
32852W        W47983  16.019  17.508  15.887  0.0032 -0.2489  0.3101
32853W        W47984   7.972  16.501   1.610 -0.0890  0.0580 -0.1206
32854W        W47985   4.539  18.125   0.974  0.1386 -0.1232  0.2163
32855W        W47986  13.971   4.495   0.739 -0.1454 -0.0918  0.0437
32856W        W47987  16.502   3.287  12.871 -0.0866 -0.1248 -0.1047
32857W        W47988   3.545  13.321  16.063  0.0212  0.4646  0.0974
32858W        W47989  11.266  15.730  12.049  0.0108 -0.1431 -0.0970
32859W        W47990  11.750  16.157   3.747 -0.2468 -0.3413 -0.1256
32860W        W47991   4.454  11.180   2.876  0.1035 -0.3064  0.1256
32861W        W47992  11.225  10.079  10.644  0.2763 -0.1745  0.2302
32862W        W47993  11.534  16.175  13.809  0.1961  0.1914  0.1379
32863W        W47994   5.571   7.656  14.551 -0.0017 -0.1450 -0.2274
32864W        W47995   0.659  14.333   0.193 -0.2176  0.0080 -0.4306
32865W        W47996   2.668   7.204  15.700  0.0792 -0.2316  0.2473
32866W        W47997   4.212  16.759  12.825  0.0237 -0.1502  0.1238
32867W        W47998   4.599  17.425   0.289 -0.1224 -0.0414  0.2864
32868W        W47999   8.844  12.337  12.851  0.3431 -0.1695 -0.0110
32869W        W48000  12.477   6.919   3.386 -0.2059 -0.1771  0.0515
32870W        W48001  14.546  17.779   2.352  0.1564 -0.0435 -0.3646
32871W        W48002   6.899  13.851  12.383  0.2766 -0.1623 -0.1751
32872W        W48003  11.404  12.814   3.684 -0.0092 -0.0122 -0.2293
32873W        W48004   0.056  13.511   2.377  0.2098 -0.1169  0.0927
32874W        W48005   9.232  11.548   3.388  0.1282 -0.2048  0.1389
32875W        W48006   3.534   1.583  10.913 -0.2332 -0.0350  0.0775
32876W        W48007   8.733  17.514  13.466  0.0889 -0.0886  0.0167
32877W        W48008  15.586   9.488  15.651  0.1764 -0.2262 -0.0079
32878W        W48009   6.722   2.314  15.734  0.1743 -0.0669 -0.1104
32879W        W48010  13.850  13.426   3.136  0.1387  0.3689  0.1539
32880W        W48011  13.809   2.470   0.762 -0.2365  0.2810  0.2376
32881W        W48012   3.318  12.234   4.685 -0.1270  0.1702  0.3117
32882W        W48013   2.320   6.727  11.852 -0.0757 -0.1140 -0.1343
32883W        W48014  15.281  16.841   5.444  0.0210  0.1034 -0.0807
32884W        W48015  10.160  15.383  15.612 -0.4749  0.1315  0.0189
32885W        W48016   5.768   7.917   0.971  0.2909 -0.0975 -0.1507
32886W        W48017  10.591  16.575   0.398 -0.0556 -0.1010 -0.0233
32887W        W48018   7.217   1.615   5.330  0.0079  0.1744  0.0009
32888W        W48019   1.688  10.954   5.245 -0.0969  0.2380  0.0080
32889W        W48020   9.686   6.995  15.240  0.2881  0.2053 -0.2536
32890W        W48021   1.549  12.593   4.468  0.5092 -0.1293 -0.3843
32891W        W48022   7.080   0.255   2.583 -0.0673  0.0691 -0.1338
32892W        W48023   2.644  13.110   5.669 -0.0603  0.2795 -0.0910
32893W        W48024   7.979   1.387   6.363 -0.0484  0.1148 -0.0687
32894W        W48025  11.909   3.591   5.167  0.1533 -0.0944 -0.0932
32895W        W48026   3.481   9.201  11.583 -0.3420 -0.1321  0.3348
32896W        W48027   1.981  11.950   1.908  0.1137 -0.5556 -0.2844
32897W        W48028  14.103  13.807   3.322  0.1954  0.1170  0.1696
32898W        W48029   7.229  12.145  13.640  0.0774 -0.3723 -0.2090
32899W        W48030  16.877   7.556   1.970  0.2350  0.1551 -0.0375
32900W        W48031  16.854   6.718  12.353  0.0683  0.0106 -0.0651
32901W        W48032  10.159   7.235   5.762  0.0675  0.1464  0.0722
32902W        W48033  12.250   8.638  13.584 -0.0204  0.1306 -0.0979
32903W        W48034  16.828  12.703   1.481 -0.1575 -0.1895  0.0293
32904W        W48035  10.920  17.976  11.677  0.1134 -0.1261  0.0259
32905W        W48036   9.779   2.659  10.975 -0.0425 -0.0607  0.0016
32906W        W48037  15.559   1.030  11.836 -0.0900 -0.2862 -0.0826
32907W        W48038   0.505  15.784   3.823 -0.1051 -0.0854  0.0570
32908W        W48039  11.294   5.277  14.393 -0.1431 -0.1025  0.2131
32909W        W48040  11.543  10.878  14.043  0.1479  0.2283 -0.1709
32910W        W48041  14.513   8.055  10.911 -0.2498 -0.3197  0.1390
32911W        W48042   5.337   7.487  15.799 -0.0108 -0.0686 -0.0546
32912W        W48043   4.625   7.101  11.970  0.1572 -0.0211  0.0626
32913W        W48044   4.436   3.601  14.020  0.2592  0.1613  0.1154
32914W        W48045   0.456  14.888  15.227  0.0381 -0.2119 -0.2105
32915W        W48046   3.758   5.280   1.178 -0.0262  0.2049  0.1419
32916W        W48047   6.080   0.230   5.415 -0.1611 -0.1854  0.0306
32917W        W48048   0.274   1.665  11.212  0.2358 -0.2863 -0.2277
32918W        W48049  16.621   2.131  12.270  0.0002  0.0625  0.1317
32919W        W48050  17.966   4.676   2.103 -0.2406 -0.1601  0.0608
32920W        W48051   1.700   2.699   3.876 -0.0130  0.0201 -0.0563
32921W        W48052  16.779   4.900   0.715  0.0103  0.1909 -0.1229
32922W        W48053   9.782  18.180  12.376  0.0069 -0.0907 -0.0322
32923W        W48054   6.398  15.498   2.806  0.0104  0.2713  0.4910
32924W        W48055  12.810  18.309   0.805 -0.0920  0.4848 -0.1323
32925W        W48056  18.098  13.158   0.462  0.0357  0.0323 -0.0179
32926W        W48057   3.125   1.468  12.215 -0.0344 -0.1164 -0.2091
32927W        W48058  14.347   2.941  13.589  0.2754 -0.0289 -0.4442
32928W        W48059   7.390   3.778  12.418  0.2097 -0.2186 -0.1070
32929W        W48060   8.746  14.687   1.736 -0.1662 -0.0947  0.1550
32930W        W48061   7.250   3.276  10.309  0.0554  0.2463  0.1895
32931W        W48062   9.156   9.471  14.481 -0.2218  0.1408  0.1240
32932W        W48063   3.989  14.583  11.416  0.2349  0.0092  0.0734
32933W        W48064  10.489   0.605   4.338  0.2313 -0.2203  0.4259
32934W        W48065  15.424  17.316   5.575  0.0893 -0.2730 -0.1410
32935W        W48066  10.255   7.671   4.255 -0.0476 -0.0643 -0.0667
32936W        W48067   0.411   2.266  12.062 -0.0950 -0.0209 -0.2860
32937W        W48068   8.747   0.579  11.284 -0.1671 -0.1045  0.2043
32938W        W48069   9.206   9.660   2.726  0.2672  0.0118  0.1963
32939W        W48070   8.814  15.486  10.074  0.1381  0.1517  0.3179
32940W        W48071  17.216   5.931   4.168  0.4618  0.0576  0.0403
32941W        W48072  17.816   8.593  12.528 -0.2884  0.0512 -0.0876
32942W        W48073   7.732  17.317  11.625 -0.1390 -0.2747 -0.0322
32943W        W48074   2.222  14.193  14.685 -0.0832 -0.0862  0.0284
32944W        W48075  11.979   7.484   3.628  0.1606 -0.0640  0.1492
32945W        W48076   8.505   9.085   3.082 -0.0535  0.0692  0.1170
32946W        W48077  11.177   7.262  14.684 -0.2212 -0.0049  0.0166
32947W        W48078   1.255   4.926  14.242 -0.0332 -0.4219  0.2272
32948W        W48079  15.471  16.143   3.739 -0.1601 -0.1767  0.0977
32949W        W48080   6.519   9.807   0.406  0.0214 -0.0277 -0.0839
32950W        W48081   0.221   0.247  13.044  0.0486 -0.1301 -0.0806
32951W        W48082  16.487   0.843   3.373  0.1054  0.1186 -0.3250
32952W        W48083   4.279  14.142   3.040  0.0544 -0.0105  0.2125
32953W        W48084  15.449  11.596   0.737  0.3607  0.0801  0.2451
32954W        W48085   5.149   0.200  13.666  0.0046  0.0416  0.1642
32955W        W48086   0.404   5.468  13.295  0.3196  0.0970  0.1651
32956W        W48087   7.099  14.507  13.421  0.0183  0.0403  0.3549
32957W        W48088  12.196   0.420   3.015  0.1159 -0.1757 -0.0300
32958W        W48089   0.315   7.774  14.178  0.2908 -0.0901  0.0580
32959W        W48090   4.493   8.643   3.196  0.3064  0.0297  0.0700
32960W        W48091  13.941  16.661  11.017 -0.1339 -0.0199 -0.0972
32961W        W48092   9.842   9.822   0.044  0.2908  0.0767  0.2397
32962W        W48093   6.357  12.104  13.374  0.1470  0.3091  0.1691
32963W        W48094   2.221  10.893   3.016  0.1833 -0.1374  0.0495
32964W        W48095   2.481  17.231   2.757  0.1345 -0.1174  0.4871
32965W        W48096  16.495  12.731  12.217 -0.1909  0.1244 -0.0472
32966W        W48097  18.027  13.904   2.789  0.1862  0.0697  0.0996
32967W        W48098  11.338   8.577   1.855 -0.0673 -0.0837 -0.0545
32968W        W48099   0.206   8.302   4.995 -0.1818 -0.1879 -0.0034
32969W        W48100   2.567  14.925  10.663  0.0070  0.1615 -0.1243
32970W        W48101  13.644   0.058  10.983  0.3590 -0.1843 -0.2089
32971W        W48102   2.025  16.272  12.917 -0.2658  0.3995 -0.0409
32972W        W48103  18.006   3.202  12.813  0.1515 -0.0547  0.3485
32973W        W48104   8.633   0.208   0.534  0.3089  0.0852 -0.0652
32974W        W48105   0.933   9.421  13.357 -0.1779  0.1144 -0.0167
32975W        W48106  12.387   3.387  12.450 -0.1205  0.1988 -0.1917
32976W        W48107  14.866  10.537   1.822 -0.1241  0.3933  0.1061
32977W        W48108   4.247   2.658  13.151 -0.2456 -0.0085 -0.0658
32978W        W48109   4.159  15.746   2.793 -0.0271 -0.1531  0.0657
32979W        W48110  11.497   0.489  10.347 -0.1713 -0.1447 -0.0620
32980W        W48111  16.671   2.035   2.386 -0.0328 -0.0844  0.1093
32981W        W48112   8.393   2.315   1.315  0.0938 -0.0116  0.0241
32982W        W48113  16.911  17.526   4.046 -0.0617  0.1415 -0.1499
32983W        W48114   3.036   3.107  11.534  0.0651 -0.3378  0.0609
32984W        W48115   4.733  14.418   0.677  0.1501  0.2837 -0.1511
32985W        W48116  15.004   5.457   5.424  0.1985  0.0160  0.0161
32986W        W48117   5.785  16.632   2.336 -0.3842  0.1415 -0.0111
32987W        W48118  15.144   2.328   5.132 -0.0179  0.1374  0.0649
32988W        W48119  16.043   1.084   1.539 -0.1879 -0.3191 -0.1361
32989W        W48120   0.095  13.951  11.266  0.2147  0.1121 -0.4242
32990W        W48121   8.947  17.154   2.243 -0.0087 -0.4133  0.1058
32991W        W48122  16.093   4.364   2.737 -0.0401 -0.1440 -0.5325
32992W        W48123  12.310   0.301  14.175  0.0456 -0.2456  0.2672
32993W        W48124  13.786  14.543  15.817 -0.1404  0.1719  0.2403
32994W        W48125  13.467  17.081   0.496 -0.0308 -0.1639  0.1437
32995W        W48126   7.982   0.479   2.487 -0.1552 -0.0463 -0.1410
32996W        W48127  13.771   2.012   5.541  0.0809  0.0413 -0.1529
32997W        W48128  15.169   2.533   4.286  0.2234  0.0056  0.1652
32998W        W48129   7.723   3.700  14.045 -0.2066  0.4521 -0.0997
32999W        W48130   5.179   3.048  15.651  0.2765  0.1397 -0.1358
33000W        W48131   0.575  12.216   5.269  0.1352 -0.1879 -0.0857
33001W        W48132   6.877  12.754  15.748  0.3145  0.1397 -0.0905
33002W        W48133   4.715   2.796   4.808  0.1010  0.1754  0.0965
33003W        W48134   0.670   2.519   2.851 -0.1197  0.2064  0.0022
33004W        W48135  14.770  16.533  13.582 -0.1550  0.1211 -0.1066
33005W        W48136   7.110  10.949   4.745  0.1926 -0.3029  0.2442
33006W        W48137  16.740   9.958  13.080 -0.0808  0.0123 -0.1321
33007W        W48138  17.029  18.224  11.357  0.0716 -0.4457 -0.1794
33008W        W48139  11.822   5.438   0.353  0.0310  0.4610  0.1102
33009W        W48140  14.065  11.333  11.098 -0.1422  0.2307  0.2341
33010W        W48141   0.692   1.643   5.391 -0.0816  0.1360  0.3425
33011W        W48142  11.935   4.830  15.121 -0.2663  0.3874 -0.4204
33012W        W48143   9.093   1.710  10.758  0.2469 -0.0875 -0.0829
33013W        W48144  11.333   6.597   0.985  0.1176  0.0927 -0.0048
33014W        W48145  15.004  18.065  15.564  0.0190  0.0824  0.1199
33015W        W48146   4.010   4.098  15.882  0.1667  0.3078 -0.0563
33016W        W48147   8.108   6.867   9.679  0.0829 -0.0784 -0.0717
33017W        W48148   8.643  18.118  15.364  0.1205  0.1469  0.2008
33018W        W48149  14.073   7.205  10.950  0.2978  0.2498 -0.1192
33019W        W48150  13.128  10.207  14.319 -0.2375  0.4016 -0.0219
33020W        W48151  10.905  11.125  14.789  0.3227 -0.2188 -0.1166
33021W        W48152  14.956  17.438  13.238  0.1663  0.1527  0.2001
33022W        W48153  16.415  18.146  15.837  0.0168 -0.0323  0.1858
33023W        W48154   0.736   3.967  12.239  0.1593 -0.0529 -0.0695
33024W        W48155  13.559  14.808  10.648 -0.0342  0.0774  0.0605
33025W        W48156   3.185  12.348   1.025  0.1542  0.1560  0.1746
33026W        W48157  11.942  14.417   2.386  0.0681 -0.0032 -0.1012
33027W        W48158   0.434   0.689   2.554 -0.0015 -0.1833  0.1384
33028W        W48159   0.765   2.705  12.169  0.0672 -0.2648  0.1311
33029W        W48160   2.547  15.927  14.810  0.3286  0.0814 -0.1441
33030W        W48161  11.708   6.610   1.935  0.4371 -0.2972  0.0326
33031W        W48162  11.471   3.783  10.141 -0.0452  0.0044  0.1578
33032W        W48163   0.114   3.239   1.316 -0.0915  0.1151 -0.2760
33033W        W48164  11.258  13.980   1.113 -0.0996  0.3054  0.0146
33034W        W48165   4.290   6.935  14.148 -0.1858 -0.0527  0.0636
33035W        W48166  15.526  15.101  14.531  0.1933  0.0253  0.0804
33036W        W48167   3.475  15.373   3.079  0.2948 -0.1451  0.4002
33037W        W48168  13.519  11.827   3.008 -0.0051 -0.4271 -0.3168
33038W        W48169   6.801  15.929  12.365 -0.3099  0.1611 -0.2767
33039W        W48170  16.862   1.102  14.770  0.2827  0.1150 -0.1205
33040W        W48171  14.396  10.268  12.198  0.1570 -0.0976 -0.2484
33041W        W48172   0.478   2.865  11.100 -0.0629  0.0202  0.2120
33042W        W48173  13.563   5.663  13.763 -0.4128 -0.0341 -0.2535
33043W        W48174   3.872   6.366  12.497 -0.0084  0.3071 -0.0409
33044W        W48175   2.791  11.259  13.321  0.2460 -0.0162 -0.1171
33045W        W48176   2.125   1.932  15.579  0.1384  0.2679  0.1805
33046W        W48177   2.424   4.653   5.308  0.1352 -0.3081 -0.0501
33047W        W48178   3.240   9.411  11.149  0.1439 -0.4740 -0.1359
33048W        W48179  11.285   3.274  14.355  0.1119 -0.2886 -0.0119
33049W        W48180   0.921  12.260  14.678 -0.4605  0.1174  0.2296
33050W        W48181   8.412  13.045  15.692  0.3808  0.1025  0.3187
33051W        W48182   6.468  18.141   1.680  0.0955  0.0064  0.2150
33052W        W48183  12.776  17.241  14.783 -0.0389 -0.1410 -0.0909
33053W        W48184   5.492   0.945   6.062  0.0252 -0.2787 -0.2138
33054W        W48185  12.197   2.115  10.857 -0.0464  0.1047  0.0559
33055W        W48186  17.882   0.237   0.602  0.0376  0.2881  0.3369
33056W        W48187  10.820   2.101   4.609  0.0810 -0.1134  0.3302
33057W        W48188   7.958  12.782   1.571  0.3739 -0.0868 -0.1861
33058W        W48189   6.362   1.621  12.376  0.0268 -0.0989  0.2045
33059W        W48190  16.131  10.920   5.090 -0.0162 -0.1471  0.2796
33060W        W48191  17.214  17.117  15.078  0.0946 -0.0387  0.1386
33061W        W48192   5.949   5.131  11.889  0.0551  0.0509  0.0303
33062W        W48193  12.815   5.333  14.170  0.1117  0.1108 -0.0200
33063W        W48194  12.174  10.680   4.887 -0.1115 -0.0311 -0.0742
33064W        W48195  10.448   0.127   4.499  0.0191  0.0150 -0.1256
33065W        W48196  17.065  13.997  12.363  0.0992 -0.1503 -0.0994
33066W        W48197   3.844  12.923  11.682  0.0052 -0.2532 -0.0767
33067W        W48198   1.267  10.045   2.959 -0.0074  0.0404 -0.1832
33068W        W48199  10.457  17.746  14.078 -0.1441 -0.2073 -0.0755
33069W        W48200   4.912  10.273  11.711 -0.0616 -0.0107  0.1307
33070W        W48201  16.973   8.501  10.840  0.0474 -0.0367  0.0781
33071W        W48202   9.812  17.868   4.577  0.0698  0.1230  0.1744
33072W        W48203  14.872   0.858  13.651 -0.2529  0.0580 -0.2425
33073W        W48204   4.486   3.574  15.405 -0.0034 -0.1160  0.1151
33074W        W48205   9.970   1.220   0.216 -0.0666 -0.1235  0.2495
33075W        W48206  13.321  13.182   0.208  0.2766  0.0652 -0.2500
33076W        W48207  17.011  16.944  15.964 -0.2025 -0.0115 -0.0037
33077W        W48208  16.895   0.387  14.588  0.0579 -0.0796 -0.3596
33078W        W48209   2.170  11.813  12.297 -0.0184  0.1103  0.0601
33079W        W48210  17.044  10.575  12.315  0.0829  0.0419 -0.1306
33080W        W48211  14.765   6.372  12.792 -0.3186 -0.1766 -0.2583
33081W        W48212  14.626  16.934   2.861  0.0551  0.2844  0.2062
33082W        W48213   5.968  15.639   2.582 -0.2603  0.0305  0.1187
33083W        W48214   3.106  15.786  14.480  0.2375 -0.3691 -0.0461
33084W        W48215   7.918   4.648   4.763 -0.2059  0.1119 -0.0055
33085W        W48216  16.956   8.400   1.728  0.0816  0.1233 -0.0965
33086W        W48217  10.605  12.709   4.756  0.4278  0.1282  0.1150
33087W        W48218  13.446   7.367   2.696  0.1631  0.2729  0.0290
33088W        W48219  17.947   4.887   4.837  0.2660 -0.0650  0.3714
33089W        W48220   3.741  17.138   0.628  0.0397  0.0886 -0.0715
33090W        W48221  14.021  17.417  15.081  0.2990 -0.0720 -0.0965
33091W        W48222   1.169   8.406   5.510  0.0065  0.2578  0.1792
33092W        W48223   3.992   3.092  15.456 -0.0745  0.2411  0.1986
33093W        W48224  14.999  14.231   1.359 -0.0470  0.0872 -0.2707
33094W        W48225   2.474   9.360   6.189  0.1240 -0.0866 -0.0682
33095W        W48226   2.173  13.108   3.365 -0.0489 -0.1604  0.0771
33096W        W48227  18.021  13.113  11.147  0.0767  0.1003 -0.4002
33097W        W48228  14.081  14.587   1.503 -0.0945 -0.1447  0.0818
33098W        W48229  17.998   3.697   5.205 -0.0837 -0.0500  0.1139
33099W        W48230  10.322  17.445  12.303 -0.0092 -0.2403 -0.1330
33100W        W48231  11.574   7.921  15.793  0.4948 -0.2963  0.0421
33101W        W48232   6.705  13.309  14.357  0.1839 -0.0480 -0.0570
33102W        W48233   5.680   0.467   3.563  0.0469  0.3114  0.2277
33103W        W48234   9.447   7.510   4.731 -0.0436 -0.0795 -0.1473
33104W        W48235  13.417  10.547   4.576  0.2042  0.0652 -0.0358
33105W        W48236  16.604  10.140   1.021 -0.1111  0.0603  0.3075
33106W        W48237  16.829   9.410   4.436  0.1771 -0.4213 -0.0908
33107W        W48238   5.426   5.578  14.155 -0.2697  0.0845  0.0429
33108W        W48239  17.118  15.880  15.007 -0.2351  0.2067 -0.0702
33109W        W48240   5.102   6.178   4.709  0.1339  0.0522 -0.0244
33110W        W48241   4.356  12.175   1.641  0.1913  0.0453  0.1717
33111W        W48242   2.079  16.892   5.240 -0.1461 -0.0107  0.0046
33112W        W48243   4.623   3.929  11.490  0.2369  0.1996  0.1215
33113W        W48244   3.872  17.393  12.965 -0.0578  0.3873 -0.0595
33114W        W48245  10.766   4.568  11.994  0.0385  0.3308 -0.0248
33115W        W48246   7.974   3.718   5.312  0.0812  0.0677  0.0328
33116W        W48247   8.992  14.363  11.604 -0.0130 -0.0629 -0.1300
33117ION     NA48248  15.528   0.236  10.446  0.0760 -0.4123 -0.0792
33118ION     NA48249   7.906  15.983  15.154  0.1522 -0.1504 -0.0130
33119ION     NA48250   4.397   9.135   9.998  0.1850  0.0150 -0.0482
33120ION     NA48251   9.467   3.744   5.797  0.0781 -0.0583 -0.1433
33121ION     NA48252  10.811   2.139  11.185  0.0455 -0.3504  0.2038
33122ION     NA48253  14.046   2.163  15.378 -0.1368 -0.1793  0.1633
33123ION     NA48254  17.526  17.544   2.025  0.1325  0.0132 -0.1136
33124ION     NA48255   1.265  15.686  15.231  0.0687  0.0072  0.0096
33125ION     NA48256   3.607   4.440  15.659 -0.1807  0.1563 -0.0907
33126ION     NA48257   0.651   7.452  12.792  0.1031  0.1123 -0.1034
33127ION     NA48258   5.180   5.400   2.936 -0.1202 -0.1272 -0.0630
33128ION     NA48259   2.535   5.076   0.888  0.1007 -0.0880  0.0239
33129ION     NA48260  17.021   1.459   3.069  0.2430 -0.3084  0.0103
33130ION     NA48261  13.837   9.541   9.589  0.1023 -0.0220 -0.0192
33131ION     NA48262  13.008   5.449   5.137 -0.0719  0.1984 -0.1174
33132ION     NA48263   2.078   9.842  10.740  0.2300 -0.0142  0.1080
33133ION     NA48264  12.148   0.091  13.091 -0.2576  0.2602  0.2034
33134ION     NA48265  12.450  14.416   2.443  0.2150  0.1264 -0.0188
33135ION     NA48266   3.415   9.082   4.173 -0.0457  0.3800 -0.3217
33136ION     NA48267  14.387   9.240  12.564  0.0147 -0.1163  0.0663
33137ION     NA48268   7.250   5.335   5.694 -0.1705 -0.0630  0.2608
33138ION     NA48269  12.640   7.105   9.873  0.0598  0.0112 -0.2067
33139ION     NA48270   4.056   5.647   5.712  0.2051  0.1707 -0.4445
33140ION     NA48271  10.397  13.333   3.664 -0.1489 -0.0753 -0.0217
33141ION     NA48272  14.804   4.722  10.668  0.0672  0.2261  0.0163
33142ION     NA48273   7.823  11.304   5.749 -0.1090  0.0249 -0.0148
33143ION     NA48274  16.082   3.453  11.545 -0.1918  0.1836  0.1731
33144ION     NA48275  17.177  11.998   3.933 -0.1430 -0.0532  0.3620
33145ION     NA48276   9.690  13.007  11.592  0.3137  0.1365  0.3170
33146ION     NA48277  13.282  12.097   9.971  0.0159 -0.1827 -0.1259
33147ION     NA48278   0.124   3.708   5.676  0.0818 -0.0869 -0.0852
33148ION     NA48279  10.129   5.683   5.746  0.1399 -0.0508  0.2320
33149ION     NA48280  17.089   6.768   5.288 -0.1065  0.0886  0.1088
33150ION     NA48281   7.346  17.509  10.277 -0.1619  0.0769  0.0138
33151ION     NA48282   2.341   4.305  10.554  0.0819 -0.0381 -0.2832
33152ION     NA48283  11.484   9.415   4.230  0.0352  0.0675  0.0674
33153ION     NA48284   9.527   8.554  10.055 -0.0159  0.1881 -0.0881
33154ION     NA48285  13.652   2.934   0.912  0.3926 -0.2082  0.0190
33155ION     NA48286  11.106  12.555   5.814 -0.0821 -0.2706 -0.1212
33156ION     NA48287   4.753   2.979  16.085 -0.2696 -0.1793  0.0881
33157ION     NA48288   3.356  13.108   1.387 -0.1302 -0.1437  0.1075
33158ION     NA48289   6.576  12.415   0.534  0.1376 -0.0221  0.1795
33159ION     NA48290  17.913   1.726   1.696  0.1288  0.0082  0.0625
33160ION     NA48291   9.672  13.927   2.456  0.0204 -0.0663 -0.2029
33161ION     NA48292  10.563  17.289   9.943  0.3095  0.0524 -0.1456
33162ION     NA48293   0.812  13.950   3.624  0.0523 -0.0236 -0.0103
33163ION     NA48294  12.627   9.419  12.709  0.3301  0.0386  0.0001
33164ION     NA48295  16.214   6.039   5.868 -0.0970  0.0518 -0.1832
33165ION     NA48296   3.422   9.891   5.794  0.1648 -0.3024  0.1598
33166ION     NA48297   7.571  14.104   6.546 -0.1869 -0.2032 -0.1682
33167ION     NA48298  12.848   0.363  14.693 -0.1961  0.1277 -0.2268
33168ION     NA48299   0.861  16.628  10.586  0.1387 -0.0711  0.2850
33169ION     NA48300   8.957  16.981  14.662  0.0559  0.1968  0.0396
33170ION     NA48301   3.753   1.297  10.474 -0.1221 -0.0940 -0.1675
33171ION     NA48302   6.017   4.478   2.952 -0.1511  0.0300 -0.0693
33172ION     NA48303   4.089   0.605  14.924  0.1466 -0.1131 -0.3615
33173ION     NA48304  12.133   5.461  14.891 -0.1288 -0.0080  0.1864
33174ION     NA48305   7.270  15.962  12.225  0.0680 -0.1565 -0.1068
33175ION     NA48306  16.986   1.847   6.212  0.0972  0.0787  0.1785
33176ION     NA48307  11.800   6.566   1.145  0.0342  0.1023  0.1176
33177ION     NA48308   6.362  13.443   6.268 -0.3445 -0.0005 -0.1430
33178ION     NA48309   5.358  17.854  10.247 -0.0854  0.1219 -0.1362
33179ION     NA48310  16.057   0.483  10.231  0.0960 -0.0747 -0.0233
33180ION     NA48311  17.524   7.396  10.394  0.1092  0.0973  0.2138
33181ION     NA48312  14.675  15.335   5.901 -0.0580 -0.3479  0.0014
33182ION     NA48313   6.458   3.852   1.146  0.1080 -0.1643 -0.2980
33183ION     NA48314  13.732   7.525   9.972 -0.0400  0.1653  0.1713
33184ION     NA48315   4.464  14.384  10.365  0.1736 -0.0826  0.1926
33185ION     NA48316  13.417  15.642  15.502  0.1136 -0.0079 -0.2265
33186ION     NA48317   2.678  16.934   6.351  0.1641  0.0903  0.2782
33187ION     NA48318   8.020  14.246  10.856 -0.0609 -0.0415  0.1633
33188ION     NA48319   6.479  16.417  15.783  0.1059 -0.0671 -0.2548
33189ION     NA48320  11.833  13.791   2.893  0.0324 -0.1574  0.1209
33190ION     NA48321  15.911   4.935  10.355  0.0355  0.1639 -0.2100
33191ION     NA48322   9.152  11.043   5.652 -0.1797 -0.0617 -0.0677
33192ION     NA48323   5.391   9.754  13.256 -0.1823  0.2863  0.2235
33193ION     NA48324   5.255  10.073  10.156 -0.0726  0.2209 -0.2280
33194ION     NA48325   1.806   4.384   0.625  0.0910 -0.1033  0.3107
33195ION     NA48326   1.354   2.277  10.484  0.0354 -0.2909  0.0353
33196ION     NA48327  10.642  14.640  12.625  0.1449  0.0239 -0.1175
33197ION     NA48328  17.583  11.921  12.802  0.1251  0.2364 -0.0226
33198ION     NA48329   3.937   7.149   0.644 -0.1092  0.0564  0.2906
33199ION     NA48330  17.205   3.819  13.723 -0.1010 -0.2302  0.2120
33200ION     NA48331   4.098   4.879  10.253 -0.1486 -0.1611 -0.1328
33201ION     NA48332   1.663   3.320   6.071  0.0918  0.0342  0.1067
33202ION     NA48333  11.690  15.686   5.703  0.0649 -0.1194  0.1245
33203ION     NA48334  14.692   9.568   9.797  0.2668 -0.0450  0.2900
33204ION     NA48335  14.716  13.462  15.403  0.0296  0.1296 -0.0103
33205ION     NA48336  11.155  16.045   3.077 -0.0831  0.1419  0.0405
33206ION     NA48337   7.852  15.778   3.511 -0.3374  0.0534  0.2356
33207ION     NA48338   5.233   5.164   5.452  0.3179 -0.3177  0.2270
33208ION     NA48339  15.569  18.225   6.144  0.1080 -0.1824 -0.0804
33209ION     NA48340   4.808   6.534   5.719  0.2674 -0.0010  0.0050
33210ION     NA48341  14.307  17.213  10.241 -0.2494  0.2369 -0.0514
33211ION     NA48342   5.835  14.731  10.449  0.5233  0.1806  0.0933
33212ION     NA48343  12.504  10.106  13.447 -0.1764  0.0705 -0.0120
33213ION     NA48344  11.087  10.706   9.909  0.0824  0.1578  0.4122
33214ION     NA48345  10.345   3.140   0.550  0.0600 -0.0800 -0.1011
33215ION     NA48346  10.972  14.519   5.510 -0.0523 -0.1413 -0.0275
33216ION     NA48347   7.117   1.113   6.256 -0.2552  0.0376  0.2471
33217ION     NA48348   0.492   8.421  15.605 -0.1811 -0.2984 -0.0358
33218ION     NA48349  10.765  10.344  13.006 -0.1554 -0.2137  0.0528
33219ION     NA48350   8.131   5.720  12.672  0.1631  0.1123  0.1541
33220ION     NA48351   4.570   9.277   4.787  0.1996 -0.3773  0.1802
33221ION     NA48352  17.524   2.358  14.090  0.2319 -0.1839  0.1488
33222ION     NA48353   4.465  10.406  10.036  0.0747 -0.3035  0.1118
33223ION     NA48354   1.741  12.868   3.464 -0.2535  0.0278 -0.0566
33224ION     NA48355  12.481   5.365   5.816  0.2493  0.2553  0.0436
33225ION     NA48356  17.019   7.818  15.963  0.0281  0.1941  0.3150
33226ION     NA48357  13.064   9.925   3.921  0.0474 -0.0455  0.0214
33227ION     NA48358  14.087  17.670  12.882  0.0860  0.1721  0.0126
33228ION     NA48359  14.397  16.679   0.219  0.0019 -0.0203 -0.2658
33229ION     NA48360   3.774   0.125   6.052 -0.2599  0.4009 -0.1390
33230ION     NA48361   8.497  10.888   5.841  0.2520 -0.2757 -0.2156
33231ION     NA48362   1.378  16.401   0.699  0.0025 -0.2636 -0.2430
33232ION     NA48363   8.763  16.987  13.265  0.1041 -0.0292  0.4254
33233ION     NA48364   7.096   6.059   5.942 -0.0343  0.2912 -0.2989
33234ION     NA48365   3.967  17.091  14.095 -0.2074  0.0548 -0.1368
33235ION     NA48366  15.581   2.989  10.645  0.3042 -0.1573 -0.1563
33236ION     NA48367  17.104   8.873   1.647  0.1775 -0.1917  0.0150
33237ION     NA48368  10.599  16.183   9.882  0.0064 -0.0765 -0.0875
33238ION     NA48369  13.918   8.394  13.559 -0.1987 -0.1139 -0.3420
33239ION     NA48370   5.374  16.201   6.198  0.2598  0.0489 -0.2000
33240ION     NA48371   8.696  15.735   4.796  0.3454  0.0970  0.1404
33241ION     NA48372  11.658  12.649   5.019 -0.0301  0.0031  0.3724
33242ION     NA48373   2.557   1.145   1.884  0.1037 -0.0752 -0.1038
33243ION     NA48374   0.826   5.062   6.030 -0.3026 -0.0106  0.3233
33244ION     NA48375  17.996   7.372  12.524  0.0167  0.4340  0.1430
33245ION     NA48376   5.475   1.403   4.631  0.1663 -0.1075  0.0448
33246ION     NA48377  15.792   4.506   3.147 -0.1747  0.3440 -0.1428
33247ION     NA48378   8.030   1.092  10.454  0.4713 -0.1037 -0.1847
33248ION     NA48379   6.794  10.042   0.099 -0.1017 -0.3620 -0.0497
33249ION     NA48380   4.992  14.085  14.108 -0.1023 -0.2195  0.2044
33250ION     NA48381  11.731   9.964   9.763 -0.1949  0.1966  0.1548
33251ION     NA48382   3.022  14.680   6.216  0.0952 -0.0111  0.0323
33252ION     NA48383   8.958  18.221   1.794 -0.4461 -0.2389 -0.2187
33253ION     NA48384   6.572   7.034  14.440  0.2716 -0.4289 -0.0649
33254ION     NA48385   8.590  14.597   2.324 -0.1289  0.1991 -0.0996
33255ION     NA48386   2.208  13.214  12.518  0.0760 -0.2373 -0.2320
33256ION     NA48387  11.759   0.499   5.631  0.0358  0.0056  0.3199
33257ION     NA48388   1.326   7.703  10.435 -0.1540  0.0564  0.0498
33258ION     NA48389   3.407  15.162   3.505  0.1904  0.2595  0.0254
33259ION     NA48390  13.175  12.607   4.581  0.0064  0.0381 -0.1015
33260ION     NA48391  14.303   7.416   2.197  0.0749  0.0812  0.1620
33261ION     NA48392  17.940  13.330   2.540  0.1847 -0.0411  0.1878
33262ION     NA48393   6.649  14.287  13.759 -0.2173 -0.1526  0.0914
33263ION     NA48394   3.895  14.283   1.668  0.0729  0.0253 -0.0940
33264ION     NA48395  14.393   3.899  13.402  0.0197  0.3034  0.1088
33265ION     NA48396   4.544   9.704   1.090 -0.0797 -0.1708 -0.1468
33266ION     NA48397   1.127  14.014  11.044 -0.1187 -0.0302 -0.0127
33267ION     NA48398   5.334   3.683  10.185 -0.3813 -0.2861 -0.4607
33268ION     NA48399   4.970  12.680  10.049 -0.0236  0.0771 -0.0349
33269ION     NA48400  15.796   5.737  14.460  0.0008  0.0105  0.1113
33270ION     NA48401  11.916  12.207   3.085  0.0449  0.1158  0.1660
33271ION     NA48402   8.261  11.489   3.456  0.1807 -0.2784 -0.3548
33272ION     NA48403   3.416   6.620  10.395 -0.2603 -0.0540 -0.1413
33273ION     NA48404  12.628   6.306  10.137  0.0974  0.0277 -0.1522
33274ION     NA48405  10.242   6.989  15.138 -0.1323 -0.0170 -0.1369
33275ION     NA48406  14.478   8.786  13.932  0.1470  0.2115  0.0094
33276ION     NA48407  11.493   8.348   5.581  0.1999  0.3546  0.0443
33277ION     NA48408  15.153   4.974  12.969 -0.1531 -0.3715  0.1422
33278ION     NA48409   5.815   2.603   6.099 -0.2591  0.1976  0.1096
33279ION     NA48410  11.000  18.154  10.241 -0.1259 -0.2699 -0.2867
33280ION     NA48411   5.171   7.639  14.867  0.0653 -0.0663  0.0649
33281ION     NA48412   9.426   8.996  13.406 -0.1255 -0.0507 -0.0951
33282ION     NA48413  15.624  15.129   3.598  0.0487 -0.1176  0.1636
33283ION     NA48414  14.258   2.684   3.355  0.0590  0.2894 -0.2638
33284ION     NA48415   7.765   4.270  10.560 -0.0019 -0.1013 -0.0312
33285ION     NA48416  10.217   4.181   5.905 -0.0669  0.0283 -0.0058
33286ION     NA48417  13.077   7.391   4.145  0.2242 -0.0147 -0.2108
33287ION     NA48418   2.693  17.399   6.177 -0.0112  0.0276  0.2433
33288ION     NA48419   5.059   6.627   9.724 -0.1699 -0.3486  0.1007
33289ION     NA48420   9.984  13.688  15.039 -0.2928  0.0555 -0.1252
33290ION     NA48421  11.619   3.420  15.525 -0.3842  0.0581  0.0987
33291ION     NA48422  13.702   2.866  10.151 -0.0697  0.1437 -0.0582
33292ION     NA48423  14.309   2.525   5.444 -0.0809  0.0586  0.0100
33293ION     NA48424   0.760  15.072   1.306 -0.3358  0.1215 -0.0931
33294ION     NA48425  12.145  14.563   4.052 -0.2720 -0.4418  0.0323
33295ION     NA48426   0.848   1.593  10.506  0.3277 -0.0698 -0.1075
33296ION     NA48427   1.448   6.720   5.746  0.0226 -0.1523  0.4677
33297ION     NA48428   5.104  11.575  10.690  0.4842  0.2853 -0.1673
33298ION     NA48429   3.386  17.560   2.451  0.0352 -0.0938  0.2671
33299ION     NA48430  16.493  12.786   6.009 -0.0752 -0.0579 -0.0069
33300ION     NA48431   1.732   2.704  14.579  0.0068  0.1624  0.2339
33301ION     NA48432   4.438   0.726   6.250  0.2509 -0.0838 -0.0489
33302ION     NA48433   9.140  17.276  14.218 -0.0920  0.2466  0.0177
33303ION     NA48434   4.479   0.573   1.768  0.0485  0.0048  0.1820
33304ION     NA48435  17.622   8.869  10.099  0.1514 -0.1518 -0.0939
33305ION     NA48436   7.097   0.746   4.208 -0.0874 -0.2149 -0.0531
33306ION     NA48437  11.041  16.151  13.847 -0.1196  0.2686 -0.0968
33307ION     NA48438  15.474   5.035   2.296  0.0040 -0.3362  0.1636
33308ION     NA48439  14.508   5.417   3.567  0.1766  0.2140  0.2845
33309ION     NA48440   3.137   7.749  10.193  0.0648  0.0789  0.3867
33310ION     NA48441   4.005  11.046  10.274 -0.4326 -0.2908  0.0268
33311ION     NA48442   6.033  13.214   0.238 -0.1083  0.1685 -0.0470
33312ION     NA48443   5.068  16.153  10.681 -0.1511  0.2295 -0.0455
33313ION     NA48444  12.229  18.091  14.155 -0.1677  0.0035  0.2592
33314ION     NA48445  12.511  15.454   4.482  0.0888  0.2271 -0.2019
33315ION     NA48446   6.705   7.777   4.891  0.0970  0.3319  0.0990
33316ION     NA48447   5.619   5.017   9.975 -0.0226 -0.1200  0.0347
33317ION     NA48448  18.280   4.377  15.943  0.1276  0.0447  0.0291
33318ION     NA48449  18.152  15.038  10.400  0.0258  0.1580 -0.2179
33319ION     NA48450  11.801   2.685  16.005 -0.0493  0.2182 -0.1967
33320ION     NA48451  14.084   2.031  10.167  0.3222  0.3178  0.0701
33321ION     NA48452  16.205   6.649  15.084 -0.0871 -0.0467  0.2865
33322ION     NA48453  12.842   6.573   4.656 -0.3312  0.2581 -0.2054
33323ION     NA48454  17.578   2.046   5.425  0.0796 -0.0101 -0.1812
33324ION     NA48455  12.880   0.553   1.437  0.3654 -0.2402 -0.0870
33325ION     NA48456  11.773   8.987   2.523 -0.1294  0.2772  0.1926
33326ION     NA48457  13.607   0.321  10.011 -0.0338  0.2277 -0.1862
33327ION     NA48458  13.190   1.907  10.081 -0.3564 -0.2235 -0.1432
33328ION     NA48459   9.374  15.838   5.445 -0.1371 -0.2158  0.1186
33329ION     NA48460   6.025   0.898  10.284 -0.0275 -0.1636  0.1643
33330ION     NA48461   5.409   9.521   2.396  0.1974 -0.0726 -0.2079
33331ION     NA48462  11.349  15.493  10.195  0.1183 -0.0696  0.3369
33332ION     NA48463   0.754  15.310   2.762  0.2478  0.0564 -0.0652
33333ION     NA48464   3.432  11.968  10.334 -0.1590  0.1503  0.1456
33334ION     NA48465   2.988  15.488   6.487  0.2219  0.0150  0.0750
33335ION     NA48466   1.472   7.938  11.815  0.1711  0.0872 -0.0286
33336ION     NA48467   5.366  14.750   6.066 -0.3695  0.0496 -0.2713
33337ION     NA48468   9.735   2.193  14.610 -0.2752 -0.3664 -0.0865
33338ION     NA48469  16.349   0.496  13.719 -0.2050 -0.0201 -0.0408
33339ION     NA48470   7.290  14.804   5.789  0.0037 -0.0058  0.0810
33340ION     NA48471   3.890   5.800   9.960  0.1290 -0.1335  0.1099
33341ION     NA48472  13.855   9.760   5.517  0.0390 -0.2155 -0.0074
33342ION     NA48473   0.045  13.970   6.294  0.0568  0.0045 -0.0392
33343ION     NA48474   7.592   4.296  13.656 -0.2898 -0.1215  0.1176
33344ION     NA48475   1.526   5.517  12.068  0.1544 -0.0204 -0.0817
33345ION     NA48476  16.864  10.917   5.155  0.2468 -0.1248  0.0663
33346ION     NA48477   0.341   6.346  16.043  0.2540  0.0678 -0.2804
33347ION     NA48478   6.195   5.599   2.129 -0.0728 -0.1284  0.2993
33348ION     NA48479   5.475   2.300   0.163 -0.0555 -0.1654 -0.0254
33349ION     NA48480   2.082   8.469   5.966  0.0150 -0.2411 -0.0263
33350ION     NA48481   1.104  18.174   6.213 -0.0917  0.3692 -0.0558
33351ION     NA48482   2.027  13.149  10.754 -0.2941 -0.1823  0.1443
33352ION     NA48483   8.922  10.002   5.653 -0.1047 -0.0031  0.4643
33353ION     NA48484  15.287  16.809  13.910 -0.2039 -0.0786 -0.1376
33354ION     NA48485  13.212   4.924  10.437 -0.1666  0.1266  0.3423
33355ION     NA48486   4.340   2.706   4.358  0.0840  0.0480  0.2429
33356ION     NA48487   4.418  11.645  15.832 -0.2264  0.0910  0.1573
33357ION     NA48488  17.966  10.139  13.924  0.1337  0.0927  0.1730
33358ION     NA48489   9.690  15.970   9.963  0.1318 -0.2061  0.3866
33359ION     NA48490   3.591  14.430  13.465 -0.0358  0.0900 -0.1355
33360ION     NA48491  17.550  11.047  10.003 -0.0726 -0.1678 -0.1954
33361ION     NA48492  18.141  16.242   2.325  0.1834  0.0878  0.0045
33362ION     NA48493  17.364   6.109   2.633  0.1463 -0.1968 -0.2189
33363ION     NA48494   6.365  10.070   5.252  0.2555  0.0500 -0.1375
33364ION     NA48495   6.532  13.393   2.024 -0.0894  0.0815  0.2358
33365ION     NA48496   0.951   8.858   0.073 -0.0462 -0.1424  0.1689
33366ION     NA48497  12.213  16.149   3.900 -0.0649  0.0607  0.1191
33367ION     NA48498  17.218   0.299   6.352  0.1647  0.0263 -0.1850
33368ION     NA48499  15.414   9.171   9.765  0.0409  0.2408 -0.0195
33369ION     NA48500   0.970   6.189  10.421  0.1549  0.2249 -0.1190
33370ION     NA48501   6.202  14.047  10.242 -0.2913  0.2619  0.0540
33371ION     NA48502  12.024   7.594   5.349  0.0238  0.0700 -0.1952
33372ION     NA48503  17.197   7.008  11.490  0.0489 -0.2029  0.1248
33373ION     NA48504   6.382   6.562   0.487  0.0003  0.1424  0.0935
33374ION     NA48505   5.142  14.492  10.251  0.0074 -0.1556  0.0536
33375ION     NA48506   9.009  14.351  14.137  0.1731 -0.1510 -0.2927
33376ION     NA48507   0.091   7.470   6.200 -0.1497 -0.1261 -0.0827
33377ION     NA48508   7.500   0.030   6.287 -0.3982  0.0615  0.2438
33378ION     NA48509  16.658  12.952   3.599  0.1286 -0.0059  0.2048
33379ION     NA48510   4.391   3.996  10.269  0.3660 -0.0407 -0.1263
33380ION     NA48511  14.707  15.567  15.522  0.0364 -0.0452  0.0773
33381ION     NA48512  12.814   7.522   5.111 -0.0209 -0.1210  0.3234
33382ION     NA48513   2.470   7.015  12.865 -0.0761  0.2687 -0.1193
33383ION     NA48514  13.085  13.037   2.197  0.1992  0.0315  0.2910
33384ION     NA48515   3.043   3.246   6.306 -0.3568  0.2672 -0.0763
33385ION     NA48516  10.165   7.256   5.247  0.1071 -0.0552 -0.0852
33386ION     NA48517  10.292  14.590  10.172  0.2123  0.0610  0.0318
33387ION     NA48518   5.675   5.890  12.439 -0.0911  0.2480 -0.2453
33388ION     NA48519  16.775   8.651   5.487 -0.0908 -0.1065 -0.1539
33389ION     NA48520  12.452  14.211  10.060 -0.1378 -0.3598  0.1574
33390ION     NA48521  18.129  11.542   5.627 -0.2413  0.1611  0.0114
33391ION     NA48522   8.936  15.916  11.291  0.0401  0.3096  0.2069
33392ION     NA48523   5.549   3.962   6.399  0.0952  0.1582  0.1011
33393ION     NA48524   2.472   8.223  10.131  0.1831 -0.2583 -0.1265
33394ION     NA48525  14.909  12.505   9.808 -0.4162 -0.0839  0.0516
33395ION     NA48526   6.812   7.118  15.104  0.1282  0.0851  0.2922
33396ION     NA48527   0.604   4.328  10.350  0.1856 -0.1310 -0.0457
33397ION     NA48528  16.170  14.969   0.969  0.0321 -0.1047 -0.1464
33398ION     NA48529   9.478   7.205  14.315  0.1436 -0.0611  0.4863
33399ION     NA48530   1.582  10.504  15.294 -0.1556  0.0996  0.2120
33400ION     NA48531   1.905   7.330  13.933  0.2052 -0.1521  0.0936
33401ION     NA48532  11.481   5.011  12.138  0.1138 -0.1682  0.0860
33402ION     NA48533   2.070  12.380  10.343 -0.0606 -0.0579  0.0060
33403ION     NA48534   4.727   3.149  14.460 -0.2945  0.3840  0.1814
33404ION     NA48535  17.367   5.930  13.316  0.1643 -0.2291 -0.0989
33405ION     NA48536  11.729  17.767   5.341  0.0736 -0.0130 -0.1602
33406ION     NA48537  17.963   3.937   1.444  0.1641 -0.1238  0.1519
33407ION     NA48538   6.983   7.015   6.035  0.1319  0.0323  0.0077
33408ION     NA48539  15.542   5.283   6.035  0.1246 -0.1476 -0.1980
33409ION     NA48540  16.204   6.459  10.529 -0.3918  0.2180 -0.4056
33410ION     NA48541   5.529  12.951   3.196 -0.3621 -0.0116  0.1174
33411ION     NA48542   7.371  11.022  14.304 -0.1216 -0.0333  0.2893
33412ION     NA48543  11.305  12.134   2.245 -0.1016  0.1080 -0.3724
33413ION     NA48544   9.305   9.259   4.705  0.0434 -0.1648 -0.0413
33414ION     NA48545   3.840   2.923  14.425  0.0085 -0.2853 -0.1984
33415ION     NA48546  15.223   5.601  10.072 -0.2080 -0.2668  0.2402
33416ION     NA48547  13.198   3.384   5.383  0.0875 -0.0156  0.0972
33417ION     NA48548  12.028   0.088   3.466 -0.2316  0.1876  0.0241
33418ION     NA48549  18.323   8.042  14.992 -0.3462  0.2808  0.3861
33419ION     NA48550   6.306  14.421   5.770  0.0034 -0.0831  0.1218
33420ION     NA48551  14.693   1.371   1.471  0.1841  0.1345  0.3379
33421ION     NA48552   2.137   7.119   5.099  0.0042  0.0431 -0.0671
33422ION     NA48553  12.865  12.007   5.369  0.1541  0.4634  0.1196
33423ION     NA48554   5.342  11.973   5.742 -0.1187  0.1487 -0.0403
33424ION     NA48555   2.700  11.612   5.863 -0.0484  0.1126 -0.0651
33425ION     NA48556  16.274   3.640  10.492  0.0944 -0.0138  0.1108
33426ION     NA48557  12.445  10.741   5.633  0.2909  0.0987  0.2740
33427ION     NA48558  16.313  11.246   5.928 -0.0160 -0.3018  0.0207
33428ION     NA48559  11.714   2.293   4.790 -0.0683 -0.1615  0.1476
33429ION     NA48560   9.214  14.242   5.819 -0.2131 -0.0526 -0.2172
33430ION     NA48561   4.656   5.920  13.980  0.0752 -0.4917  0.3050
33431ION     NA48562  12.930  16.796  10.250 -0.0460 -0.2157 -0.2317
33432ION     NA48563   9.123  16.635   0.234 -0.1146  0.2501  0.0043
33433ION     NA48564   9.997   4.554  14.276  0.0745  0.0912  0.1387
33434ION     NA48565  15.161   0.267   2.290 -0.0385  0.1895  0.3691
33435ION     NA48566  18.001  17.516  13.759 -0.0524  0.1000  0.0327
33436ION     NA48567   2.614  16.382   0.601 -0.0437 -0.0382  0.0414
33437ION     NA48568  14.525   7.440   0.353 -0.1250 -0.1349  0.0563
33438ION     NA48569   1.737   3.368  10.598  0.2960 -0.0449  0.0289
33439ION     NA48570   7.330   5.840   4.595  0.0697 -0.0762 -0.1532
33440ION     NA48571   4.312   5.619  16.062  0.1313  0.0354  0.1884
33441ION     NA48572  10.610  12.045  10.271  0.0977  0.3423 -0.0567
33442ION     NA48573   4.049   3.091  10.618 -0.0406  0.1486  0.0067
33443ION     NA48574   9.355   0.533   5.762  0.0888  0.0782  0.4075
33444ION     NA48575   0.657   5.340   1.502 -0.2000  0.2224  0.1897
33445ION     NA48576   4.161  16.378  10.428 -0.0929  0.2797  0.0954
33446ION     NA48577  16.999  17.500  16.024  0.1281 -0.0372 -0.1350
33447ION     NA48578  15.690  12.269  15.605  0.2327  0.1795  0.1851
33448ION     NA48579  13.128   3.063  12.982 -0.2380  0.1689 -0.0143
33449ION     NA48580  12.164   3.224  12.892 -0.0494  0.1017  0.1168
33450ION     NA48581   9.949  12.908   1.399 -0.1092 -0.1098  0.0578
33451ION     NA48582   9.979   3.965   9.957  0.0204  0.0851 -0.1224
33452ION     NA48583  17.667   8.571   2.872  0.3874  0.2248 -0.2104
33453ION     NA48584   0.314  12.459  13.394 -0.2193 -0.2189 -0.1105
33454ION     NA48585   7.144  16.951   5.580  0.0259 -0.0847  0.0733
33455ION     NA48586  13.066  12.930   5.713 -0.0459 -0.0274 -0.2722
33456ION     NA48587   9.109  13.372  10.356 -0.0762 -0.3822 -0.0920
33457ION     NA48588  16.428  18.194  10.435  0.1901  0.1718 -0.1797
33458ION     NA48589  15.137   8.154   9.715  0.0984  0.0116  0.0466
33459ION     NA48590   0.992   8.619  10.328  0.0265 -0.1585 -0.0007
33460ION     NA48591   8.494  15.196  10.316 -0.0182 -0.0539 -0.1407
33461ION     NA48592   8.536   4.357  10.310  0.3529  0.0061 -0.1117
33462ION     NA48593   2.571   2.348  10.432 -0.1790 -0.1953  0.0676
33463ION     NA48594  13.355  15.523   2.181 -0.4850  0.0946 -0.0087
33464ION     NA48595   6.449   4.635  10.058  0.1608 -0.1634  0.2444
33465ION     NA48596  11.464   4.882   2.427 -0.1007  0.2784  0.0907
33466ION     NA48597  11.114  13.353   0.359 -0.0170 -0.1431 -0.2655
33467ION     NA48598   4.448  11.640  14.905  0.0316 -0.0785 -0.2846
33468ION     NA48599  11.117   1.010   0.771 -0.4164 -0.0301 -0.2244
33469ION     NA48600   8.831   8.296  14.858 -0.1037 -0.1493 -0.2366
33470ION     NA48601   3.333   4.204   4.595  0.2412 -0.0686 -0.0624
33471ION     NA48602   1.647  18.140   2.237 -0.0184 -0.0591  0.2727
33472ION     NA48603   6.968  14.095   6.330 -0.3267  0.1206  0.0485
33473ION     NA48604  10.899  14.173   9.872 -0.3240 -0.2615  0.2265
33474ION     NA48605   1.178  13.427   6.336  0.1113 -0.1967 -0.3506
33475ION     NA48606  11.935   1.056  13.439  0.0415 -0.2218 -0.0705
33476ION     NA48607  12.242   9.253   3.245 -0.0741  0.0300 -0.0870
33477ION     NA48608   0.518  10.295   0.555  0.1851  0.1053 -0.0903
33478ION     NA48609  10.288  10.401   9.935  0.2514  0.0345  0.1614
33479ION     NA48610   3.386  12.158   4.128  0.0015  0.2326  0.0396
33480ION     NA48611  17.883  12.874   5.069 -0.2724  0.1096  0.1143
33481ION     NA48612  12.983   5.811  10.260 -0.0399  0.0675 -0.2812
33482ION     NA48613  11.582  13.673   9.610  0.2920  0.1784  0.1271
33483ION     NA48614   8.523  11.675  10.323 -0.2739 -0.2545  0.4013
33484ION     NA48615   0.686  14.215   0.691 -0.2599  0.4070  0.1450
33485ION     NA48616   6.735   4.093  10.236  0.3188  0.1352  0.0157
33486ION     NA48617   8.203   6.149  10.047  0.0267  0.3564  0.3979
33487ION     NA48618   7.280   5.672  10.843  0.1594 -0.0085  0.4080
33488ION     NA48619  10.582   8.618  10.874  0.1181 -0.0045 -0.1588
33489ION     NA48620   5.341   1.638   3.108 -0.3246  0.2647  0.0503
33490ION     NA48621  10.557  10.976  16.111 -0.3782  0.0359  0.2968
33491ION     NA48622   0.858   0.115  10.379 -0.1554  0.0109 -0.2461
33492ION     NA48623   8.598  13.452   1.702 -0.3027  0.1696 -0.3888
33493ION     NA48624   3.304   5.038   5.795  0.0816 -0.1351 -0.1031
33494ION     NA48625  16.498   8.254  10.301 -0.0710 -0.1903 -0.3145
33495ION     NA48626   1.732  14.008   4.299  0.0332  0.0155 -0.0643
33496ION     NA48627  13.620   4.229   2.088 -0.1406  0.2642 -0.4557
33497ION     NA48628  15.426   3.656   6.115  0.3627 -0.1005  0.0335
33498ION     NA48629  16.969  13.917  11.461  0.1516 -0.0207  0.0051
33499ION     NA48630   1.361   6.025   5.173  0.0568 -0.2344  0.1430
33500ION     NA48631  11.290  14.342  11.792 -0.1021 -0.1001 -0.0810
33501ION     NA48632   4.815  10.944   4.096 -0.4196  0.0619  0.2073
33502ION     NA48633   9.127   8.323   2.838  0.2147 -0.0482  0.2582
33503ION     NA48634  10.845  17.515  12.324  0.0251  0.1732  0.1527
33504ION     NA48635   1.295   7.867   0.327  0.0277  0.3777 -0.0012
33505ION     NA48636  11.485  10.231  15.605 -0.2785 -0.0249  0.0536
33506ION     NA48637  17.937   7.280  15.651  0.0327 -0.3296  0.0862
33507ION     NA48638  12.772   2.917  10.087 -0.1597  0.0383  0.1427
33508ION     NA48639  13.122   8.178  14.071  0.0600  0.5256  0.1448
33509ION     NA48640  12.521  13.586   9.856  0.0743 -0.0913  0.1055
33510ION     NA48641  17.846  16.206   6.121 -0.2370  0.1740  0.0037
33511ION     NA48642   1.914  15.550  10.313  0.0506  0.0693 -0.0884
33512ION     NA48643  14.744  15.202  10.220 -0.0148 -0.0897 -0.1903
33513ION     NA48644   2.169   7.609  10.127 -0.1009  0.1948 -0.4416
33514ION     NA48645  12.133   3.255   2.160 -0.0496  0.1363 -0.0207
33515ION     NA48646   3.367  12.552  12.377 -0.0570  0.0241 -0.1131
33516ION     NA48647  15.483  12.372  13.069 -0.1838  0.1876  0.3859
33517ION     NA48648  12.928   3.418  10.079 -0.0886 -0.2387 -0.1049
33518ION     NA48649  12.511   6.542   6.056  0.3194  0.1961  0.2924
33519ION     NA48650  10.471   6.839   5.846 -0.0661 -0.2278  0.2661
33520ION     NA48651   9.449  16.169  14.941 -0.0941 -0.1313 -0.2349
33521ION     NA48652  17.426   3.018   4.973 -0.0354  0.2820  0.1487
33522ION     NA48653  15.170   9.442  15.404  0.1179 -0.1705 -0.2242
33523ION     NA48654   7.470  10.822  10.279  0.1010 -0.0714 -0.0250
33524ION     NA48655  10.968  17.613   1.330  0.0963 -0.0874  0.2595
33525ION     NA48656   3.410   8.616  10.121  0.1134  0.0922  0.1335
33526ION     NA48657   0.338   1.821   6.370 -0.1598  0.3893 -0.0082
33527ION     NA48658  17.454   5.864  11.223  0.3990  0.1770  0.0574
33528ION     NA48659  16.005  14.094   2.550 -0.1142 -0.1984 -0.0910
33529ION     NA48660  16.267   4.025   5.763  0.2528  0.0215  0.3646
33530ION     NA48661  10.081   4.981   9.961 -0.0610  0.0581  0.5923
33531ION     NA48662   7.155  14.930  13.172  0.3704 -0.0866  0.1139
33532ION     NA48663  17.406   5.085  10.547  0.1883  0.1153 -0.5490
33533ION     NA48664  13.621   0.446  13.253  0.1332 -0.1265 -0.3073
33534ION     NA48665   2.761   1.453  14.328 -0.1361 -0.0704 -0.1819
33535ION     NA48666   7.653  15.743  10.438 -0.2107 -0.0003  0.0613
33536ION     NA48667  10.686   1.614   3.845  0.4290 -0.1333  0.1102
33537ION     NA48668   0.305   4.403   1.009  0.2649  0.0818 -0.0020
33538ION     NA48669  12.895   0.759  11.705 -0.3088  0.0103  0.0157
33539ION     NA48670   2.547   0.628   0.116 -0.0746 -0.0815  0.0733
33540ION     NA48671   7.577  12.757   4.630  0.1390  0.0900  0.0692
33541ION     NA48672   0.300  17.749  10.603  0.2911  0.0391 -0.2083
33542ION     NA48673  14.696   7.213   9.897 -0.1433  0.2279 -0.1440
33543ION     NA48674   7.454   6.891   2.955 -0.1576  0.0854 -0.1380
33544ION     NA48675   8.661   0.865   6.066  0.2239  0.1236  0.4040
33545ION     NA48676   8.447   8.407  10.184  0.0284  0.0734  0.0105
33546ION     NA48677   4.336  13.299   4.505 -0.1333 -0.0598 -0.0517
33547ION     NA48678   9.234  18.062   0.428  0.0687 -0.0404  0.0277
33548ION     NA48679  16.011   5.405  12.694  0.0489  0.2061  0.1705
33549ION     NA48680  13.476  10.545   0.525 -0.0768 -0.0005  0.0835
33550ION     NA48681   3.660   9.603  15.976 -0.0483  0.0614 -0.1765
33551ION     NA48682  12.557   8.318   5.032  0.1572  0.2869 -0.1634
33552ION     NA48683  16.826  11.989   5.766  0.0028 -0.2064 -0.0350
33553ION     NA48684  10.852   7.801   5.789  0.1163 -0.1394  0.1167
33554ION     NA48685   0.362   9.435  13.495 -0.0719 -0.1240  0.0280
33555ION     NA48686   2.559   8.035  11.962  0.1640  0.2219  0.0645
33556ION     NA48687  14.591   9.411   0.328 -0.0930 -0.1733 -0.1888
33557ION     NA48688   2.602   1.335  10.533  0.0886  0.1450 -0.0233
33558ION     NA48689   5.388   5.816   6.059  0.0479  0.0761 -0.0356
33559ION     NA48690  18.277   2.990   3.446  0.2194  0.2835  0.0700
33560ION     NA48691  18.253   1.558  12.811 -0.2694  0.3353 -0.0208
33561ION     NA48692   2.926  15.503  15.827 -0.0221  0.1717  0.0613
33562ION     NA48693   9.613  16.844   9.974  0.0248  0.0793  0.3660
33563ION     NA48694  13.856   1.138  10.276  0.0249  0.0374 -0.0095
33564ION     NA48695  13.873   8.559   5.542 -0.0341  0.0314  0.1437
33565ION     NA48696   8.060   9.429  13.490  0.0806  0.1168 -0.1171
33566ION     NA48697   7.025   1.246  10.572  0.2556 -0.1582  0.2294
33567ION     NA48698   1.361   9.138  13.305 -0.1550 -0.2559  0.0572
33568ION     NA48699   7.969  15.950   1.922 -0.2297 -0.0740  0.2230
33569ION     NA48700  13.859  16.322  12.522 -0.1115  0.0850 -0.2023
33570ION     NA48701   6.523   1.108   4.687  0.4489  0.0185  0.3700
33571ION     NA48702   8.116  17.012   4.414  0.0375  0.0886 -0.1922
33572ION     NA48703  10.894   8.644   2.175 -0.3316 -0.2276 -0.1114
33573ION     NA48704   4.900   9.701  14.990  0.0599  0.0188 -0.1113
33574ION     NA48705   9.301   8.433  13.023 -0.1351 -0.2044  0.1149
33575ION     NA48706  12.103  15.033   9.640  0.1190 -0.2173 -0.1940
33576ION     NA48707   9.686   8.531  14.755  0.0125 -0.1623 -0.0046
33577ION     NA48708  11.480  10.820   5.513 -0.1310 -0.1606  0.3114
33578ION     NA48709   1.922   4.755  14.644 -0.1359  0.0994 -0.0682
33579ION     NA48710   7.428  17.563   5.994 -0.1167  0.2071  0.1748
33580ION     NA48711   0.480  13.025  10.175 -0.1532  0.0908  0.5531
33581ION     NA48712   5.095  12.375   1.063 -0.3978  0.0400 -0.4028
33582ION     NA48713   8.504  17.029   2.462 -0.2034  0.0406  0.0333
33583ION     NA48714  12.112  10.672  10.104 -0.0123 -0.1163  0.1185
33584ION     NA48715  11.939  11.405   9.769 -0.1616  0.1798 -0.1170
33585ION     NA48716  16.149  13.366   9.945  0.0689  0.1220 -0.1744
33586ION     NA48717   4.805   1.852   1.163 -0.0288  0.1241  0.1892
33587ION     NA48718   4.837  14.038  15.232 -0.1442  0.0547 -0.0651
33588ION     NA48719  10.603   2.668  13.390  0.2992  0.0508 -0.0254
33589ION     NA48720   5.206  17.067   5.894  0.1175 -0.1110 -0.1475
33590ION     NA48721   0.230   8.961   4.904 -0.2095 -0.1824  0.3128
33591ION     NA48722   3.042   2.986   3.407  0.0431 -0.2717 -0.0515
33592ION     NA48723  17.834   0.354  13.348  0.0979 -0.0119 -0.3383
33593ION     NA48724   0.906  10.520  10.517  0.2717  0.3985 -0.0086
33594ION     NA48725   6.013   0.427  13.268 -0.0923 -0.1552  0.1065
33595ION     NA48726   6.645  11.522  14.815  0.1208  0.0523 -0.0436
33596ION     NA48727  13.049   9.043   5.352  0.2392  0.0990  0.1949
33597ION     NA48728   7.952  10.260   5.515 -0.1187  0.1241  0.1315
33598ION     NA48729   6.205  10.558   3.148 -0.2650 -0.2644  0.1498
33599ION     NA48730   3.046   9.611  10.238  0.3208 -0.0157 -0.0185
33600ION     NA48731  16.224  16.713   5.675  0.2151 -0.0733 -0.2843
33601ION     NA48732  16.532  15.149   5.712 -0.1976  0.0266  0.2122
33602ION     NA48733  12.562   9.976  11.918 -0.0835  0.4257  0.0340
33603ION     NA48734  12.081   5.437   3.208  0.1696  0.0004  0.2220
33604ION     NA48735  16.670   9.299  12.416  0.0312  0.1888 -0.1451
33605ION     NA48736  16.699  18.259   3.448 -0.1324  0.0621 -0.1558
33606ION     NA48737  14.727  17.986  10.194  0.1442  0.0363 -0.0799
33607ION     NA48738  12.105  18.039  15.817 -0.0447 -0.1248 -0.0931
33608ION     NA48739   4.593   6.428  10.148  0.0951 -0.0243  0.2051
33609ION     NA48740  14.842   9.337   5.389 -0.0567 -0.0761 -0.1876
33610ION     NA48741  10.054  14.583   5.525  0.0746 -0.2927  0.3555
33611ION     NA48742  16.121  15.905  10.255 -0.0432 -0.0332 -0.1151
33612ION     NA48743   0.264   0.095  15.162 -0.2308 -0.2940  0.3150
33613ION     NA48744  11.399   6.858  14.849  0.1230 -0.0497 -0.1067
33614ION     NA48745  14.465   9.041   5.592 -0.1641 -0.0109 -0.0658
33615ION     NA48746   1.301  12.734   2.697  0.4009 -0.0617  0.0073
33616ION     NA48747  10.411  11.051  13.242  0.0144 -0.2444  0.1752
33617ION     NA48748   2.566  11.476  10.213 -0.5469 -0.1226  0.0334
33618ION     NA48749   2.040  17.321  10.209 -0.1706 -0.2139  0.1458
33619ION     NA48750  13.068  11.714   1.613 -0.3831  0.0375 -0.1155
33620ION     NA48751   2.389   5.222  10.488  0.2058 -0.4908 -0.0561
33621ION     NA48752   5.782  11.258   2.031  0.0338 -0.3909 -0.0018
33622ION     NA48753  11.573  14.399  10.413 -0.0091  0.2894  0.0543
33623ION     NA48754  17.888   9.981   2.458  0.3550 -0.0875 -0.5391
33624ION     NA48755   5.830   6.473  10.081 -0.1602  0.1215 -0.1128
33625ION     NA48756   7.249   7.484   0.440  0.0738  0.0680  0.1414
33626ION     NA48757  10.337  12.839   5.661  0.1335  0.2117 -0.0045
33627ION     NA48758  14.090  12.316  12.122 -0.0952  0.1479  0.1962
33628ION     NA48759  10.323   7.462   0.418  0.1339  0.0375  0.0021
33629ION     NA48760  13.198  15.931   5.980 -0.1854  0.0332 -0.1066
33630ION     NA48761   8.594   7.819  13.354 -0.0702 -0.0348 -0.0635
33631ION     NA48762  14.899  15.524   5.365  0.0256  0.1299  0.1088
33632ION     NA48763  15.151   2.780   5.972 -0.2024  0.2934 -0.2047
33633ION     NA48764  17.385   2.057  15.451 -0.1104 -0.1363  0.1582
33634ION     NA48765   1.887   0.900  12.549 -0.2055  0.2452  0.2136
33635ION     NA48766  11.703   0.570   4.704 -0.2681  0.1080  0.0176
33636ION     NA48767   0.561   6.570  11.325 -0.3790 -0.0957 -0.2833
33637ION     NA48768  14.443   5.409  10.121  0.1197 -0.0227 -0.0325
33638ION     NA48769  14.609  10.555   4.071  0.3018 -0.4874 -0.0934
33639ION     NA48770  18.195   8.164  10.333 -0.1992  0.3671  0.2848
33640ION     NA48771   7.211  10.099   5.298  0.0533 -0.0732 -0.0375
33641ION     NA48772  12.087   9.010  15.356  0.1585  0.2985  0.1309
33642ION     NA48773  12.790   8.839   1.531 -0.1592 -0.1464  0.1274
33643ION     NA48774   0.633   3.396  14.391 -0.1180  0.0928  0.4357
33644ION     NA48775   9.249   7.936  10.101 -0.0884  0.5062 -0.0239
33645ION     NA48776   9.834   9.841  10.389  0.1057  0.3573 -0.0514
33646ION     NA48777  11.301   1.978   9.979 -0.0633 -0.0427 -0.2185
33647ION     NA48778  15.639   3.687   0.137 -0.1400  0.1082  0.0580
33648ION     NA48779   0.345   9.906  14.613 -0.0924 -0.1161  0.2218
33649ION     NA48780  13.259  13.339  12.216  0.0612 -0.1787  0.3907
33650ION     NA48781  17.941   6.335   0.449 -0.1928 -0.3058 -0.2571
33651ION     NA48782   6.799  12.584   3.196  0.2470  0.1241  0.1412
33652ION     NA48783  17.638  12.406   1.441  0.3087 -0.2436  0.0929
33653ION     NA48784   6.466   3.920   6.021 -0.0644 -0.3113 -0.1832
33654ION     NA48785   7.374  12.279   2.361  0.2535 -0.2599 -0.3212
33655ION     NA48786  13.953  11.966   2.785 -0.1225  0.6085 -0.0929
33656ION     NA48787  17.056  10.348   1.715  0.0392 -0.1750 -0.0088
33657ION     NA48788   9.213  11.173  11.340 -0.1729 -0.2642 -0.0020
33658ION     NA48789   4.228   2.928  12.717  0.2758  0.1513 -0.0690
33659ION     NA48790  13.430  14.623   5.426  0.0619  0.1625 -0.0284
33660ION     NA48791   2.434  15.152  15.062 -0.2790 -0.0344  0.4890
33661ION     NA48792   0.340  13.684  14.859 -0.1528  0.2350 -0.2586
33662ION     NA48793  12.002   9.057   5.783  0.0651  0.1594 -0.1387
33663ION     NA48794   2.193   6.043   0.824  0.0793 -0.1428  0.1896
33664ION     NA48795   9.984  17.795   1.361  0.0423  0.1162 -0.0995
33665ION     NA48796   7.386  16.910  13.453  0.0747  0.0900 -0.1815
33666ION     NA48797   8.641  18.218   3.095  0.0905  0.3655  0.0775
33667ION     NA48798  11.322  12.693  10.066  0.3423  0.0760  0.0602
33668ION     NA48799   1.785  11.433   6.051  0.4174 -0.1536 -0.1343
33669ION     NA48800  16.128  16.696   4.036  0.1137  0.1328 -0.2756
33670ION     NA48801  18.297   4.990  10.034 -0.1918 -0.3478 -0.4498
33671ION     NA48802  10.736  10.294   5.901  0.0155 -0.2010  0.0904
33672ION     NA48803   0.283   2.792   6.016  0.0923  0.2238 -0.2461
33673ION     NA48804   8.199   2.627   6.171  0.0584  0.0023  0.1708
33674ION     NA48805  17.328   9.288  15.100  0.1335 -0.2861 -0.2519
33675ION     NA48806  14.739   1.904  10.813 -0.2620 -0.3078  0.3719
33676ION     NA48807  15.069   1.139  10.328 -0.1301  0.0824 -0.1631
33677ION     NA48808  16.107   5.782   1.815  0.1508 -0.1552  0.0758
33678ION     NA48809   5.205  10.550   5.576  0.3466 -0.3926  0.0030
33679ION     NA48810  12.439   4.919   4.541  0.1591  0.3855 -0.2106
33680ION     NA48811   7.860   8.879   1.089  0.2248 -0.1678 -0.2786
33681ION     NA48812   8.377  13.957   3.317 -0.2263  0.0032 -0.1071
33682ION     NA48813  11.515   5.132   3.705 -0.0228  0.0521  0.0159
33683ION     NA48814   0.786  12.064   4.751  0.0202 -0.2301 -0.0016
33684ION     NA48815  14.572  18.236  14.219  0.2066  0.0803 -0.1404
33685ION     NA48816   9.640   9.795   5.647 -0.0489 -0.3733 -0.0058
33686ION     NA48817   6.744   7.209  10.026 -0.0199  0.1358  0.2300
33687ION     NA48818   7.764  12.277   3.748  0.2264 -0.2003  0.1071
33688ION     NA48819  14.738  18.245   6.069  0.0656 -0.0669  0.0197
33689ION     NA48820  12.475   9.682   5.522 -0.0128 -0.1358 -0.2992
33690ION     NA48821   3.878   2.213  10.405 -0.2962 -0.0508 -0.1039
33691ION     NA48822   9.375   6.660   5.054 -0.0325 -0.0041  0.0194
33692ION     NA48823   8.608   7.354   3.805  0.1819 -0.0756 -0.0083
33693ION     NA48824   1.408  14.774  12.590  0.0278  0.2174  0.0184
33694ION     NA48825   8.465  12.097   5.800  0.0172  0.1735 -0.1756
33695ION     NA48826   7.921  18.056   0.197 -0.0658 -0.0642  0.0861
33696ION     NA48827  18.132   3.209  10.281  0.0903 -0.1207  0.2501
33697ION     NA48828   4.650   2.197   6.196  0.1559 -0.3199 -0.2588
33698ION     NA48829   8.943  16.217   5.321  0.3008  0.0230  0.0797
33699ION     NA48830   9.488  11.704   9.960  0.0991  0.0993 -0.0443
33700ION     NA48831  17.159  15.039  10.484  0.1213 -0.0233  0.1815
33701ION     NA48832  13.225  17.221  14.567  0.2060  0.1436 -0.0881
33702ION     NA48833   5.240  12.656   0.203  0.1382  0.2136  0.0726
33703ION     NA48834   8.393  12.656  10.480  0.0508 -0.1683 -0.1275
33704ION     NA48835   5.885  14.081  12.579  0.0693 -0.1414  0.2879
33705ION     NA48836   2.096  14.626   3.257  0.2706  0.1214 -0.1130
33706ION     NA48837  13.113   0.233   2.955 -0.0550 -0.2149  0.0249
33707ION     NA48838   8.760   5.118   0.218  0.1890  0.2660  0.0840
33708ION     NA48839   9.923   2.916   5.228 -0.1064  0.0721 -0.0824
33709ION     NA48840   2.751   4.216   2.790 -0.1711  0.2676  0.4378
33710ION     NA48841   8.964   2.815  10.368 -0.1454  0.0326 -0.1609
33711ION     NA48842  17.288   7.013   0.837 -0.0052  0.0918 -0.1761
33712ION     NA48843   4.112  12.771  10.392  0.0802  0.1848 -0.3027
33713ION     NA48844   6.163   5.718  10.187 -0.3337  0.1751  0.1025
33714ION     NA48845  12.638   8.559  10.054  0.1637 -0.0967  0.1196
33715ION     NA48846  14.280   5.672   4.494  0.2582  0.0288  0.0166
33716ION     NA48847  14.481   6.776   1.708 -0.0215  0.1109 -0.1460
33717ION     NA48848  11.949  15.882   9.615  0.1742 -0.2733  0.0057
33718ION     NA48849  11.896   8.097   9.980  0.1436  0.1467  0.2042
33719ION     NA48850  17.760  10.038   5.427 -0.1064 -0.0560  0.3020
33720ION     NA48851  14.796  12.626  15.749 -0.2272  0.4380 -0.1101
33721ION     NA48852  17.916  10.885   6.144 -0.1612  0.2168 -0.2203
33722ION     NA48853  13.643   2.673  10.792  0.1261 -0.1611  0.0048
33723ION     NA48854  16.204   2.342   0.025  0.2399  0.0198  0.0899
33724ION     NA48855  16.022   1.949  15.321 -0.1399 -0.1876  0.0988
33725ION     NA48856  15.323   7.515  10.061  0.3595  0.1018 -0.0972
33726ION     NA48857  12.214   9.723   9.914  0.1741 -0.2790 -0.1215
33727ION     NA48858   3.052  14.126  10.376  0.2455 -0.0866  0.1131
33728ION     NA48859   8.307   6.703   3.351  0.0030 -0.3305  0.0768
33729ION     NA48860   4.673  15.567   6.195 -0.0508 -0.1454  0.1571
33730ION     NA48861  12.636   4.318  10.306 -0.0908  0.0446 -0.0141
33731ION     NA48862  15.704  14.723   5.845  0.1351 -0.0421  0.2968
33732ION     NA48863  13.529  14.053  10.053 -0.1349 -0.0317 -0.1049
33733ION     NA48864  13.770   4.801  11.590 -0.4144 -0.2163 -0.1702
33734ION     NA48865  10.400  17.955   3.557 -0.1976  0.2750  0.2208
33735ION     NA48866   1.159   8.275   1.916 -0.0179  0.3272 -0.1757
33736ION     NA48867   5.153   6.682  13.807 -0.3558 -0.0940  0.0914
33737ION     NA48868  12.990   0.477  16.034  0.2128  0.1742  0.2532
33738ION     NA48869  12.062   0.416  10.200 -0.0862  0.4466  0.1719
33739ION     NA48870  17.695  12.942   0.534  0.1683  0.0475 -0.4429
33740ION     NA48871   6.109  16.686   3.661  0.0756  0.2399  0.0022
33741ION     NA48872   4.332   4.218   5.267 -0.1290  0.0328 -0.1986
33742ION     NA48873   5.374  11.477   5.448  0.0951 -0.4220 -0.1131
33743ION     NA48874  14.217   0.428   0.951 -0.0941  0.1061  0.0318
33744ION     NA48875  17.905   2.466  12.768  0.3163 -0.0258  0.1053
33745ION     NA48876  15.983   1.974  10.463  0.0514  0.0895  0.1411
33746ION     NA48877   0.687   5.835  11.900  0.0311 -0.1168 -0.2570
33747ION     NA48878  16.126   7.222  10.048  0.0958  0.2836 -0.1115
33748ION     NA48879  17.846   7.972   4.886 -0.2951  0.3685  0.2197
33749ION     NA48880   5.896   7.230   9.783  0.0619  0.0615 -0.3198
33750ION     NA48881  13.677  14.821  14.912 -0.0470 -0.0711  0.0861
33751ION     NA48882   2.026  10.962  14.055 -0.1492  0.2789 -0.1084
33752ION     NA48883  12.148   2.173   9.927 -0.1572  0.0565 -0.0126
33753ION     NA48884   3.422  16.978  10.471 -0.0351 -0.3839 -0.0895
33754ION     NA48885  12.722   3.687   5.693  0.2476 -0.0429  0.0973
33755ION     NA48886   0.338   3.368  10.152  0.1276  0.0853 -0.1308
33756ION     NA48887   6.586  15.816  10.102  0.1131  0.2287  0.1447
33757ION     NA48888   4.112   7.190  10.009 -0.1270 -0.1418 -0.1833
33758ION     NA48889   8.921  17.246  10.044 -0.2747 -0.2624  0.3479
33759ION     NA48890  17.339   3.860   2.259 -0.0419 -0.1199 -0.0026
33760ION     NA48891  14.389   3.120  10.658 -0.3157 -0.0480  0.1763
33761ION     NA48892  15.692   9.278   5.778  0.2152 -0.2823  0.1516
33762ION     NA48893  10.719   2.911  11.901  0.1973  0.5964 -0.1145
33763ION     NA48894  14.075   6.263  10.112  0.0761 -0.5669  0.0100
33764ION     NA48895  11.272   0.261  14.177 -0.1461  0.2890 -0.1441
33765ION     NA48896  10.751  12.776   1.906  0.1641 -0.0349  0.1508
33766ION     NA48897   0.958  16.949   6.347  0.0041 -0.0192  0.2948
33767ION     NA48898  11.104   1.797   5.723  0.2640  0.3297  0.1184
33768ION     NA48899   4.937   0.376   2.127  0.1961 -0.3022  0.1202
33769ION     NA48900   9.153   1.113   1.661  0.0192 -0.2969  0.1321
33770ION     NA48901   3.599   0.253  10.276 -0.0683 -0.1072  0.1683
33771ION     NA48902  13.618   1.354   3.771  0.0955 -0.2216  0.3659
33772ION     NA48903   6.069  13.518   5.507 -0.1218 -0.3938  0.2499
33773ION     NA48904  10.193   1.760  13.743 -0.1302 -0.1074 -0.1309
33774ION     NA48905   8.737   3.879   2.827  0.0631  0.1670 -0.0670
33775ION     NA48906   8.991   9.856  15.009 -0.0174 -0.1520 -0.1960
33776ION     NA48907  10.053   9.809   1.074 -0.0639  0.0613  0.3998
33777ION     NA48908  11.046  17.131  15.955  0.4019 -0.0861 -0.3533
33778ION     NA48909   8.209   8.558   0.259 -0.1577  0.0327 -0.1503
33779ION     NA48910   1.928   1.357  15.849 -0.0793  0.0334 -0.0614
33780ION     NA48911  13.459   5.730  10.038 -0.0527 -0.0323  0.0760
33781ION     NA48912   4.594   9.547  15.894  0.1146 -0.3517  0.1244
33782ION     NA48913  17.359   0.741   6.616 -0.3348 -0.0669 -0.1733
33783ION     NA48914   7.128   5.393  10.053  0.0932 -0.1170 -0.2103
33784ION     NA48915  13.523   1.073   0.108 -0.1088  0.0814  0.0461
33785ION     NA48916   5.589  13.377   5.863  0.2013  0.1771 -0.0573
33786ION     NA48917   1.103  17.610  10.354 -0.0867  0.1873 -0.0162
33787ION     NA48918  17.786  14.799   2.826  0.2060  0.0009  0.1701
33788ION     NA48919  17.101   4.457   5.875 -0.0962  0.0218  0.1323
33789ION     NA48920   2.711  16.614  10.160 -0.0158 -0.2578  0.0266
33790ION     NA48921   2.650   3.980  14.477  0.0614 -0.1408 -0.2381
33791ION     NA48922   4.148   3.853   6.163 -0.2241  0.1601 -0.1352
33792ION     NA48923  12.113   4.528  15.573  0.0475  0.1622  0.2138
33793ION     NA48924   3.642  12.229   0.808 -0.0330 -0.4004 -0.0017
33794ION     NA48925   3.329  17.875   3.825 -0.1435 -0.2054 -0.0666
33795ION     NA48926   8.814   5.284  11.382 -0.0256  0.3098  0.4598
33796ION     NA48927   9.237   0.030  10.462 -0.1796 -0.1133 -0.0213
33797ION     NA48928  15.700  17.119  10.356  0.0657 -0.1430 -0.0641
33798ION     NA48929   1.575  15.794   3.604  0.0850 -0.1367 -0.0649
33799ION     NA48930   9.611  12.969  15.735 -0.0077 -0.1725  0.1031
33800ION     NA48931  17.559   1.142  10.434 -0.5714  0.0233 -0.3044
33801ION     NA48932   6.561   9.738  14.902  0.3797  0.0706  0.2108
33802ION     NA48933   9.746   2.319   9.872 -0.0102 -0.1727 -0.0257
33803ION     CL48934   8.741  14.040  12.582 -0.0859  0.0625  0.0663
33804ION     CL48935  17.429   7.134  15.483 -0.0842 -0.1775  0.0352
33805ION     CL48936   6.746  16.739  15.492 -0.1658  0.1739 -0.0011
33806ION     CL48937  13.472   0.594  16.001  0.0333  0.0713  0.1189
33807ION     CL48938  10.968   6.609  14.797  0.0130  0.0709 -0.0330
33808ION     CL48939  15.631  14.455   2.585 -0.1753 -0.0532 -0.2110
33809ION     CL48940   0.487   9.025  13.829  0.1091 -0.1525 -0.2209
33810ION     CL48941  14.523  12.928  15.417 -0.1932  0.5194 -0.1629
33811ION     CL48942   5.118  17.506   3.842 -0.0499  0.0917  0.2072
33812ION     CL48943  13.807   9.961  13.984  0.1199  0.1038 -0.1179
33813ION     CL48944  10.935  17.586  15.765  0.0933  0.2993  0.0056
33814ION     CL48945  16.021   4.872   5.289 -0.0164 -0.0182 -0.0085
33815ION     CL48946  15.927  13.274  12.139  0.0111  0.0271  0.1568
33816ION     CL48947  17.320  10.657   5.058  0.2660  0.0642  0.4029
  18.33077  18.33077  16.11205
