INSANE! Membrane UpperLeaflet>loPI:POPI:DPPI:PYPI:ERGO=140.0:15.0:9.0:6.0:30.0 LowerLeaflet>loPI:POPI:DPPI:PYPI:ERGO=140.0:15.0:9.0:6.0:30.0
48854
    1loPI    C1    1   2.741   8.064  10.177  0.1433 -0.1283  0.0711
    1loPI    C2    2   2.553   8.360  10.369  0.3145  0.0421 -0.0208
    1loPI    C3    3   2.526   7.985  10.505  0.2514  0.1269  0.2061
    1loPI   PO4    4   2.946   8.193  10.066  0.0711 -0.0257 -0.0029
    1loPI   GL1    5   3.230   8.207   9.755 -0.0339  0.0752 -0.3436
    1loPI   GL2    6   3.405   8.054   9.632 -0.1994  0.2125  0.0517
    1loPI   C1A    7   3.106   8.386   9.391 -0.1809 -0.2009 -0.0944
    1loPI   C2A    8   2.959   8.741   9.009  0.4222 -0.0300  0.1289
    1loPI   C3A    9   2.731   8.714   8.531  0.0353 -0.0621  0.0132
    1loPI   C4A   10   2.621   8.890   8.029  0.0647 -0.0620  0.1607
    1loPI   C5A   11   2.671   8.928   7.563  0.1168  0.0346 -0.0767
    1loPI   C6A   12   2.561   9.103   7.256 -0.1027 -0.4657  0.1419
    1loPI   C1B   13   3.497   8.208   9.203 -0.1101  0.1097 -0.2727
    1loPI   C2B   14   3.651   8.181   8.693  0.0993  0.2323 -0.1736
    1loPI   C3B   15   3.354   8.392   8.357  0.1265  0.0371  0.2103
    1loPI   C4B   16   3.006   8.545   8.167  0.1429  0.1243  0.2631
    2loPI    C1   17  14.367   7.619  10.656 -0.1347  0.0525  0.0206
    2loPI    C2   18  14.086   7.690  10.932 -0.1944  0.2348 -0.0850
    2loPI    C3   19  14.466   7.630  11.044 -0.2354  0.2096  0.0431
    2loPI   PO4   20  14.282   7.614  10.384 -0.1634  0.1993  0.3577
    2loPI   GL1   21  14.024   7.497  10.046  0.1556  0.2552  0.0028
    2loPI   GL2   22  14.023   7.163  10.225 -0.1233 -0.2422 -0.0342
    2loPI   C1A   23  14.011   7.461   9.586  0.0602  0.0143 -0.1306
    2loPI   C2A   24  13.854   7.457   9.137  0.2933  0.2185 -0.0914
    2loPI   C3A   25  13.940   7.602   8.721 -0.0416 -0.0625  0.2070
    2loPI   C4A   26  14.145   7.687   8.360  0.0019  0.0761  0.3624
    2loPI   C5A   27  13.790   7.635   8.114 -0.3181  0.3207 -0.1220
    2loPI   C6A   28  13.554   7.912   7.735 -0.0026  0.1135 -0.1102
    2loPI   C1B   29  14.291   7.120   9.840 -0.2289 -0.3191  0.1153
    2loPI   C2B   30  14.425   7.030   9.424  0.1884 -0.0140 -0.3567
    2loPI   C3B   31  14.332   7.137   8.938 -0.0271 -0.2008 -0.2600
    2loPI   C4B   32  14.384   7.219   8.589 -0.0456  0.0899 -0.1668
    3loPI    C1   33  12.462   4.070  10.378 -0.1362  0.0718 -0.0224
    3loPI    C2   34  12.284   3.798  10.144  0.0239  0.0051 -0.0683
    3loPI    C3   35  12.250   3.773  10.542  0.1726 -0.1781 -0.0661
    3loPI   PO4   36  12.673   4.153  10.292 -0.0021 -0.1847  0.2756
    3loPI   GL1   37  12.709   4.057   9.837 -0.1086 -0.0573  0.1363
    3loPI   GL2   38  12.840   3.836   9.713 -0.1108 -0.2590 -0.2436
    3loPI   C1A   39  12.829   4.287   9.472 -0.2251 -0.1911 -0.1068
    3loPI   C2A   40  12.961   4.193   9.065 -0.0421  0.2059  0.2122
    3loPI   C3A   41  12.987   4.248   8.702 -0.0521 -0.2807 -0.1092
    3loPI   C4A   42  12.967   4.486   8.387  0.1213 -0.0979  0.0614
    3loPI   C5A   43  12.668   4.707   8.162  0.0153 -0.0587 -0.1341
    3loPI   C6A   44  12.343   4.501   7.963 -0.0408  0.0452  0.0310
    3loPI   C1B   45  13.008   3.737   9.279  0.2761 -0.2899 -0.0964
    3loPI   C2B   46  13.026   3.750   8.841  0.2247  0.0058  0.0109
    3loPI   C3B   47  12.851   3.815   8.406 -0.2707  0.2571  0.2867
    3loPI   C4B   48  12.546   3.901   7.957 -0.3203  0.1416  0.1397
    4loPI    C1   49  12.730  15.017  10.232 -0.1846 -0.1620  0.1774
    4loPI    C2   50  12.933  15.180  10.536 -0.2073 -0.1426  0.1822
    4loPI    C3   51  12.727  14.842  10.592 -0.0380 -0.2549  0.1345
    4loPI   PO4   52  12.576  15.179  10.172  0.1925  0.0255  0.1615
    4loPI   GL1   53  12.108  15.068  10.015 -0.1351  0.0648  0.1071
    4loPI   GL2   54  12.184  15.225   9.780 -0.0695  0.2238 -0.3265
    4loPI   C1A   55  12.053  14.805   9.648  0.5812  0.1837  0.0651
    4loPI   C2A   56  12.276  14.607   9.453  0.3489  0.0301 -0.0158
    4loPI   C3A   57  12.369  14.454   9.075  0.1684  0.0172  0.4191
    4loPI   C4A   58  12.445  14.529   8.712 -0.0415  0.3708  0.1222
    4loPI   C5A   59  12.330  14.581   8.205 -0.1372 -0.2258 -0.2263
    4loPI   C6A   60  12.396  14.323   7.767 -0.2175  0.0153  0.0642
    4loPI   C1B   61  12.271  15.148   9.332 -0.1987  0.2415 -0.3640
    4loPI   C2B   62  12.238  14.931   8.949 -0.0054 -0.0259 -0.2004
    4loPI   C3B   63  11.909  14.696   8.616  0.2172  0.1256 -0.1928
    4loPI   C4B   64  11.821  14.464   8.231 -0.0252 -0.1731 -0.2564
    5loPI    C1   65  15.018  17.274  10.556  0.1636  0.1051  0.0564
    5loPI    C2   66  14.678  17.476  10.613  0.0777 -0.0235  0.0060
    5loPI    C3   67  14.747  17.140  10.817  0.1118 -0.0726 -0.0860
    5loPI   PO4   68  14.993  17.238  10.189  0.2322 -0.0043  0.0637
    5loPI   GL1   69  15.052  17.223   9.788 -0.0005 -0.1138  0.1554
    5loPI   GL2   70  15.150  17.416   9.631  0.0112 -0.1781 -0.2351
    5loPI   C1A   71  14.972  16.904   9.412  0.1212  0.0397  0.0444
    5loPI   C2A   72  14.920  16.886   9.007  0.1419  0.1311  0.3116
    5loPI   C3A   73  14.727  16.759   8.646 -0.0561 -0.3506  0.1752
    5loPI   C4A   74  14.755  16.446   8.332  0.0242 -0.1348 -0.0214
    5loPI   C5A   75  14.659  16.137   8.031  0.1920  0.3592  0.2877
    5loPI   C6A   76  14.602  15.794   7.733  0.4343 -0.0143  0.0538
    5loPI   C1B   77  15.083  17.296   9.160 -0.1199 -0.1427 -0.1106
    5loPI   C2B   78  15.244  17.150   8.720  0.0696  0.2885 -0.1265
    5loPI   C3B   79  15.301  17.052   8.315 -0.1051  0.1853  0.1013
    5loPI   C4B   80  15.424  16.700   8.032 -0.0561  0.0878  0.0226
    6loPI    C1   81  13.181   9.070  10.997 -0.2899  0.0350  0.2042
    6loPI    C2   82  13.315   9.426  11.122  0.0741  0.0675 -0.2506
    6loPI    C3   83  13.574   9.136  11.030 -0.2170 -0.2927  0.0335
    6loPI   PO4   84  12.984   9.153  10.787  0.2229 -0.1081 -0.1962
    6loPI   GL1   85  12.937   9.393  10.322  0.0826 -0.2926 -0.0870
    6loPI   GL2   86  13.184   9.630  10.187 -0.1752 -0.4865  0.3633
    6loPI   C1A   87  12.690   9.142  10.061 -0.1095  0.0448  0.0719
    6loPI   C2A   88  12.801   8.876   9.798  0.1167  0.0304 -0.3300
    6loPI   C3A   89  12.826   8.719   9.355  0.1783  0.0952 -0.1292
    6loPI   C4A   90  12.934   8.740   9.019 -0.0682  0.0637  0.1185
    6loPI   C5A   91  12.623   8.629   8.633 -0.1067 -0.0451 -0.2718
    6loPI   C6A   92  12.590   8.694   8.177 -0.0635 -0.2290 -0.0008
    6loPI   C1B   93  13.459   9.707   9.893  0.0425  0.2922 -0.0034
    6loPI   C2B   94  13.530   9.661   9.528  0.0663  0.0169  0.1784
    6loPI   C3B   95  13.677   9.812   9.168 -0.0243 -0.0826 -0.0312
    6loPI   C4B   96  13.612   9.850   8.786  0.0700  0.3373  0.2846
    7loPI    C1   97   0.354   3.165  10.385  0.1740  0.0683 -0.0133
    7loPI    C2   98   0.172   3.244  10.732  0.0443  0.1173 -0.0916
    7loPI    C3   99   0.554   3.350  10.678  0.1041 -0.0041  0.0808
    7loPI   PO4  100   0.186   3.139  10.195 -0.1703 -0.2275 -0.0432
    7loPI   GL1  101   0.224   3.284   9.842 -0.0804 -0.0581  0.2831
    7loPI   GL2  102  -0.133   3.398   9.832  0.1373  0.0321 -0.0165
    7loPI   C1A  103   0.122   3.288   9.422 -0.0302  0.2421  0.1945
    7loPI   C2A  104   0.047   3.394   9.007  0.0665 -0.1354  0.1343
    7loPI   C3A  105  -0.100   3.546   8.635 -0.3653  0.0816  0.0773
    7loPI   C4A  106  -0.158   3.645   8.178 -0.0750  0.2710  0.2276
    7loPI   C5A  107  -0.270   3.929   7.918 -0.1897 -0.0978  0.0650
    7loPI   C6A  108  -0.549   3.951   7.634 -0.0660  0.2599 -0.1346
    7loPI   C1B  109  -0.394   3.327   9.395  0.0244 -0.2854  0.0803
    7loPI   C2B  110  -0.484   3.486   9.017 -0.0833 -0.1252 -0.0126
    7loPI   C3B  111  -0.647   3.395   8.672  0.1607  0.1194  0.2009
    7loPI   C4B  112  -0.630   3.498   8.231 -0.3994  0.2088 -0.1503
    8loPI    C1  113   2.708   4.921  10.562  0.0624  0.0890  0.1267
    8loPI    C2  114   2.976   5.150  10.751  0.1941  0.0982 -0.0690
    8loPI    C3  115   2.766   4.878  10.955 -0.1184  0.5337  0.2088
    8loPI   PO4  116   2.778   4.763  10.421  0.2438 -0.2718  0.0857
    8loPI   GL1  117   2.765   4.529  10.096  0.1179 -0.0384 -0.2200
    8loPI   GL2  118   2.455   4.511  10.014  0.2868 -0.0471 -0.1116
    8loPI   C1A  119   3.120   4.363   9.759  0.0924  0.1590  0.1597
    8loPI   C2A  120   3.204   4.251   9.299 -0.2577 -0.0075 -0.2047
    8loPI   C3A  121   2.963   4.187   8.921 -0.1788  0.0063 -0.0586
    8loPI   C4A  122   2.814   4.297   8.535 -0.1186  0.1516 -0.2758
    8loPI   C5A  123   2.897   4.336   8.097 -0.2885 -0.3418  0.0812
    8loPI   C6A  124   2.892   4.877   7.976  0.1329  0.1105 -0.2388
    8loPI   C1B  125   2.543   4.358   9.706  0.1369 -0.1826 -0.1172
    8loPI   C2B  126   2.669   4.254   9.313  0.1166 -0.3795  0.0621
    8loPI   C3B  127   2.437   4.053   8.960 -0.0812 -0.3083  0.0903
    8loPI   C4B  128   2.340   4.039   8.600  0.2584 -0.0258 -0.0524
    9loPI    C1  129   5.789  15.045   9.931  0.0995  0.0346  0.0489
    9loPI    C2  130   5.487  14.952  10.177 -0.0973  0.1092 -0.1610
    9loPI    C3  131   5.467  15.282   9.951  0.1299  0.0996 -0.1970
    9loPI   PO4  132   5.864  14.845   9.825  0.1309  0.0500 -0.1849
    9loPI   GL1  133   6.188  14.875   9.597 -0.0039  0.0254 -0.3126
    9loPI   GL2  134   6.079  14.758   9.340  0.2761  0.2166 -0.1368
    9loPI   C1A  135   6.532  14.642   9.322  0.1694 -0.1705 -0.1898
    9loPI   C2A  136   6.626  14.688   8.971  0.0793 -0.2068 -0.3408
    9loPI   C3A  137   6.617  14.614   8.504 -0.0650 -0.0512  0.1011
    9loPI   C4A  138   6.847  14.414   8.267  0.0494 -0.1274  0.0697
    9loPI   C5A  139   7.252  14.289   8.049 -0.2535 -0.0105  0.1852
    9loPI   C6A  140   7.681  14.267   7.767  0.0877 -0.1766 -0.1376
    9loPI   C1B  141   6.090  14.673   8.912  0.1109 -0.0016 -0.0571
    9loPI   C2B  142   6.170  14.608   8.421 -0.3269 -0.1965  0.0125
    9loPI   C3B  143   6.355  14.479   8.081 -0.0048 -0.3636  0.1965
    9loPI   C4B  144   6.220  14.383   7.662 -0.1462 -0.0112 -0.2174
   10loPI    C1  145  16.245   1.119  10.050 -0.2408  0.0455  0.0166
   10loPI    C2  146  16.151   1.347  10.365  0.1429  0.0525  0.1313
   10loPI    C3  147  16.477   1.116  10.376  0.0949 -0.0376 -0.2184
   10loPI   PO4  148  16.001   0.974   9.979  0.1887 -0.1627  0.0733
   10loPI   GL1  149  15.753   0.870   9.722  0.1166  0.1060 -0.2931
   10loPI   GL2  150  15.545   1.140   9.498  0.1436  0.1670 -0.0310
   10loPI   C1A  151  15.622   0.565   9.401 -0.1604 -0.0087 -0.1722
   10loPI   C2A  152  15.872   0.378   9.051 -0.2086 -0.3014 -0.0940
   10loPI   C3A  153  16.203   0.237   8.807  0.3034 -0.0374  0.0496
   10loPI   C4A  154  16.142   0.235   8.414  0.2041  0.0333 -0.2863
   10loPI   C5A  155  15.898   0.287   8.102 -0.1564 -0.3725  0.1464
   10loPI   C6A  156  15.504   0.438   8.112 -0.0047 -0.2501  0.0395
   10loPI   C1B  157  15.788   0.951   9.197 -0.1568 -0.2777 -0.0450
   10loPI   C2B  158  15.859   0.833   8.857  0.0200  0.0991 -0.2494
   10loPI   C3B  159  15.979   0.834   8.501  0.1137  0.1458 -0.1602
   10loPI   C4B  160  16.169   0.913   8.029 -0.1519 -0.0840 -0.0742
   11loPI    C1  161  17.208   1.258  10.136  0.0282  0.3463 -0.0304
   11loPI    C2  162  16.951   1.298  10.440  0.0620  0.2762  0.0075
   11loPI    C3  163  17.054   1.617  10.222 -0.1854  0.2762 -0.1132
   11loPI   PO4  164  17.088   1.110   9.981  0.2271  0.2725  0.1843
   11loPI   GL1  165  17.132   1.043   9.586  0.0504 -0.1021  0.1772
   11loPI   GL2  166  17.231   0.703   9.552 -0.1567 -0.1200 -0.1224
   11loPI   C1A  167  17.147   1.035   9.170  0.0357  0.0463 -0.0942
   11loPI   C2A  168  17.297   1.008   8.744 -0.1403 -0.2364  0.0227
   11loPI   C3A  169  17.499   1.030   8.381 -0.2199 -0.0574  0.2457
   11loPI   C4A  170  17.597   1.107   7.961  0.0386  0.2057 -0.0964
   11loPI   C5A  171  17.875   1.198   7.667  0.2501  0.1394 -0.0275
   11loPI   C6A  172  18.084   1.272   7.291  0.0319  0.3633  0.2690
   11loPI   C1B  173  17.382   0.572   9.139  0.1238  0.0973  0.0148
   11loPI   C2B  174  17.446   0.446   8.617 -0.1007  0.0403 -0.2015
   11loPI   C3B  175  17.773   0.303   8.312 -0.1766 -0.0572 -0.1585
   11loPI   C4B  176  17.967  -0.096   8.316 -0.0067  0.1314 -0.2147
   12loPI    C1  177   2.490   2.335  10.492  0.0181 -0.0891 -0.1681
   12loPI    C2  178   2.223   2.254  10.779 -0.1412 -0.1384 -0.3284
   12loPI    C3  179   2.401   2.612  10.766  0.0201 -0.2052 -0.0488
   12loPI   PO4  180   2.559   2.038  10.490 -0.0290 -0.1447 -0.1061
   12loPI   GL1  181   2.573   1.767  10.148  0.2354 -0.1139  0.1931
   12loPI   GL2  182   2.856   1.532  10.195 -0.2437  0.2702  0.2358
   12loPI   C1A  183   2.476   1.823   9.705 -0.0294  0.1052  0.1609
   12loPI   C2A  184   2.619   1.847   9.339 -0.1077 -0.1691 -0.2493
   12loPI   C3A  185   2.692   2.073   9.018 -0.2847 -0.3069 -0.1306
   12loPI   C4A  186   2.950   2.341   8.770  0.2376 -0.3832 -0.1785
   12loPI   C5A  187   2.943   2.461   8.355 -0.1043 -0.0357 -0.1544
   12loPI   C6A  188   2.888   2.264   7.871 -0.2632  0.0038  0.2274
   12loPI   C1B  189   2.989   1.765   9.821 -0.2624  0.0702 -0.0036
   12loPI   C2B  190   3.223   2.013   9.531  0.0120  0.0119 -0.1540
   12loPI   C3B  191   3.249   2.084   9.078 -0.0120  0.0481  0.0858
   12loPI   C4B  192   3.387   2.123   8.601  0.0127  0.2966 -0.2816
   13loPI    C1  193   2.680  10.250  10.547 -0.1379  0.1535 -0.0810
   13loPI    C2  194   2.516  10.470  10.838 -0.3762 -0.1736  0.0386
   13loPI    C3  195   2.449  10.076  10.824  0.0583 -0.2459 -0.1608
   13loPI   PO4  196   2.590  10.411  10.316  0.1783  0.0167 -0.0593
   13loPI   GL1  197   2.499  10.390   9.877  0.1176  0.2276 -0.5375
   13loPI   GL2  198   2.649  10.608   9.816  0.0964  0.2044 -0.0661
   13loPI   C1A  199   2.197  10.493   9.563 -0.1608 -0.0637 -0.1877
   13loPI   C2A  200   2.112  10.794   9.211 -0.1992  0.2453 -0.1829
   13loPI   C3A  201   2.248  10.861   8.861 -0.0451 -0.1168 -0.3626
   13loPI   C4A  202   2.173  10.965   8.359  0.4047  0.1670  0.0513
   13loPI   C5A  203   2.318  11.313   8.090 -0.1595 -0.2732 -0.3088
   13loPI   C6A  204   2.331  11.504   7.751 -0.1418 -0.3311 -0.0041
   13loPI   C1B  205   2.674  10.341   9.422  0.1594 -0.0583  0.0802
   13loPI   C2B  206   2.794  10.294   9.007 -0.1570  0.2743 -0.0228
   13loPI   C3B  207   2.766  10.183   8.513  0.1192  0.0977  0.1557
   13loPI   C4B  208   2.370  10.008   8.426 -0.2421 -0.1256 -0.1890
   14loPI    C1  209  11.752   2.288  10.533 -0.1939 -0.2434  0.1625
   14loPI    C2  210  11.568   2.621  10.657 -0.0050 -0.0256 -0.1283
   14loPI    C3  211  11.877   2.473  10.864  0.0525  0.1070 -0.1182
   14loPI   PO4  212  11.733   2.376  10.256  0.0059  0.2747 -0.0936
   14loPI   GL1  213  11.706   2.497   9.850 -0.2995  0.0696  0.1047
   14loPI   GL2  214  11.502   2.712   9.890  0.1765 -0.0249 -0.1754
   14loPI   C1A  215  11.762   2.400   9.405 -0.5158  0.1537 -0.0639
   14loPI   C2A  216  11.808   2.421   9.025 -0.2082  0.1010 -0.0384
   14loPI   C3A  217  11.912   2.322   8.497 -0.4822 -0.0056  0.0499
   14loPI   C4A  218  12.037   2.528   8.183 -0.0492 -0.1809 -0.0845
   14loPI   C5A  219  12.058   2.582   7.729  0.0089 -0.2985 -0.3370
   14loPI   C6A  220  12.386   2.510   7.505  0.0791 -0.0871  0.0432
   14loPI   C1B  221  11.574   2.868   9.398 -0.0836 -0.1159 -0.1620
   14loPI   C2B  222  11.552   2.825   8.982 -0.2409 -0.0499  0.1215
   14loPI   C3B  223  11.536   2.653   8.532  0.0475 -0.0504  0.0382
   14loPI   C4B  224  11.266   2.753   8.090 -0.2119 -0.0542 -0.0335
   15loPI    C1  225  14.981  12.550  10.649 -0.0938  0.2144  0.0276
   15loPI    C2  226  15.144  12.705  10.979  0.0689 -0.1209  0.1091
   15loPI    C3  227  15.106  12.309  10.943 -0.2795 -0.0704 -0.1223
   15loPI   PO4  228  15.131  12.568  10.466 -0.0525  0.3700  0.1755
   15loPI   GL1  229  15.060  12.679   9.970 -0.0573  0.0396 -0.1354
   15loPI   GL2  230  14.864  12.540   9.855  0.0298  0.4917 -0.2188
   15loPI   C1A  231  15.099  13.007   9.610  0.0001 -0.2252  0.2846
   15loPI   C2A  232  15.099  13.275   9.350  0.4138  0.0819 -0.3302
   15loPI   C3A  233  15.143  13.682   9.248  0.1076 -0.3139 -0.1653
   15loPI   C4A  234  15.075  13.820   8.795 -0.1510 -0.1385  0.0467
   15loPI   C5A  235  15.218  13.604   8.435 -0.1380  0.0770 -0.0883
   15loPI   C6A  236  15.257  13.289   8.131 -0.0905  0.1578  0.0410
   15loPI   C1B  237  14.887  12.440   9.475  0.0172 -0.1614  0.0253
   15loPI   C2B  238  14.922  12.447   9.062 -0.2556  0.2650 -0.0004
   15loPI   C3B  239  14.976  12.532   8.678 -0.0892 -0.2404 -0.1880
   15loPI   C4B  240  14.841  12.920   8.415  0.1093  0.1509  0.1568
   16loPI    C1  241   8.160  17.535  10.358  0.2867  0.3636 -0.4004
   16loPI    C2  242   7.977  17.890  10.387 -0.1967  0.0887  0.1034
   16loPI    C3  243   8.289  17.806  10.622 -0.1144  0.1584  0.0198
   16loPI   PO4  244   8.063  17.445  10.183 -0.1014  0.1221  0.0953
   16loPI   GL1  245   8.061  17.417   9.802 -0.0073  0.1219  0.3265
   16loPI   GL2  246   8.080  17.063   9.787 -0.0352 -0.2699 -0.2223
   16loPI   C1A  247   7.984  17.447   9.357 -0.1789  0.2393  0.1761
   16loPI   C2A  248   8.164  17.572   8.893  0.2147 -0.1484 -0.2971
   16loPI   C3A  249   8.250  17.469   8.391  0.0300 -0.4055 -0.1101
   16loPI   C4A  250   8.166  17.515   7.953 -0.4124 -0.1766 -0.1452
   16loPI   C5A  251   8.155  17.793   7.551  0.0603 -0.0014  0.3157
   16loPI   C6A  252   8.167  17.947   7.063 -0.3150 -0.1721  0.1751
   16loPI   C1B  253   8.179  16.967   9.274 -0.4718 -0.1789 -0.1156
   16loPI   C2B  254   8.251  16.931   8.756 -0.0154  0.0723 -0.1668
   16loPI   C3B  255   8.196  16.963   8.304  0.0456 -0.0939  0.0949
   16loPI   C4B  256   8.514  17.060   7.944 -0.0904 -0.1489  0.0487
   17loPI    C1  257   1.598  11.475  10.711  0.2127  0.0694 -0.1579
   17loPI    C2  258   1.515  11.451  11.101  0.0186 -0.1716 -0.2111
   17loPI    C3  259   1.539  11.808  10.923 -0.2441 -0.0720 -0.0521
   17loPI   PO4  260   1.422  11.312  10.604 -0.1098  0.0284 -0.0233
   17loPI   GL1  261   1.482  11.310  10.206 -0.0210 -0.2449 -0.0712
   17loPI   GL2  262   1.690  11.131  10.148 -0.1215  0.1159 -0.1757
   17loPI   C1A  263   1.213  10.954   9.897 -0.0543 -0.0413 -0.0606
   17loPI   C2A  264   1.237  10.843   9.507 -0.1931  0.0943  0.1423
   17loPI   C3A  265   1.355  10.748   9.022 -0.2472 -0.0107 -0.0446
   17loPI   C4A  266   1.407  10.668   8.576  0.0243  0.0293 -0.2452
   17loPI   C5A  267   1.570  10.525   8.176  0.0682 -0.1913 -0.0080
   17loPI   C6A  268   1.734  10.190   7.880  0.1466  0.3624 -0.0708
   17loPI   C1B  269   1.660  11.165   9.643 -0.0634  0.1910  0.0436
   17loPI   C2B  270   1.620  11.139   9.189  0.0872  0.0522 -0.0240
   17loPI   C3B  271   1.816  11.076   8.699  0.1802 -0.1968  0.0862
   17loPI   C4B  272   1.637  11.029   8.374  0.3422  0.3755  0.2325
   18loPI    C1  273  17.675   7.486  10.843  0.3823 -0.0940 -0.1523
   18loPI    C2  274  17.418   7.405  10.547  0.1190  0.2192 -0.0161
   18loPI    C3  275  17.599   7.762  10.562  0.2690  0.1389  0.1023
   18loPI   PO4  276  17.959   7.328  10.681 -0.1841  0.2616 -0.2094
   18loPI   GL1  277  18.081   7.292  10.234 -0.1242  0.1396 -0.0861
   18loPI   GL2  278  17.999   7.569  10.213 -0.1585  0.3043 -0.1618
   18loPI   C1A  279  18.196   7.129   9.794 -0.0032 -0.1080  0.2875
   18loPI   C2A  280  18.096   6.996   9.409  0.1303 -0.0473  0.3347
   18loPI   C3A  281  18.187   7.016   8.978  0.2224 -0.1396  0.2197
   18loPI   C4A  282  18.102   7.034   8.492  0.1882 -0.1191 -0.2652
   18loPI   C5A  283  17.706   6.957   8.249 -0.0263  0.1629 -0.1947
   18loPI   C6A  284  17.306   7.067   8.142 -0.2181  0.4967  0.1023
   18loPI   C1B  285  17.691   7.244   9.968  0.1858  0.2330  0.1797
   18loPI   C2B  286  17.660   7.172   9.505  0.0815 -0.2915  0.1202
   18loPI   C3B  287  17.703   7.167   9.072 -0.1266 -0.1301 -0.0703
   18loPI   C4B  288  17.630   7.117   8.741 -0.0224  0.1029  0.1944
   19loPI    C1  289   6.956  16.644  10.331 -0.2755 -0.0412  0.0719
   19loPI    C2  290   7.249  16.634  10.603 -0.0677 -0.0704 -0.1496
   19loPI    C3  291   7.201  16.957  10.373 -0.3779  0.0406  0.0640
   19loPI   PO4  292   7.033  16.419  10.166  0.1344  0.0431 -0.0539
   19loPI   GL1  293   6.964  16.456   9.714 -0.0578 -0.1436 -0.1590
   19loPI   GL2  294   7.244  16.493   9.475 -0.3394 -0.1602 -0.2461
   19loPI   C1A  295   6.844  16.268   9.338  0.0965 -0.0590  0.1086
   19loPI   C2A  296   7.090  16.065   9.049 -0.2103  0.2451  0.0389
   19loPI   C3A  297   7.302  16.187   8.662 -0.0064  0.3223 -0.0941
   19loPI   C4A  298   7.317  15.870   8.299  0.2131  0.2056 -0.0402
   19loPI   C5A  299   7.255  15.895   7.886 -0.0892  0.1243 -0.0444
   19loPI   C6A  300   6.991  15.670   7.506 -0.0696 -0.0735  0.1858
   19loPI   C1B  301   7.513  16.248   9.260  0.0138 -0.0816 -0.1245
   19loPI   C2B  302   7.614  15.963   8.901 -0.3552  0.0169  0.3695
   19loPI   C3B  303   7.713  15.701   8.518 -0.1706  0.0472 -0.0226
   19loPI   C4B  304   7.664  15.623   8.054 -0.0215 -0.2325  0.0027
   20loPI    C1  305  10.552  12.367  10.570  0.0572 -0.0123 -0.0309
   20loPI    C2  306  10.799  12.419  10.880 -0.1237 -0.0598  0.1229
   20loPI    C3  307  10.403  12.439  10.934 -0.1582 -0.1326 -0.0934
   20loPI   PO4  308  10.734  12.123  10.444  0.0577 -0.1737  0.0343
   20loPI   GL1  309  10.602  11.933  10.079 -0.0507 -0.3489 -0.1174
   20loPI   GL2  310  10.439  12.125   9.942 -0.1665 -0.4013  0.2508
   20loPI   C1A  311  10.905  12.029   9.789  0.1152 -0.0891 -0.0063
   20loPI   C2A  312  10.963  12.091   9.338 -0.0144 -0.1174  0.0747
   20loPI   C3A  313  10.773  11.981   8.974 -0.2399  0.0777 -0.0591
   20loPI   C4A  314  10.795  11.637   8.640  0.0063 -0.2491  0.0136
   20loPI   C5A  315  10.837  11.484   8.251  0.0034 -0.1386  0.0056
   20loPI   C6A  316  11.190  11.574   8.006  0.1188  0.2343  0.4001
   20loPI   C1B  317  10.460  12.219   9.492 -0.0055 -0.0037 -0.0785
   20loPI   C2B  318  10.318  12.168   9.154 -0.0199 -0.2766 -0.0368
   20loPI   C3B  319  10.366  12.104   8.727  0.0455  0.1416 -0.3374
   20loPI   C4B  320  10.530  11.933   8.392 -0.0604 -0.1002  0.0945
   21loPI    C1  321   5.795  13.468  10.425 -0.0716  0.2124  0.1445
   21loPI    C2  322   6.114  13.554  10.199 -0.1373 -0.0605 -0.0576
   21loPI    C3  323   6.162  13.375  10.554 -0.0499  0.1451  0.0358
   21loPI   PO4  324   5.684  13.285  10.230 -0.2844 -0.0960  0.4912
   21loPI   GL1  325   5.661  13.290   9.792 -0.2926  0.1464 -0.0332
   21loPI   GL2  326   5.931  13.379   9.783 -0.2326  0.1050 -0.0128
   21loPI   C1A  327   5.662  13.340   9.376  0.0712 -0.0974 -0.2968
   21loPI   C2A  328   5.485  13.457   8.976  0.1074 -0.3129 -0.1819
   21loPI   C3A  329   5.463  13.774   8.698  0.1043  0.1651 -0.0509
   21loPI   C4A  330   5.436  14.057   8.348  0.4475 -0.0824 -0.0530
   21loPI   C5A  331   5.234  14.261   7.978  0.0349  0.0613 -0.1584
   21loPI   C6A  332   4.883  14.380   7.771 -0.2142  0.0278 -0.0379
   21loPI   C1B  333   6.187  13.495   9.421 -0.1082 -0.2392 -0.5456
   21loPI   C2B  334   6.091  13.461   9.061 -0.1637 -0.1984  0.1758
   21loPI   C3B  335   5.909  13.674   8.644 -0.0931  0.1465  0.1226
   21loPI   C4B  336   5.634  13.562   8.308 -0.0795 -0.0523  0.0624
   22loPI    C1  337  11.287   6.024  10.650  0.0660  0.0588 -0.1341
   22loPI    C2  338  11.018   6.263  10.826  0.0765  0.0043 -0.0431
   22loPI    C3  339  11.125   5.920  11.001  0.2553  0.0575 -0.0460
   22loPI   PO4  340  11.391   6.143  10.520  0.2994  0.0122  0.1307
   22loPI   GL1  341  11.511   6.208  10.060 -0.2234 -0.0390  0.0495
   22loPI   GL2  342  11.722   5.877  10.228  0.1090 -0.0328 -0.0980
   22loPI   C1A  343  11.479   6.246   9.558  0.1263  0.2350  0.1475
   22loPI   C2A  344  11.429   6.271   9.182 -0.0868  0.1692  0.0553
   22loPI   C3A  345  11.425   6.230   8.758  0.1463  0.0866  0.3197
   22loPI   C4A  346  11.220   6.014   8.391  0.2206 -0.0021  0.0592
   22loPI   C5A  347  11.193   6.053   7.956 -0.0216 -0.1482 -0.0892
   22loPI   C6A  348  11.296   6.119   7.607  0.1322  0.0254 -0.0595
   22loPI   C1B  349  11.863   5.922   9.801 -0.2271  0.0026  0.0198
   22loPI   C2B  350  11.842   5.902   9.356  0.1380  0.1101  0.1572
   22loPI   C3B  351  11.981   5.845   8.975 -0.2044 -0.1670  0.0271
   22loPI   C4B  352  12.428   5.821   8.661  0.1547 -0.1882 -0.0413
   23loPI    C1  353   7.121  13.876  10.358 -0.2304  0.4612 -0.2138
   23loPI    C2  354   6.784  14.004  10.531 -0.1193  0.0642  0.3208
   23loPI    C3  355   7.008  13.726  10.711  0.3742  0.1468 -0.1415
   23loPI   PO4  356   7.055  13.777  10.150  0.1141 -0.0453 -0.0209
   23loPI   GL1  357   6.970  13.483   9.940  0.0457  0.2845  0.0872
   23loPI   GL2  358   6.998  13.175   9.904 -0.0906 -0.0255 -0.4743
   23loPI   C1A  359   7.172  13.437   9.534  0.0287  0.1382  0.1774
   23loPI   C2A  360   7.295  13.316   9.234  0.1613 -0.3351 -0.0677
   23loPI   C3A  361   7.366  13.315   8.789 -0.1241 -0.0028 -0.3188
   23loPI   C4A  362   7.600  13.741   8.731  0.0674 -0.2361  0.0153
   23loPI   C5A  363   7.582  14.238   8.932 -0.0785  0.4386  0.2432
   23loPI   C6A  364   7.344  14.339   9.063 -0.0179 -0.1189 -0.0133
   23loPI   C1B  365   7.154  12.928   9.585 -0.2727  0.1137 -0.0747
   23loPI   C2B  366   7.258  12.813   9.181 -0.3760  0.2020  0.1113
   23loPI   C3B  367   7.295  12.756   8.786 -0.0641 -0.3118 -0.1029
   23loPI   C4B  368   7.349  12.992   8.380  0.2675  0.0280 -0.3348
   24loPI    C1  369   0.430  16.774  10.220  0.0106 -0.0503  0.0938
   24loPI    C2  370   0.750  16.546  10.290 -0.0607 -0.0967  0.2731
   24loPI    C3  371   0.708  16.895  10.480 -0.0238 -0.0009  0.1080
   24loPI   PO4  372   0.435  16.797  10.027 -0.2930  0.0757  0.0674
   24loPI   GL1  373   0.592  17.000   9.719 -0.3677  0.1464  0.2730
   24loPI   GL2  374   0.915  17.047   9.767  0.0293 -0.2389  0.4106
   24loPI   C1A  375   0.479  16.809   9.361  0.2085  0.0123 -0.0055
   24loPI   C2A  376   0.570  16.613   9.048 -0.0351 -0.0115  0.0797
   24loPI   C3A  377   0.646  16.621   8.612  0.0643 -0.0895  0.0988
   24loPI   C4A  378   0.825  16.437   8.219  0.2980 -0.0129  0.2134
   24loPI   C5A  379   0.379  16.624   7.853 -0.0611 -0.2033  0.1094
   24loPI   C6A  380  -0.146  16.568   7.705  0.3652  0.2627 -0.2097
   24loPI   C1B  381   0.938  16.938   9.357  0.0219  0.0783 -0.1465
   24loPI   C2B  382   1.051  16.768   8.940  0.3278 -0.0340 -0.0326
   24loPI   C3B  383   1.187  16.555   8.521  0.3203  0.0565  0.0244
   24loPI   C4B  384   1.359  16.339   8.269 -0.2350  0.2675 -0.2377
   25loPI    C1  385   5.149  13.287  10.306  0.3776  0.3730 -0.2033
   25loPI    C2  386   5.326  12.951  10.431 -0.1429  0.0761 -0.2354
   25loPI    C3  387   5.375  13.291  10.636  0.0250 -0.1207  0.0579
   25loPI   PO4  388   5.182  13.278  10.092  0.1199 -0.1300 -0.1645
   25loPI   GL1  389   5.258  13.056   9.692  0.2913  0.2159  0.1087
   25loPI   GL2  390   5.242  13.474   9.632  0.0082 -0.1250 -0.0083
   25loPI   C1A  391   5.232  12.951   9.262 -0.1411 -0.0262 -0.0425
   25loPI   C2A  392   5.139  12.731   8.854  0.1233  0.0986  0.0139
   25loPI   C3A  393   4.969  12.664   8.430 -0.2538 -0.1371 -0.1047
   25loPI   C4A  394   4.687  12.603   8.077 -0.0659 -0.1286 -0.0448
   25loPI   C5A  395   4.539  12.271   7.944 -0.1784 -0.1780  0.0001
   25loPI   C6A  396   4.216  12.010   7.711 -0.0069  0.1018  0.0269
   25loPI   C1B  397   5.231  13.713   9.347  0.0339 -0.4396  0.1452
   25loPI   C2B  398   5.255  14.053   9.081 -0.4167 -0.0326  0.2312
   25loPI   C3B  399   5.151  14.427   8.743 -0.1237 -0.3112  0.1348
   25loPI   C4B  400   4.919  14.227   8.430  0.0034  0.3512 -0.1470
   26loPI    C1  401   0.075   4.135  10.734 -0.0081 -0.0291 -0.3508
   26loPI    C2  402   0.117   4.511  10.863  0.0213 -0.1234 -0.0782
   26loPI    C3  403   0.003   4.224  11.117  0.1714 -0.3322 -0.2430
   26loPI   PO4  404   0.228   3.988  10.521 -0.1597  0.1454  0.0544
   26loPI   GL1  405   0.579   4.076  10.239 -0.1925 -0.2106  0.0178
   26loPI   GL2  406   0.383   4.199  10.103  0.0429 -0.2255 -0.0387
   26loPI   C1A  407   0.690   3.780   9.888  0.1576  0.0354  0.1802
   26loPI   C2A  408   0.962   3.882   9.607  0.0619  0.0005 -0.1157
   26loPI   C3A  409   0.950   3.996   9.211 -0.1339  0.3947  0.2580
   26loPI   C4A  410   0.986   4.202   8.851  0.1398  0.2769  0.0003
   26loPI   C5A  411   0.977   4.339   8.497  0.1263 -0.1050  0.1768
   26loPI   C6A  412   1.156   4.136   8.124  0.1864  0.4230  0.0165
   26loPI   C1B  413   0.605   4.330   9.645  0.1768  0.0867 -0.1134
   26loPI   C2B  414   0.621   4.389   9.156 -0.0591 -0.1072 -0.1241
   26loPI   C3B  415   0.417   4.503   8.662  0.0958 -0.0597 -0.1678
   26loPI   C4B  416   0.314   4.402   8.228 -0.1305  0.1153 -0.1723
   27loPI    C1  417   4.604  16.105  10.536 -0.0801 -0.1861 -0.0016
   27loPI    C2  418   4.868  15.993  10.815  0.1483 -0.0977 -0.1794
   27loPI    C3  419   4.657  16.329  10.863  0.1705 -0.0947 -0.1027
   27loPI   PO4  420   4.646  16.056  10.254 -0.0681  0.1192 -0.0942
   27loPI   GL1  421   4.840  16.370   9.910 -0.0501 -0.2870 -0.1174
   27loPI   GL2  422   4.973  16.159   9.677  0.3094  0.0179 -0.0374
   27loPI   C1A  423   4.893  16.583   9.377  0.0584 -0.0610  0.0275
   27loPI   C2A  424   4.978  16.812   9.013  0.0399 -0.1667 -0.0423
   27loPI   C3A  425   5.173  16.870   8.593  0.2418 -0.1839  0.0540
   27loPI   C4A  426   5.344  16.921   8.302  0.1212  0.2558 -0.2144
   27loPI   C5A  427   5.422  16.967   7.903 -0.0619  0.0292 -0.1880
   27loPI   C6A  428   5.651  16.773   7.596 -0.0078 -0.1426  0.1125
   27loPI   C1B  429   5.315  16.017   9.519  0.2390 -0.0816 -0.0858
   27loPI   C2B  430   5.516  16.015   9.096  0.1774  0.1881 -0.0100
   27loPI   C3B  431   5.708  15.872   8.760  0.0855  0.0326  0.3396
   27loPI   C4B  432   5.680  15.527   8.393 -0.1901 -0.1760 -0.2042
   28loPI    C1  433  16.693  12.853  10.107  0.0731  0.2341  0.0581
   28loPI    C2  434  16.465  12.568  10.269 -0.0951  0.2670 -0.1172
   28loPI    C3  435  16.712  12.781  10.500 -0.0704  0.0748  0.0369
   28loPI   PO4  436  16.535  13.047  10.008 -0.1356  0.1277 -0.0248
   28loPI   GL1  437  16.280  13.055   9.624  0.0697  0.3217  0.2079
   28loPI   GL2  438  16.022  13.129   9.779 -0.0944 -0.2152  0.1986
   28loPI   C1A  439  16.431  12.954   9.151  0.1703 -0.1098 -0.1979
   28loPI   C2A  440  16.598  13.147   8.777  0.1033  0.1076 -0.1279
   28loPI   C3A  441  16.669  13.453   8.469 -0.0714 -0.1061  0.0744
   28loPI   C4A  442  16.827  13.767   8.201 -0.0803  0.3668 -0.1519
   28loPI   C5A  443  17.174  13.891   7.944 -0.3949 -0.2820 -0.1326
   28loPI   C6A  444  17.154  14.351   7.932 -0.1029  0.0769  0.2315
   28loPI   C1B  445  16.241  13.509   9.633 -0.0657  0.4622 -0.1973
   28loPI   C2B  446  16.469  13.546   9.227  0.1316  0.0014  0.1099
   28loPI   C3B  447  16.370  13.602   8.829  0.2058 -0.0671 -0.0659
   28loPI   C4B  448  16.175  13.384   8.447  0.1731 -0.2227 -0.0355
   29loPI    C1  449   0.270   6.064  10.628  0.1876 -0.2456  0.3268
   29loPI    C2  450   0.109   5.726  10.487  0.1116 -0.0435 -0.0861
   29loPI    C3  451  -0.127   6.031  10.593  0.1837 -0.0876  0.2087
   29loPI   PO4  452   0.465   6.132  10.352 -0.0760 -0.2698 -0.4022
   29loPI   GL1  453   0.561   6.066   9.915  0.1088  0.2528 -0.1247
   29loPI   GL2  454   0.552   5.736   9.900 -0.1350  0.0464  0.2716
   29loPI   C1A  455   0.775   6.112   9.608 -0.1129 -0.0775 -0.1041
   29loPI   C2A  456   0.788   5.899   9.215 -0.0773  0.2512 -0.1344
   29loPI   C3A  457   0.700   6.058   8.742  0.1505  0.3743 -0.2354
   29loPI   C4A  458   0.753   6.118   8.346  0.0621  0.0353 -0.1242
   29loPI   C5A  459   0.930   6.053   8.001 -0.0632  0.0632  0.2340
   29loPI   C6A  460   0.791   5.801   7.621  0.2585 -0.0708 -0.4692
   29loPI   C1B  461   0.352   5.694   9.468  0.0878 -0.0315 -0.0255
   29loPI   C2B  462   0.363   5.704   9.022  0.2865  0.0834 -0.1091
   29loPI   C3B  463   0.472   5.416   8.641 -0.0632 -0.1604 -0.1319
   29loPI   C4B  464   0.310   5.005   8.442  0.1965 -0.1186 -0.0104
   30loPI    C1  465   0.119  11.794  10.624  0.0091  0.1178 -0.0455
   30loPI    C2  466   0.175  11.400  10.664 -0.0138  0.1129 -0.0606
   30loPI    C3  467  -0.196  11.549  10.653 -0.0049  0.1376 -0.0295
   30loPI   PO4  468   0.272  11.858  10.378  0.1301 -0.1303  0.0870
   30loPI   GL1  469   0.227  11.786   9.942 -0.1300 -0.1108  0.2997
   30loPI   GL2  470   0.554  11.585   9.980 -0.0021 -0.0307 -0.0686
   30loPI   C1A  471  -0.088  11.680   9.674  0.0246 -0.1260  0.0024
   30loPI   C2A  472  -0.089  11.621   9.165  0.4187  0.0092 -0.1814
   30loPI   C3A  473  -0.098  11.492   8.755 -0.0638 -0.2073  0.1569
   30loPI   C4A  474  -0.019  11.489   8.348  0.1377 -0.1712 -0.0748
   30loPI   C5A  475  -0.018  11.608   7.991 -0.3772  0.0748 -0.1951
   30loPI   C6A  476  -0.175  11.899   7.761 -0.3433 -0.1855  0.0102
   30loPI   C1B  477   0.701  11.561   9.558  0.0688  0.1256 -0.0884
   30loPI   C2B  478   0.762  11.520   9.150  0.0651 -0.3416  0.3243
   30loPI   C3B  479   0.818  11.663   8.867 -0.0434 -0.1754 -0.0685
   30loPI   C4B  480   0.940  11.718   8.383 -0.0622  0.0216 -0.0105
   31loPI    C1  481   8.840   2.337   9.992 -0.0762 -0.2984  0.0096
   31loPI    C2  482   8.671   2.305  10.354 -0.0604  0.3563  0.0868
   31loPI    C3  483   9.065   2.370  10.321 -0.0380  0.1593 -0.0562
   31loPI   PO4  484   8.719   2.120   9.817  0.2167  0.0650 -0.1539
   31loPI   GL1  485   8.657   2.037   9.340 -0.0319  0.3095 -0.3113
   31loPI   GL2  486   8.431   2.217   9.422 -0.0599  0.0534  0.1187
   31loPI   C1A  487   8.707   1.916   8.909 -0.0739 -0.3094 -0.1514
   31loPI   C2A  488   8.679   1.864   8.495 -0.2252  0.0859 -0.1014
   31loPI   C3A  489   8.646   1.617   8.052  0.0386 -0.2926 -0.0706
   31loPI   C4A  490   8.610   1.241   7.818  0.1291 -0.1140 -0.1350
   31loPI   C5A  491   8.321   1.215   7.667  0.2139  0.4001  0.0227
   31loPI   C6A  492   8.053   0.953   7.491  0.3327 -0.2856  0.1033
   31loPI   C1B  493   8.338   2.319   8.983 -0.0981 -0.1083 -0.2560
   31loPI   C2B  494   8.323   2.314   8.506 -0.0194 -0.0323 -0.3663
   31loPI   C3B  495   8.059   2.454   8.185 -0.0523  0.2117 -0.3139
   31loPI   C4B  496   8.000   2.696   7.764 -0.1835  0.2818 -0.0542
   32loPI    C1  497   5.575   5.204  10.353  0.0897  0.1589 -0.0471
   32loPI    C2  498   5.252   5.410  10.239 -0.0698  0.0382  0.1801
   32loPI    C3  499   5.210   5.054  10.416  0.1884  0.0199  0.2077
   32loPI   PO4  500   5.719   5.204  10.167 -0.1717 -0.3791 -0.0269
   32loPI   GL1  501   5.965   4.990   9.822 -0.1809  0.4413 -0.1920
   32loPI   GL2  502   5.697   4.865   9.670 -0.2229  0.0669  0.0082
   32loPI   C1A  503   6.106   4.903   9.387 -0.1313 -0.1458 -0.0194
   32loPI   C2A  504   6.000   4.793   8.951  0.0023 -0.1868 -0.4175
   32loPI   C3A  505   6.182   4.667   8.693  0.0322  0.3047 -0.0172
   32loPI   C4A  506   6.265   4.344   8.499  0.0150 -0.1246  0.2142
   32loPI   C5A  507   6.044   4.202   8.087 -0.0894 -0.0909 -0.1054
   32loPI   C6A  508   5.757   4.188   7.849 -0.2172  0.2614 -0.1016
   32loPI   C1B  509   5.410   4.705   9.344 -0.3159  0.0922  0.2340
   32loPI   C2B  510   5.447   4.657   8.962 -0.0307  0.2522  0.2029
   32loPI   C3B  511   5.188   4.616   8.772 -0.2205  0.3942 -0.0379
   32loPI   C4B  512   5.172   4.702   8.451  0.2585  0.0138  0.0484
   33loPI    C1  513   6.241   5.855  10.449 -0.0774 -0.0873 -0.0149
   33loPI    C2  514   6.211   5.930  10.841 -0.4847 -0.1612 -0.0272
   33loPI    C3  515   5.954   6.098  10.585 -0.0952  0.0493 -0.2903
   33loPI   PO4  516   6.443   5.935  10.351 -0.0394 -0.2250  0.0616
   33loPI   GL1  517   6.533   5.906   9.990 -0.0884  0.0696  0.3134
   33loPI   GL2  518   6.678   5.635   9.921 -0.2269  0.0965  0.0389
   33loPI   C1A  519   6.554   6.049   9.501  0.0485  0.3027 -0.3731
   33loPI   C2A  520   6.313   5.905   9.157 -0.0641 -0.0048  0.0126
   33loPI   C3A  521   6.081   5.744   8.841  0.1425  0.0242  0.4103
   33loPI   C4A  522   5.865   5.894   8.480 -0.0836 -0.0860 -0.3011
   33loPI   C5A  523   5.804   5.882   8.057 -0.1010 -0.2760  0.0797
   33loPI   C6A  524   5.553   6.020   7.792 -0.1291  0.0166 -0.0508
   33loPI   C1B  525   6.700   5.544   9.475 -0.0041 -0.1867 -0.1292
   33loPI   C2B  526   6.728   5.464   8.968  0.0978 -0.0803 -0.1701
   33loPI   C3B  527   6.711   5.537   8.520  0.0691 -0.0842  0.0037
   33loPI   C4B  528   6.601   5.254   8.160 -0.1402 -0.1456  0.1091
   34loPI    C1  529   0.940   2.300  10.417  0.2175 -0.1050  0.1729
   34loPI    C2  530   0.898   2.055  10.730 -0.0933 -0.1945  0.0655
   34loPI    C3  531   0.628   2.342  10.664  0.0565 -0.0743 -0.0323
   34loPI   PO4  532   1.010   2.189  10.260  0.0061 -0.0685 -0.0879
   34loPI   GL1  533   1.089   1.801   9.955  0.1810  0.2687  0.0347
   34loPI   GL2  534   1.298   1.925   9.946 -0.0282  0.1074 -0.0796
   34loPI   C1A  535   1.029   1.852   9.530  0.0104 -0.0670 -0.0311
   34loPI   C2A  536   0.814   2.030   9.173 -0.0208 -0.1520  0.0649
   34loPI   C3A  537   0.777   2.148   8.675 -0.0976 -0.1297 -0.0324
   34loPI   C4A  538   0.922   2.403   8.349  0.1148  0.1776 -0.3300
   34loPI   C5A  539   0.898   2.848   8.177 -0.0140 -0.4695 -0.2075
   34loPI   C6A  540   0.798   2.830   7.794 -0.1342  0.2206 -0.1002
   34loPI   C1B  541   1.533   1.932   9.619  0.3046 -0.0373 -0.0483
   34loPI   C2B  542   1.567   1.766   9.139  0.0471 -0.2519  0.1149
   34loPI   C3B  543   1.607   1.950   8.656  0.2713 -0.0262 -0.2494
   34loPI   C4B  544   1.708   1.904   8.111 -0.0648 -0.1304 -0.1270
   35loPI    C1  545   4.769   6.820  10.458 -0.1849 -0.1915 -0.0421
   35loPI    C2  546   4.616   6.546  10.706 -0.1035 -0.1585  0.0453
   35loPI    C3  547   4.584   6.934  10.794  0.0850 -0.1534  0.0965
   35loPI   PO4  548   4.772   6.881  10.282 -0.0646  0.1038  0.0710
   35loPI   GL1  549   4.968   6.929   9.849 -0.1097  0.0695 -0.1727
   35loPI   GL2  550   5.021   7.146   9.595  0.2153  0.3588  0.1674
   35loPI   C1A  551   4.964   6.717   9.393  0.1038  0.3901 -0.0876
   35loPI   C2A  552   5.034   6.664   9.016  0.0961  0.2152 -0.0345
   35loPI   C3A  553   4.932   6.446   8.744  0.1081 -0.0467  0.2277
   35loPI   C4A  554   4.758   6.361   8.378  0.1731  0.1801  0.2388
   35loPI   C5A  555   4.649   6.250   7.952 -0.0618 -0.1503  0.1491
   35loPI   C6A  556   4.433   6.130   7.548  0.1052  0.0828  0.0922
   35loPI   C1B  557   5.193   7.331   9.119 -0.0015 -0.3263 -0.1504
   35loPI   C2B  558   5.049   7.192   8.785  0.3120  0.1032 -0.0274
   35loPI   C3B  559   5.120   7.163   8.385 -0.0690  0.0071 -0.1095
   35loPI   C4B  560   5.075   7.102   8.026 -0.0944 -0.1940  0.0447
   36loPI    C1  561  14.804  16.437  10.603 -0.2933  0.1262  0.0158
   36loPI    C2  562  15.048  16.750  10.555  0.0166 -0.1160 -0.0192
   36loPI    C3  563  14.884  16.678  10.912 -0.0021  0.0465  0.0058
   36loPI   PO4  564  14.665  16.491  10.370 -0.0214  0.0102  0.0919
   36loPI   GL1  565  14.363  16.554  10.073  0.3071 -0.2114  0.2001
   36loPI   GL2  566  14.325  16.832   9.956 -0.3054  0.1982  0.0133
   36loPI   C1A  567  14.235  16.299   9.762 -0.0801 -0.2253  0.1743
   36loPI   C2A  568  14.244  16.243   9.396 -0.1868  0.4215 -0.0020
   36loPI   C3A  569  14.330  16.086   9.023 -0.1155  0.1582  0.1694
   36loPI   C4A  570  14.326  16.069   8.633  0.1744  0.4328  0.1282
   36loPI   C5A  571  14.172  15.812   8.273 -0.0135  0.2349  0.2161
   36loPI   C6A  572  13.798  15.692   8.182  0.1711  0.2515 -0.0200
   36loPI   C1B  573  14.326  16.721   9.446 -0.1996  0.2289 -0.0731
   36loPI   C2B  574  14.373  16.688   8.999 -0.0596  0.0501 -0.4113
   36loPI   C3B  575  14.292  16.542   8.635  0.3094  0.0709 -0.3759
   36loPI   C4B  576  14.236  16.370   8.201  0.0492 -0.3485  0.2519
   37loPI    C1  577  12.663   2.565  10.501 -0.0180  0.0118 -0.1416
   37loPI    C2  578  12.278   2.489  10.578 -0.0745  0.0389 -0.3908
   37loPI    C3  579  12.421   2.860  10.620 -0.0250 -0.0103 -0.1007
   37loPI   PO4  580  12.674   2.509  10.248  0.1774  0.0872 -0.0543
   37loPI   GL1  581  12.635   2.431   9.851  0.1393  0.5694  0.0235
   37loPI   GL2  582  12.558   2.132   9.899  0.0846  0.1354 -0.1096
   37loPI   C1A  583  12.357   2.492   9.464 -0.1620  0.0227 -0.2556
   37loPI   C2A  584  12.288   2.444   9.043 -0.1784 -0.1111  0.3509
   37loPI   C3A  585  12.425   2.571   8.619  0.0383  0.0052 -0.0444
   37loPI   C4A  586  12.441   2.813   8.189  0.1771  0.0463 -0.2558
   37loPI   C5A  587  12.546   2.884   7.839 -0.1199  0.2569  0.0832
   37loPI   C6A  588  12.809   3.143   7.627  0.1497 -0.0690 -0.0939
   37loPI   C1B  589  12.638   2.089   9.441 -0.0250 -0.2221 -0.1025
   37loPI   C2B  590  12.734   2.075   8.980  0.1525  0.1663 -0.3228
   37loPI   C3B  591  12.829   2.268   8.538 -0.1212 -0.1693  0.0811
   37loPI   C4B  592  13.078   2.337   8.164  0.1338  0.2189  0.3388
   38loPI    C1  593  12.543  12.331  10.712  0.0844  0.1442 -0.1392
   38loPI    C2  594  12.275  12.520  10.482 -0.0056  0.1420 -0.0373
   38loPI    C3  595  12.290  12.595  10.875 -0.0311 -0.0503  0.0015
   38loPI   PO4  596  12.746  12.325  10.563  0.2183 -0.1164 -0.0443
   38loPI   GL1  597  12.746  12.208  10.130 -0.1355  0.2093  0.2007
   38loPI   GL2  598  12.453  12.242  10.107  0.2563  0.2537 -0.1375
   38loPI   C1A  599  12.723  12.051   9.716 -0.1177 -0.2998 -0.2044
   38loPI   C2A  600  12.580  11.759   9.496 -0.1328 -0.3365 -0.0713
   38loPI   C3A  601  12.316  11.761   9.153 -0.1174 -0.2099  0.0317
   38loPI   C4A  602  12.010  11.669   8.878  0.0461  0.0272  0.0779
   38loPI   C5A  603  12.034  11.584   8.421  0.2347 -0.1165 -0.1046
   38loPI   C6A  604  12.074  11.443   7.963 -0.1219 -0.0348  0.1167
   38loPI   C1B  605  12.299  12.334   9.738  0.0429 -0.0996 -0.0442
   38loPI   C2B  606  12.457  12.208   9.322 -0.2142  0.0289 -0.1911
   38loPI   C3B  607  12.858  12.150   9.276  0.2833 -0.0325 -0.0343
   38loPI   C4B  608  13.222  12.240   9.449 -0.4547 -0.1723  0.2756
   39loPI    C1  609  14.129   0.480  10.293 -0.1628 -0.0420  0.1057
   39loPI    C2  610  13.895   0.804  10.321 -0.2463 -0.0993  0.0727
   39loPI    C3  611  13.868   0.513  10.595 -0.2295 -0.1160  0.0566
   39loPI   PO4  612  14.058   0.410  10.026 -0.0531  0.1281  0.1807
   39loPI   GL1  613  14.215   0.262   9.744 -0.3490  0.0158  0.0512
   39loPI   GL2  614  14.378   0.566   9.559 -0.0848  0.1122 -0.1061
   39loPI   C1A  615  14.012   0.098   9.456  0.2396  0.2263  0.1352
   39loPI   C2A  616  13.979   0.112   9.039  0.0644 -0.2546 -0.0656
   39loPI   C3A  617  14.197   0.222   8.655 -0.2293 -0.2635 -0.2581
   39loPI   C4A  618  14.380   0.311   8.248  0.3240 -0.0459 -0.2054
   39loPI   C5A  619  14.392   0.664   7.993 -0.1779 -0.2844 -0.0087
   39loPI   C6A  620  14.466   0.601   7.446 -0.1191 -0.2627  0.3284
   39loPI   C1B  621  14.255   0.657   9.136 -0.1898  0.1788 -0.2722
   39loPI   C2B  622  14.195   0.840   8.725  0.2941  0.2096 -0.3498
   39loPI   C3B  623  14.126   0.696   8.439  0.1065  0.0178 -0.1958
   39loPI   C4B  624  13.943   0.535   8.117  0.0222 -0.1993  0.1557
   40loPI    C1  625  18.186   1.917  10.341  0.1385  0.0154  0.0065
   40loPI    C2  626  18.503   2.099  10.504  0.1862 -0.0844  0.0261
   40loPI    C3  627  18.344   1.778  10.681  0.0245  0.0127  0.0586
   40loPI   PO4  628  18.184   1.881  10.103  0.0166  0.2785 -0.0556
   40loPI   GL1  629  18.565   1.834   9.849 -0.2115 -0.1560 -0.1211
   40loPI   GL2  630  18.926   1.677   9.884 -0.1240 -0.2294  0.0930
   40loPI   C1A  631  18.759   1.882   9.450 -0.1103  0.2804 -0.2342
   40loPI   C2A  632  18.755   2.091   9.016 -0.0109 -0.1506  0.0637
   40loPI   C3A  633  18.636   2.113   8.621 -0.4206  0.3174  0.1368
   40loPI   C4A  634  18.798   2.285   8.234  0.2148  0.0447  0.1567
   40loPI   C5A  635  18.872   2.415   7.834  0.1988  0.1626 -0.0277
   40loPI   C6A  636  18.687   2.704   7.534 -0.2370 -0.0235 -0.0521
   40loPI   C1B  637  19.079   1.490   9.472 -0.0961  0.1202 -0.0367
   40loPI   C2B  638  19.289   1.545   9.095  0.0846  0.2142  0.1615
   40loPI   C3B  639  19.486   1.746   8.856  0.0052 -0.0127  0.0266
   40loPI   C4B  640  19.539   1.729   8.353  0.3641 -0.1142 -0.0246
   41loPI    C1  641   6.626  17.201  10.191 -0.0858 -0.1117  0.0151
   41loPI    C2  642   6.727  17.043  10.545 -0.0619 -0.3526 -0.0975
   41loPI    C3  643   6.351  17.012  10.412 -0.1195 -0.0839 -0.0030
   41loPI   PO4  644   6.803  17.053  10.029  0.3267 -0.0219 -0.1592
   41loPI   GL1  645   6.812  16.914   9.593  0.0622 -0.1654  0.3172
   41loPI   GL2  646   7.052  17.272   9.588 -0.2028  0.2354  0.1143
   41loPI   C1A  647   6.846  16.765   9.268  0.0818 -0.0976 -0.0693
   41loPI   C2A  648   7.089  16.535   8.974 -0.1805 -0.2085 -0.1992
   41loPI   C3A  649   7.072  16.582   8.547  0.1316  0.0546  0.1010
   41loPI   C4A  650   7.011  16.807   8.159  0.1078  0.2331  0.0858
   41loPI   C5A  651   7.038  17.131   7.819 -0.1040  0.0425 -0.0142
   41loPI   C6A  652   6.681  17.456   7.711 -0.1192  0.4217  0.0367
   41loPI   C1B  653   7.029  17.267   9.199  0.0797  0.0066  0.4452
   41loPI   C2B  654   6.871  17.122   8.801  0.1474 -0.2746 -0.0791
   41loPI   C3B  655   6.619  16.946   8.569  0.0732 -0.1569  0.0981
   41loPI   C4B  656   6.378  16.871   8.198 -0.1635  0.3666  0.0873
   42loPI    C1  657   5.156  12.620  10.732  0.1689 -0.0437 -0.0378
   42loPI    C2  658   5.502  12.432  10.803  0.2077  0.0387 -0.0077
   42loPI    C3  659   5.467  12.823  10.881  0.1328  0.0480 -0.0869
   42loPI   PO4  660   5.036  12.492  10.399  0.3576 -0.0744  0.6886
   42loPI   GL1  661   4.883  12.461   9.985  0.1156 -0.2509  0.0992
   42loPI   GL2  662   4.974  12.795   9.992 -0.1847 -0.0791  0.1408
   42loPI   C1A  663   5.328  12.497   9.826  0.1440 -0.0672  0.0110
   42loPI   C2A  664   5.314  12.444   9.344  0.1041  0.0457  0.4564
   42loPI   C3A  665   5.225  12.186   9.011  0.3403  0.0217  0.2076
   42loPI   C4A  666   5.150  12.177   8.487 -0.0206 -0.0735 -0.0793
   42loPI   C5A  667   5.097  12.271   8.069 -0.2967  0.0121 -0.0026
   42loPI   C6A  668   4.929  12.121   7.665 -0.0758 -0.0577 -0.0764
   42loPI   C1B  669   4.828  12.711   9.577 -0.4130  0.1415  0.2916
   42loPI   C2B  670   4.824  12.445   9.256 -0.1085  0.0421  0.0845
   42loPI   C3B  671   4.767  12.353   8.815 -0.1826  0.2881  0.1113
   42loPI   C4B  672   4.659  12.235   8.427 -0.2797 -0.0950  0.1517
   43loPI    C1  673  10.479   8.339  10.985  0.1882 -0.1044  0.1021
   43loPI    C2  674  10.749   8.400  11.274  0.0761 -0.1470  0.2168
   43loPI    C3  675  10.396   8.233  11.361 -0.0900  0.1416  0.1130
   43loPI   PO4  676  10.641   8.139  10.796 -0.0421  0.2134  0.1757
   43loPI   GL1  677  10.675   8.037  10.416  0.0580 -0.0992  0.1724
   43loPI   GL2  678  10.872   8.228  10.189 -0.0656  0.0136 -0.1115
   43loPI   C1A  679  10.378   8.134  10.106  0.1339  0.3720 -0.2276
   43loPI   C2A  680  10.291   8.340   9.731 -0.0431  0.1341 -0.1218
   43loPI   C3A  681  10.250   8.262   9.199 -0.0663  0.0955 -0.1672
   43loPI   C4A  682  10.338   8.206   8.774 -0.0995 -0.0637 -0.1543
   43loPI   C5A  683  10.383   8.076   8.332  0.1344 -0.0140  0.0181
   43loPI   C6A  684  10.697   7.942   8.098 -0.0783 -0.0797 -0.2703
   43loPI   C1B  685  10.813   8.261   9.739  0.0793 -0.2794 -0.2164
   43loPI   C2B  686  10.732   8.366   9.422  0.1692 -0.3230 -0.0782
   43loPI   C3B  687  10.882   8.460   9.096  0.1538 -0.0875  0.2535
   43loPI   C4B  688  11.080   8.943   8.971  0.0652  0.2037 -0.3658
   44loPI    C1  689  16.770   9.276  10.147 -0.1328 -0.0432 -0.0522
   44loPI    C2  690  16.731   8.959  10.387 -0.2512  0.0387  0.0379
   44loPI    C3  691  16.915   8.920  10.034 -0.0993 -0.0880  0.1292
   44loPI   PO4  692  16.833   9.446  10.313  0.1374 -0.0398  0.2125
   44loPI   GL1  693  17.031   9.766   9.985  0.0396  0.2205 -0.1830
   44loPI   GL2  694  17.121   9.447   9.882 -0.0244 -0.1110 -0.1259
   44loPI   C1A  695  16.893  10.010   9.589 -0.3372 -0.2553 -0.1895
   44loPI   C2A  696  16.779  10.069   9.242 -0.0697 -0.1709  0.0728
   44loPI   C3A  697  16.734   9.994   8.790 -0.1683  0.0894  0.0502
   44loPI   C4A  698  16.712  10.162   8.393 -0.0010 -0.1001 -0.1698
   44loPI   C5A  699  16.830  10.318   8.048 -0.0053 -0.0243 -0.0921
   44loPI   C6A  700  17.290  10.304   7.794 -0.0790 -0.0427  0.0569
   44loPI   C1B  701  17.014   9.470   9.496 -0.3441  0.0118  0.0531
   44loPI   C2B  702  16.871   9.583   9.053  0.1112  0.1651 -0.1174
   44loPI   C3B  703  16.721   9.495   8.573  0.2726 -0.3244  0.0099
   44loPI   C4B  704  16.492   9.367   8.144 -0.1503 -0.3818  0.0095
   45loPI    C1  705  15.825   3.295  10.309  0.2492  0.2895  0.0405
   45loPI    C2  706  15.749   3.100  10.650 -0.0986  0.2287 -0.0670
   45loPI    C3  707  16.057   3.355  10.629  0.2103 -0.1164  0.1496
   45loPI   PO4  708  15.796   3.065  10.109  0.2666 -0.1646  0.1391
   45loPI   GL1  709  15.840   2.570   9.819 -0.1285  0.0760 -0.1471
   45loPI   GL2  710  15.526   2.384   9.748 -0.1990  0.0333 -0.2310
   45loPI   C1A  711  15.993   2.337   9.506 -0.1414  0.0081  0.4616
   45loPI   C2A  712  16.118   2.129   9.129 -0.2630  0.1874  0.1210
   45loPI   C3A  713  16.024   1.795   8.845  0.2966 -0.0229 -0.1602
   45loPI   C4A  714  15.644   1.766   8.574  0.1847 -0.2346  0.2413
   45loPI   C5A  715  15.608   1.751   8.178  0.0689  0.3235  0.2264
   45loPI   C6A  716  15.515   1.680   7.815 -0.0145  0.1518 -0.0806
   45loPI   C1B  717  15.228   2.523   9.478  0.0743  0.4088  0.1825
   45loPI   C2B  718  15.265   2.533   9.008 -0.0877 -0.0947  0.3454
   45loPI   C3B  719  15.038   2.501   8.610 -0.0231 -0.0091  0.0654
   45loPI   C4B  720  15.185   2.327   8.131  0.1783 -0.0996 -0.1739
   46loPI    C1  721  11.719  10.171  11.036 -0.1791  0.1296  0.2491
   46loPI    C2  722  11.634   9.787  10.962 -0.2625  0.1715  0.1247
   46loPI    C3  723  11.809   9.890  11.307 -0.1084  0.0052  0.0980
   46loPI   PO4  724  11.824  10.286  10.833 -0.5317 -0.0424  0.0325
   46loPI   GL1  725  11.758  10.271  10.427 -0.3351  0.0099  0.0729
   46loPI   GL2  726  11.778  10.525  10.231 -0.1321  0.1305  0.0390
   46loPI   C1A  727  12.080  10.225   9.977 -0.2825  0.0072  0.2240
   46loPI   C2A  728  12.199  10.334   9.577  0.1618  0.0206  0.1866
   46loPI   C3A  729  12.416  10.356   9.211  0.2259 -0.0905  0.0031
   46loPI   C4A  730  12.438  10.105   8.882 -0.1451  0.1274 -0.0527
   46loPI   C5A  731  12.117  10.154   8.669  0.0482  0.1679  0.1287
   46loPI   C6A  732  11.745  10.177   8.497  0.0763  0.0483 -0.1385
   46loPI   C1B  733  11.667  10.543   9.723 -0.0319  0.1503  0.3015
   46loPI   C2B  734  11.362  10.419   9.312  0.1849 -0.0628 -0.0624
   46loPI   C3B  735  11.371  10.431   8.874  0.0746 -0.0792 -0.0047
   46loPI   C4B  736  11.406  10.560   8.429 -0.0762 -0.0307 -0.0041
   47loPI    C1  737   7.932  13.441  10.806 -0.0399 -0.0584  0.0436
   47loPI    C2  738   7.644  13.715  10.853  0.1218  0.0869  0.2055
   47loPI    C3  739   7.807  13.540  11.173 -0.0013 -0.2235  0.1018
   47loPI   PO4  740   7.920  13.365  10.615 -0.4650 -0.1916 -0.0342
   47loPI   GL1  741   7.954  13.558  10.169  0.2751 -0.1081 -0.2123
   47loPI   GL2  742   7.873  13.191  10.185  0.0264  0.3289 -0.0671
   47loPI   C1A  743   8.066  13.578   9.691 -0.1457 -0.1777 -0.0794
   47loPI   C2A  744   8.191  13.337   9.289  0.1242  0.1744  0.2345
   47loPI   C3A  745   8.288  13.207   8.884  0.1681 -0.0717 -0.1009
   47loPI   C4A  746   8.400  13.101   8.403  0.3317  0.2351 -0.0391
   47loPI   C5A  747   8.748  13.282   8.242 -0.3323 -0.1266  0.0160
   47loPI   C6A  748   9.045  13.574   8.122 -0.0107 -0.3560  0.1771
   47loPI   C1B  749   8.046  13.096   9.784 -0.0730  0.0368 -0.3473
   47loPI   C2B  750   8.187  12.868   9.458  0.1363 -0.0056 -0.1535
   47loPI   C3B  751   8.299  12.655   9.096  0.1350  0.0490  0.0747
   47loPI   C4B  752   8.169  12.644   8.770 -0.0045  0.0859 -0.0507
   48loPI    C1  753   6.721   6.718  10.603 -0.2211  0.3354  0.1148
   48loPI    C2  754   7.120   6.690  10.602 -0.2360  0.1021 -0.0671
   48loPI    C3  755   6.935   6.893  10.892 -0.0008 -0.0221  0.1743
   48loPI   PO4  756   6.718   6.720  10.305  0.0194  0.0514 -0.0674
   48loPI   GL1  757   6.614   6.439   9.896  0.2420 -0.2675 -0.1969
   48loPI   GL2  758   6.286   6.343   9.844  0.0036 -0.1377 -0.0732
   48loPI   C1A  759   6.922   6.454   9.418 -0.0138 -0.0948 -0.1450
   48loPI   C2A  760   7.007   6.522   8.975 -0.1617  0.3483  0.1202
   48loPI   C3A  761   6.770   6.464   8.673 -0.0042 -0.4203  0.0049
   48loPI   C4A  762   6.804   6.223   8.365 -0.0798 -0.0285  0.3880
   48loPI   C5A  763   7.110   6.125   8.164 -0.0672  0.0318  0.1036
   48loPI   C6A  764   7.264   6.237   7.784  0.2689 -0.0069 -0.0579
   48loPI   C1B  765   6.083   6.245   9.391 -0.1428 -0.0821 -0.2385
   48loPI   C2B  766   6.049   6.310   8.942  0.1721 -0.0413  0.3999
   48loPI   C3B  767   5.864   6.369   8.543  0.1569 -0.0886  0.0252
   48loPI   C4B  768   5.647   6.549   8.185  0.3504 -0.0849 -0.1113
   49loPI    C1  769   5.136  11.216  10.828 -0.0087  0.0669  0.0349
   49loPI    C2  770   5.312  11.528  11.007  0.4549 -0.1210 -0.0774
   49loPI    C3  771   5.262  11.185  11.207 -0.1082  0.0332  0.0655
   49loPI   PO4  772   5.176  11.258  10.400  0.1052  0.1234 -0.0791
   49loPI   GL1  773   5.108  11.460  10.033 -0.1894  0.0857 -0.0267
   49loPI   GL2  774   5.448  11.579   9.798  0.0810 -0.1748 -0.0126
   49loPI   C1A  775   4.916  11.428   9.571 -0.0904  0.0310  0.1128
   49loPI   C2A  776   4.746  11.423   9.170  0.1375  0.2514 -0.2879
   49loPI   C3A  777   4.616  11.253   8.865 -0.1581 -0.1598 -0.0698
   49loPI   C4A  778   4.636  11.215   8.489  0.1502  0.0553 -0.1521
   49loPI   C5A  779   4.483  10.942   8.104  0.2705  0.3116 -0.3191
   49loPI   C6A  780   4.597  10.978   7.691  0.0237 -0.0229  0.2046
   49loPI   C1B  781   5.614  11.459   9.396  0.1070  0.0654 -0.0989
   49loPI   C2B  782   5.529  11.543   8.961  0.4180 -0.0642 -0.4339
   49loPI   C3B  783   5.635  11.371   8.602 -0.1226  0.0064 -0.0098
   49loPI   C4B  784   5.854  11.490   8.216 -0.1776  0.1240  0.1596
   50loPI    C1  785  15.644  13.765  10.832 -0.1406 -0.0162 -0.1855
   50loPI    C2  786  15.693  14.155  10.908 -0.2483  0.0214 -0.3056
   50loPI    C3  787  15.331  13.988  10.944 -0.1429 -0.1391  0.0590
   50loPI   PO4  788  15.831  13.683  10.595  0.3252 -0.0974  0.1505
   50loPI   GL1  789  15.817  13.698  10.118  0.0544 -0.1904 -0.0493
   50loPI   GL2  790  15.762  14.031   9.993  0.0385 -0.0346 -0.0458
   50loPI   C1A  791  15.774  13.558   9.699  0.2763  0.0974  0.0665
   50loPI   C2A  792  15.565  13.576   9.438  0.1048  0.0977 -0.0943
   50loPI   C3A  793  15.449  13.486   8.944  0.0055  0.0416 -0.3570
   50loPI   C4A  794  15.679  13.241   8.585 -0.1606 -0.1371  0.0541
   50loPI   C5A  795  15.750  13.267   8.226  0.2531  0.1639  0.0080
   50loPI   C6A  796  15.949  13.474   7.964 -0.1172 -0.0936  0.0280
   50loPI   C1B  797  15.537  14.000   9.621 -0.0565  0.1696  0.0708
   50loPI   C2B  798  15.511  14.095   9.192 -0.2928  0.0577  0.2064
   50loPI   C3B  799  15.432  14.122   8.695  0.0655 -0.1230 -0.0823
   50loPI   C4B  800  15.058  14.108   8.379  0.1296  0.0459  0.1345
   51loPI    C1  801   3.124  17.779  10.473  0.0759  0.0991 -0.0609
   51loPI    C2  802   2.964  18.130  10.368 -0.0949  0.0802  0.1287
   51loPI    C3  803   3.126  18.085  10.731 -0.0556 -0.0319  0.0978
   51loPI   PO4  804   3.163  17.715  10.247  0.1991 -0.2590 -0.0330
   51loPI   GL1  805   3.349  17.427  10.058  0.1519 -0.3806 -0.0654
   51loPI   GL2  806   3.607  17.326   9.996  0.1542 -0.2401  0.0154
   51loPI   C1A  807   3.339  17.687   9.636 -0.2935 -0.0254 -0.3710
   51loPI   C2A  808   3.452  17.738   9.160  0.1193  0.4063  0.2136
   51loPI   C3A  809   3.377  17.958   8.787  0.3208  0.0944  0.1677
   51loPI   C4A  810   3.105  17.898   8.422  0.2108 -0.0793 -0.2882
   51loPI   C5A  811   2.987  17.606   8.027  0.0729  0.2647 -0.0429
   51loPI   C6A  812   3.068  17.203   7.828 -0.0458 -0.0424  0.1289
   51loPI   C1B  813   3.728  17.329   9.619  0.0310  0.0821  0.0634
   51loPI   C2B  814   3.786  17.302   9.049  0.1028  0.0635 -0.1678
   51loPI   C3B  815   3.890  17.225   8.655  0.1054  0.3487  0.0081
   51loPI   C4B  816   4.008  17.267   8.239 -0.0357 -0.0529 -0.0267
   52loPI    C1  817   1.055  11.569  10.888  0.1707 -0.1251  0.1779
   52loPI    C2  818   0.713  11.374  10.957 -0.0494  0.1192 -0.1900
   52loPI    C3  819   0.855  11.632  11.229 -0.0264 -0.1619  0.0700
   52loPI   PO4  820   1.063  11.693  10.744 -0.1741  0.0567  0.1001
   52loPI   GL1  821   1.349  11.760  10.389  0.1452 -0.2978 -0.1940
   52loPI   GL2  822   1.046  11.662  10.263  0.2154  0.1845 -0.1436
   52loPI   C1A  823   1.443  11.775   9.978 -0.0916 -0.0284 -0.0717
   52loPI   C2A  824   1.458  11.738   9.569  0.1281  0.1701 -0.0307
   52loPI   C3A  825   1.528  11.608   9.193 -0.0771  0.0675 -0.1768
   52loPI   C4A  826   1.669  11.550   8.855 -0.0259  0.2136 -0.0088
   52loPI   C5A  827   1.881  11.483   8.406 -0.1423 -0.2668 -0.0642
   52loPI   C6A  828   1.880  11.580   7.998  0.0426  0.0503  0.2826
   52loPI   C1B  829   1.076  11.394   9.912 -0.0323  0.0442  0.0576
   52loPI   C2B  830   1.116  11.325   9.529 -0.0190  0.3182  0.0615
   52loPI   C3B  831   1.171  11.252   9.111 -0.1496  0.0553 -0.3045
   52loPI   C4B  832   1.314  11.192   8.688  0.1048 -0.0447 -0.2425
   53loPI    C1  833   2.191   2.905  10.437  0.1520 -0.2324 -0.0801
   53loPI    C2  834   2.393   3.237  10.342  0.0254 -0.1375 -0.0207
   53loPI    C3  835   2.379   3.113  10.722 -0.0079 -0.1571 -0.0282
   53loPI   PO4  836   2.236   2.655  10.278 -0.2298 -0.1928 -0.1351
   53loPI   GL1  837   2.560   2.733   9.886  0.1575  0.0843 -0.2137
   53loPI   GL2  838   2.638   3.062   9.943  0.3733  0.0559 -0.1429
   53loPI   C1A  839   2.424   2.935   9.465  0.0429  0.2406 -0.1980
   53loPI   C2A  840   2.293   3.027   9.098 -0.2146 -0.0479  0.0797
   53loPI   C3A  841   2.263   2.867   8.753  0.1524  0.2316 -0.0518
   53loPI   C4A  842   2.041   2.758   8.356 -0.1431  0.2220 -0.1199
   53loPI   C5A  843   1.929   2.570   7.958  0.0234  0.2459 -0.2407
   53loPI   C6A  844   1.929   2.196   7.736  0.0003 -0.0577  0.3077
   53loPI   C1B  845   2.945   2.957   9.620 -0.1147 -0.2540  0.0781
   53loPI   C2B  846   3.182   2.954   9.218 -0.0574  0.0863 -0.2827
   53loPI   C3B  847   3.093   2.905   8.748 -0.2465  0.2316  0.2563
   53loPI   C4B  848   3.195   2.958   8.325 -0.1671  0.1010  0.0924
   54loPI    C1  849  13.211   8.111  10.683  0.0981  0.1316  0.1222
   54loPI    C2  850  13.089   8.277  11.026  0.1676  0.0163  0.2032
   54loPI    C3  851  13.276   7.923  11.030 -0.0817 -0.1199  0.0224
   54loPI   PO4  852  13.323   8.259  10.546  0.1259 -0.0833 -0.2885
   54loPI   GL1  853  13.174   8.597  10.251  0.0431 -0.2014 -0.0248
   54loPI   GL2  854  13.061   8.918  10.320 -0.1542  0.2008 -0.0404
   54loPI   C1A  855  13.115   8.427   9.738 -0.3594 -0.1913  0.0274
   54loPI   C2A  856  13.199   8.221   9.323  0.0313  0.0169  0.1976
   54loPI   C3A  857  13.291   8.389   8.886  0.0828  0.1735 -0.0033
   54loPI   C4A  858  13.116   8.574   8.564  0.1172  0.1543  0.1925
   54loPI   C5A  859  13.315   8.752   8.237 -0.0128  0.1199  0.1240
   54loPI   C6A  860  13.674   8.896   8.220 -0.3226 -0.0454  0.2346
   54loPI   C1B  861  13.184   9.186   9.942  0.1042 -0.2852 -0.1981
   54loPI   C2B  862  13.064   9.244   9.464  0.0378 -0.0395  0.1542
   54loPI   C3B  863  12.963   9.243   9.084  0.0559  0.2727  0.0700
   54loPI   C4B  864  12.508   9.138   8.966 -0.3112  0.0975 -0.0769
   55loPI    C1  865   4.505   6.626   9.783  0.3677 -0.1299 -0.0322
   55loPI    C2  866   4.436   6.434  10.127  0.3676 -0.1183 -0.0259
   55loPI    C3  867   4.532   6.227   9.799 -0.0515 -0.1674 -0.1240
   55loPI   PO4  868   4.269   6.732   9.758 -0.2566 -0.0302  0.1962
   55loPI   GL1  869   4.153   7.060   9.479 -0.1552  0.1433 -0.1767
   55loPI   GL2  870   4.511   7.121   9.495 -0.1319 -0.0006 -0.1900
   55loPI   C1A  871   3.861   7.262   9.298 -0.5054 -0.0379  0.3083
   55loPI   C2A  872   3.556   7.382   9.013 -0.4511 -0.0573  0.3732
   55loPI   C3A  873   3.298   7.415   8.626 -0.0082 -0.2085  0.2181
   55loPI   C4A  874   3.158   7.111   8.241 -0.1605 -0.1162  0.0429
   55loPI   C5A  875   3.311   7.036   7.845  0.2123 -0.4374  0.2721
   55loPI   C6A  876   3.168   6.840   7.638 -0.1232 -0.0442 -0.3600
   55loPI   C1B  877   4.678   7.183   9.110  0.4536 -0.0189 -0.0315
   55loPI   C2B  878   4.596   7.232   8.707  0.0036  0.3517 -0.0004
   55loPI   C3B  879   4.606   7.328   8.334 -0.3005  0.2505 -0.1605
   55loPI   C4B  880   4.569   7.127   7.884  0.1003 -0.2114  0.0112
   56loPI    C1  881  17.939  15.972  10.547 -0.1178 -0.2257 -0.0200
   56loPI    C2  882  18.155  15.852  10.861 -0.2838 -0.1679  0.1185
   56loPI    C3  883  18.001  15.582  10.609  0.0519 -0.2046 -0.0533
   56loPI   PO4  884  18.108  16.152  10.438  0.0335  0.2380 -0.0090
   56loPI   GL1  885  18.289  16.057  10.077 -0.1364 -0.0152 -0.0362
   56loPI   GL2  886  18.489  16.371   9.898  0.0014 -0.1823 -0.0160
   56loPI   C1A  887  18.292  16.042   9.552 -0.2943 -0.0432 -0.2361
   56loPI   C2A  888  18.243  15.824   9.127  0.2701 -0.0641 -0.0438
   56loPI   C3A  889  18.026  15.643   8.727 -0.1460 -0.0652  0.0075
   56loPI   C4A  890  18.135  15.395   8.407 -0.0312 -0.0531  0.1294
   56loPI   C5A  891  18.224  15.044   8.041 -0.2398 -0.1679 -0.0699
   56loPI   C6A  892  18.568  14.873   7.884  0.0634  0.0985 -0.1605
   56loPI   C1B  893  18.061  16.487   9.678 -0.2334  0.3546  0.2036
   56loPI   C2B  894  18.003  16.310   9.278  0.3410 -0.2719 -0.0007
   56loPI   C3B  895  17.960  16.351   8.783  0.0100 -0.1753 -0.0140
   56loPI   C4B  896  17.946  16.518   8.416 -0.0953  0.2629  0.0657
   57loPI    C1  897   0.201  12.611  10.703 -0.0364 -0.0526 -0.1179
   57loPI    C2  898   0.578  12.524  10.803 -0.1194 -0.1262  0.1371
   57loPI    C3  899   0.392  12.309  10.522  0.0278 -0.0899  0.0107
   57loPI   PO4  900   0.233  12.910  10.637 -0.1618 -0.2201 -0.3826
   57loPI   GL1  901   0.271  13.176  10.259 -0.3110  0.1511  0.1078
   57loPI   GL2  902  -0.044  13.064  10.233  0.3816 -0.0443  0.2542
   57loPI   C1A  903   0.346  13.147   9.811 -0.0056  0.0167 -0.1451
   57loPI   C2A  904   0.349  13.041   9.358 -0.2121 -0.1177 -0.0067
   57loPI   C3A  905   0.480  12.909   9.016 -0.0162  0.1239 -0.0967
   57loPI   C4A  906   0.276  13.076   8.619 -0.3945  0.1404 -0.0328
   57loPI   C5A  907   0.126  12.991   8.190  0.1406 -0.0279  0.0119
   57loPI   C6A  908  -0.161  12.940   7.788 -0.1200 -0.0129 -0.0288
   57loPI   C1B  909  -0.240  12.850   9.998  0.0033  0.0576 -0.2442
   57loPI   C2B  910  -0.322  12.487   9.694  0.0814 -0.3727 -0.1607
   57loPI   C3B  911  -0.394  12.500   9.300  0.0966  0.1246  0.2235
   57loPI   C4B  912  -0.132  12.525   8.908  0.0453 -0.1461  0.0497
   58loPI    C1  913   9.181  11.305  10.628  0.1461 -0.0564  0.1891
   58loPI    C2  914   8.881  11.091  10.782  0.0110 -0.0228 -0.0224
   58loPI    C3  915   8.925  11.475  10.885  0.1631 -0.1078  0.2402
   58loPI   PO4  916   9.240  11.236  10.305 -0.1108  0.0853 -0.0892
   58loPI   GL1  917   9.096  11.217   9.915  0.1951  0.1713 -0.0515
   58loPI   GL2  918   9.083  11.556   9.879 -0.3804 -0.1611 -0.0794
   58loPI   C1A  919   9.086  11.185   9.486 -0.1194  0.0270  0.1274
   58loPI   C2A  920   9.115  11.045   9.068  0.1694  0.1230  0.3332
   58loPI   C3A  921   9.121  10.665   8.682 -0.1641  0.0600  0.1423
   58loPI   C4A  922   8.881  10.515   8.398  0.2312  0.2408  0.1681
   58loPI   C5A  923   8.774  10.230   8.091 -0.2011 -0.0942  0.4113
   58loPI   C6A  924   8.975   9.940   7.763  0.0379 -0.0477  0.0260
   58loPI   C1B  925   8.882  11.616   9.490  0.1825  0.2240 -0.3612
   58loPI   C2B  926   8.474  11.454   9.367  0.1464  0.1177 -0.1467
   58loPI   C3B  927   8.274  11.153   9.049 -0.1354  0.1884  0.2037
   58loPI   C4B  928   8.071  10.791   9.003 -0.0276 -0.0308 -0.2847
   59loPI    C1  929  14.683  10.253  10.366  0.0773 -0.0965 -0.0402
   59loPI    C2  930  14.557  10.230  10.745  0.0685 -0.0903 -0.0428
   59loPI    C3  931  14.551   9.905  10.512 -0.0857 -0.0559 -0.0885
   59loPI   PO4  932  14.921  10.408  10.298 -0.1578  0.1474  0.1328
   59loPI   GL1  933  15.024  10.350   9.878 -0.2110  0.1787  0.2159
   59loPI   GL2  934  14.739  10.364   9.782  0.1385 -0.1929  0.0252
   59loPI   C1A  935  15.136  10.558   9.576 -0.3285  0.1665 -0.4018
   59loPI   C2A  936  15.131  10.483   9.117  0.0557  0.2232  0.2417
   59loPI   C3A  937  14.944  10.450   8.674 -0.1850 -0.0914  0.1070
   59loPI   C4A  938  14.748  10.391   8.297 -0.0186 -0.0747  0.1877
   59loPI   C5A  939  14.634  10.125   8.040 -0.1624  0.2250  0.2295
   59loPI   C6A  940  14.502   9.700   8.014  0.0305 -0.2310 -0.0262
   59loPI   C1B  941  14.332  10.383   9.578 -0.5932  0.1987  0.0159
   59loPI   C2B  942  14.152  10.564   9.195  0.1045 -0.1745  0.3197
   59loPI   C3B  943  13.941  10.722   8.893  0.0766  0.0593  0.1029
   59loPI   C4B  944  13.667  10.929   8.558 -0.0350  0.0685 -0.0837
   60loPI    C1  945  15.586  12.676  10.635 -0.0404 -0.1519  0.1768
   60loPI    C2  946  15.712  13.009  10.819 -0.0466 -0.0724  0.0383
   60loPI    C3  947  15.683  12.666  11.023  0.2912 -0.0678  0.0992
   60loPI   PO4  948  15.763  12.719  10.421  0.0347  0.0007  0.1211
   60loPI   GL1  949  15.941  12.702  10.019 -0.0597 -0.0229  0.2279
   60loPI   GL2  950  16.265  12.621   9.833 -0.1835  0.0565  0.1229
   60loPI   C1A  951  15.859  12.674   9.500  0.0477 -0.0776 -0.1140
   60loPI   C2A  952  15.954  12.832   9.100 -0.1071  0.0470 -0.1651
   60loPI   C3A  953  16.090  12.878   8.680 -0.0939  0.0144  0.0686
   60loPI   C4A  954  16.045  12.891   8.252  0.2425 -0.1260 -0.0657
   60loPI   C5A  955  16.220  12.878   7.841 -0.0527  0.0262  0.4096
   60loPI   C6A  956  16.362  12.502   7.640 -0.0521 -0.2893 -0.0246
   60loPI   C1B  957  16.287  12.397   9.395 -0.2798 -0.0674 -0.0786
   60loPI   C2B  958  16.300  12.449   8.925 -0.3693  0.1722 -0.2505
   60loPI   C3B  959  16.303  12.434   8.513 -0.1715 -0.2950  0.1822
   60loPI   C4B  960  16.548  12.451   8.165  0.0038  0.2050 -0.2705
   61loPI    C1  961  11.981   8.936  10.853 -0.3427 -0.2672 -0.0921
   61loPI    C2  962  11.976   8.558  10.983  0.0853 -0.1952  0.1528
   61loPI    C3  963  12.140   8.845  11.209 -0.0381  0.1015 -0.1273
   61loPI   PO4  964  12.091   8.933  10.533  0.0298 -0.0342 -0.0672
   61loPI   GL1  965  12.029   9.143  10.212 -0.1185  0.1717  0.2076
   61loPI   GL2  966  11.717   9.275  10.173  0.0496 -0.2385 -0.0501
   61loPI   C1A  967  12.287   8.796   9.902 -0.3949 -0.1840  0.0744
   61loPI   C2A  968  12.391   8.648   9.529  0.0119  0.0830 -0.2746
   61loPI   C3A  969  12.372   8.666   9.086 -0.2903 -0.0575  0.2187
   61loPI   C4A  970  12.148   8.705   8.583  0.1802  0.0529  0.1458
   61loPI   C5A  971  11.889   8.479   8.285  0.1444 -0.1054 -0.0252
   61loPI   C6A  972  11.463   8.404   8.252 -0.0295 -0.0038  0.0480
   61loPI   C1B  973  11.952   9.188   9.681  0.2298  0.2676 -0.0662
   61loPI   C2B  974  12.094   9.230   9.228  0.2072  0.0296  0.3336
   61loPI   C3B  975  11.963   9.156   8.765 -0.1287 -0.1980  0.0277
   61loPI   C4B  976  11.761   8.960   8.371 -0.3465  0.4711 -0.3088
   62loPI    C1  977   8.487  11.509  10.652  0.0588 -0.0009 -0.0829
   62loPI    C2  978   8.405  11.774  10.363 -0.1025 -0.1182 -0.1462
   62loPI    C3  979   8.281  11.841  10.737  0.1989  0.0859 -0.0796
   62loPI   PO4  980   8.422  11.274  10.555 -0.0971 -0.3282  0.2762
   62loPI   GL1  981   8.776  11.057  10.299 -0.0422  0.1425 -0.0375
   62loPI   GL2  982   8.857  10.784  10.261  0.0569 -0.1910 -0.0116
   62loPI   C1A  983   8.622  11.193   9.874 -0.1047  0.2618  0.2147
   62loPI   C2A  984   8.172  11.032   9.696 -0.0111 -0.0585 -0.1462
   62loPI   C3A  985   7.839  11.225   9.415 -0.2310 -0.1069 -0.0282
   62loPI   C4A  986   7.711  11.100   8.983 -0.1568  0.0172  0.0834
   62loPI   C5A  987   7.921  10.921   8.520 -0.2728 -0.0827  0.1746
   62loPI   C6A  988   8.104  10.768   8.087 -0.3418 -0.1838  0.3366
   62loPI   C1B  989   8.789  10.789   9.801  0.0391  0.1214  0.2462
   62loPI   C2B  990   8.564  10.949   9.402 -0.0278 -0.1985 -0.2236
   62loPI   C3B  991   8.663  10.850   8.959 -0.1871  0.1454  0.2654
   62loPI   C4B  992   8.615  10.992   8.530 -0.1054 -0.1774  0.0460
   63loPI    C1  993  11.644   1.198  10.536  0.0046 -0.0116  0.0055
   63loPI    C2  994  11.438   1.073  10.217 -0.2182  0.1620  0.0793
   63loPI    C3  995  11.688   0.823  10.403 -0.1814  0.0217 -0.1546
   63loPI   PO4  996  11.825   1.355  10.429  0.0167 -0.3307  0.2576
   63loPI   GL1  997  11.775   1.519  10.034 -0.1524 -0.1286 -0.0697
   63loPI   GL2  998  11.546   1.413   9.887  0.1703  0.0823 -0.0038
   63loPI   C1A  999  11.964   1.357   9.623 -0.1518 -0.0866 -0.0390
   63loPI   C2A 1000  11.898   1.558   9.279 -0.1705  0.2069  0.1094
   63loPI   C3A 1001  11.905   1.615   8.855 -0.1705  0.1738  0.1167
   63loPI   C4A 1002  11.936   1.729   8.411  0.0653  0.0038 -0.0859
   63loPI   C5A 1003  11.926   1.649   7.975 -0.3820  0.2304 -0.0474
   63loPI   C6A 1004  11.734   1.464   7.623 -0.0874 -0.2720  0.0243
   63loPI   C1B 1005  11.390   1.448   9.427  0.1841  0.0912  0.0425
   63loPI   C2B 1006  11.293   1.566   9.005  0.3135  0.1678 -0.1260
   63loPI   C3B 1007  11.492   1.601   8.580 -0.1738 -0.0970 -0.0931
   63loPI   C4B 1008  11.529   1.791   8.167  0.3631  0.4140  0.1335
   64loPI    C1 1009  10.511  16.440  10.502  0.1315 -0.0598 -0.1191
   64loPI    C2 1010  10.705  16.735  10.690 -0.1078 -0.0018  0.0408
   64loPI    C3 1011  10.681  16.373  10.858  0.0623 -0.0747 -0.0889
   64loPI   PO4 1012  10.694  16.481  10.248 -0.2006  0.2196 -0.2597
   64loPI   GL1 1013  10.541  16.580   9.818 -0.0765  0.3556  0.2048
   64loPI   GL2 1014  10.661  16.839   9.685 -0.1159  0.1425 -0.2676
   64loPI   C1A 1015  10.144  16.569   9.552  0.4160 -0.0370  0.2690
   64loPI   C2A 1016  10.005  16.614   9.216  0.1457  0.1265  0.1350
   64loPI   C3A 1017   9.996  16.631   8.734  0.1283 -0.2165  0.1131
   64loPI   C4A 1018   9.996  16.691   8.246  0.1365  0.1062  0.0088
   64loPI   C5A 1019   9.997  16.551   7.767 -0.0772 -0.2161 -0.0907
   64loPI   C6A 1020  10.048  16.394   7.390  0.1145 -0.0590  0.1710
   64loPI   C1B 1021  10.426  16.816   9.263  0.2184 -0.1929 -0.1311
   64loPI   C2B 1022  10.468  16.873   8.890  0.2674  0.0723 -0.2994
   64loPI   C3B 1023  10.563  16.679   8.510  0.2123 -0.0987  0.1409
   64loPI   C4B 1024  10.461  16.791   8.124  0.1974  0.1337 -0.1600
   65loPI    C1 1025   4.664  10.744  10.838 -0.2343  0.1886 -0.0653
   65loPI    C2 1026   4.791  11.000  11.118 -0.2403  0.2136 -0.0852
   65loPI    C3 1027   4.569  10.684  11.221  0.0570  0.0230 -0.0161
   65loPI   PO4 1028   4.842  10.862  10.644 -0.0223  0.0603 -0.0258
   65loPI   GL1 1029   4.768  10.961  10.195 -0.0401 -0.2032  0.1592
   65loPI   GL2 1030   4.444  11.004  10.201  0.1539  0.0470  0.1760
   65loPI   C1A 1031   4.832  10.896   9.706 -0.2308  0.0170  0.3001
   65loPI   C2A 1032   4.713  10.534   9.558  0.0456 -0.3285 -0.1101
   65loPI   C3A 1033   4.621  10.335   9.062  0.1265 -0.0741  0.0299
   65loPI   C4A 1034   4.755  10.329   8.698  0.2964 -0.3142  0.6155
   65loPI   C5A 1035   4.983  10.320   8.311  0.0498  0.0306 -0.0056
   65loPI   C6A 1036   5.048  10.310   7.909  0.0157  0.0991 -0.3685
   65loPI   C1B 1037   4.344  11.021   9.702  0.0138  0.1895 -0.1685
   65loPI   C2B 1038   4.500  11.019   9.416  0.1340  0.0098  0.2519
   65loPI   C3B 1039   4.720  10.898   9.160  0.3230 -0.1453  0.0856
   65loPI   C4B 1040   4.950  10.736   8.870  0.0650 -0.0130 -0.0830
   66loPI    C1 1041  18.361  14.547  10.532  0.1139  0.2204 -0.0154
   66loPI    C2 1042  18.466  14.806  10.819  0.1671  0.4974 -0.2795
   66loPI    C3 1043  18.701  14.755  10.499  0.2233  0.0202 -0.1702
   66loPI   PO4 1044  18.037  14.544  10.355  0.0765  0.1740  0.0542
   66loPI   GL1 1045  17.783  14.774  10.129 -0.1084  0.0216  0.2583
   66loPI   GL2 1046  17.682  14.532  10.028  0.0102 -0.0477  0.0524
   66loPI   C1A 1047  18.085  14.469   9.746 -0.0216 -0.0542 -0.3887
   66loPI   C2A 1048  18.007  14.442   9.239 -0.0061 -0.0821  0.2833
   66loPI   C3A 1049  18.204  14.433   8.889  0.0593 -0.3658  0.1718
   66loPI   C4A 1050  18.159  14.350   8.426  0.2751 -0.3409 -0.0136
   66loPI   C5A 1051  18.074  13.935   8.282  0.0448 -0.1841  0.0784
   66loPI   C6A 1052  18.324  13.634   8.310 -0.1046 -0.0306  0.1182
   66loPI   C1B 1053  17.653  14.711   9.603 -0.3595 -0.0918 -0.1810
   66loPI   C2B 1054  17.676  14.794   9.190  0.0141 -0.2899 -0.0997
   66loPI   C3B 1055  17.745  14.680   8.855  0.3432  0.0045 -0.0174
   66loPI   C4B 1056  17.725  14.822   8.424 -0.3434  0.0281 -0.0750
   67loPI    C1 1057   4.827   3.480  10.377  0.0204  0.1143 -0.0569
   67loPI    C2 1058   4.714   3.731  10.668  0.2461  0.0719  0.0698
   67loPI    C3 1059   4.743   3.339  10.742  0.0173  0.0225 -0.0929
   67loPI   PO4 1060   4.737   3.494  10.164  0.3508 -0.0374 -0.2918
   67loPI   GL1 1061   4.662   3.243   9.751  0.0504 -0.0548 -0.0698
   67loPI   GL2 1062   4.807   3.581   9.662 -0.2189  0.1811  0.1045
   67loPI   C1A 1063   4.510   2.894   9.517 -0.3249 -0.1437 -0.0875
   67loPI   C2A 1064   4.576   2.915   9.103  0.1143 -0.0504 -0.1443
   67loPI   C3A 1065   4.620   2.943   8.661  0.2337  0.1889  0.3726
   67loPI   C4A 1066   4.481   2.959   8.356 -0.0136  0.0285 -0.1815
   67loPI   C5A 1067   4.340   3.277   8.030 -0.2332 -0.1036 -0.1329
   67loPI   C6A 1068   4.665   3.529   7.740  0.2276 -0.1141 -0.0735
   67loPI   C1B 1069   4.708   3.383   9.233  0.1281 -0.1134  0.1839
   67loPI   C2B 1070   4.630   3.453   8.876 -0.0928 -0.2576 -0.2331
   67loPI   C3B 1071   4.603   3.493   8.483 -0.2455  0.1527 -0.2640
   67loPI   C4B 1072   4.623   3.798   8.198  0.2114  0.3181 -0.3090
   68loPI    C1 1073   5.039   9.858  10.205  0.0274 -0.1042  0.0012
   68loPI    C2 1074   4.752  10.087  10.363  0.0390 -0.0790 -0.0143
   68loPI    C3 1075   4.985   9.865  10.601  0.0102 -0.0953 -0.0013
   68loPI   PO4 1076   5.073   9.992  10.008  0.1391  0.0681  0.1790
   68loPI   GL1 1077   4.939  10.047   9.606  0.0904  0.0876  0.0129
   68loPI   GL2 1078   5.064   9.609   9.616 -0.1599  0.2609  0.1706
   68loPI   C1A 1079   5.087   9.869   9.204  0.2841  0.2385  0.1935
   68loPI   C2A 1080   4.937   9.748   8.815  0.0469 -0.2085 -0.1897
   68loPI   C3A 1081   4.756   9.786   8.455 -0.2190 -0.2989 -0.2512
   68loPI   C4A 1082   4.382  10.071   8.385 -0.1808  0.0689  0.0168
   68loPI   C5A 1083   4.145  10.098   7.963  0.1370 -0.0848 -0.0764
   68loPI   C6A 1084   3.860   9.949   7.704 -0.0942  0.1201 -0.0583
   68loPI   C1B 1085   5.088   9.367   9.110  0.0048 -0.0753  0.0485
   68loPI   C2B 1086   5.117   9.115   8.844  0.3346 -0.1274 -0.1634
   68loPI   C3B 1087   4.932   8.884   8.419 -0.5053  0.0775 -0.1712
   68loPI   C4B 1088   5.069   8.638   8.095 -0.1309 -0.1575  0.1984
   69loPI    C1 1089   9.614  15.436  10.308 -0.1727  0.1245 -0.0756
   69loPI    C2 1090   9.539  15.635  10.647  0.0839  0.1528 -0.0334
   69loPI    C3 1091   9.917  15.569  10.534  0.0044 -0.3071 -0.0504
   69loPI   PO4 1092   9.454  15.592  10.088 -0.1688  0.0158  0.0020
   69loPI   GL1 1093   9.796  15.793   9.800  0.0605 -0.0974 -0.1628
   69loPI   GL2 1094  10.048  15.763  10.012 -0.1198  0.1888 -0.1642
   69loPI   C1A 1095   9.803  15.622   9.466 -0.1243 -0.1945  0.1651
   69loPI   C2A 1096  10.099  15.532   9.124  0.1531  0.1878  0.1953
   69loPI   C3A 1097  10.402  15.610   8.753  0.3505 -0.1734 -0.6433
   69loPI   C4A 1098  10.607  15.718   8.289  0.0133 -0.3026  0.1204
   69loPI   C5A 1099  10.818  15.888   7.817  0.1439  0.1201  0.2629
   69loPI   C6A 1100  10.841  15.871   7.378 -0.0528 -0.4370  0.0084
   69loPI   C1B 1101  10.254  15.663   9.594  0.1879 -0.1959 -0.1425
   69loPI   C2B 1102  10.501  15.777   9.338  0.1526  0.0191 -0.1334
   69loPI   C3B 1103  10.700  16.019   8.984 -0.0026 -0.0024  0.2346
   69loPI   C4B 1104  10.828  16.162   8.550  0.3256  0.0618 -0.1636
   70loPI    C1 1105  16.995  15.693  10.608 -0.0998 -0.0555  0.0244
   70loPI    C2 1106  16.746  15.696  10.921 -0.1016 -0.0105  0.0225
   70loPI    C3 1107  16.998  15.391  10.870  0.1166  0.1295  0.2406
   70loPI   PO4 1108  16.827  15.644  10.376  0.1372 -0.1441  0.0062
   70loPI   GL1 1109  16.751  15.709   9.927  0.0048  0.0693  0.2508
   70loPI   GL2 1110  17.017  15.530   9.870 -0.0425 -0.2659  0.4412
   70loPI   C1A 1111  16.387  15.798   9.738 -0.0396 -0.1647 -0.2062
   70loPI   C2A 1112  16.194  15.817   9.333  0.1025 -0.0245  0.0211
   70loPI   C3A 1113  16.063  15.732   8.866  0.1697 -0.2034  0.2664
   70loPI   C4A 1114  16.124  15.559   8.517  0.0009 -0.1005  0.0221
   70loPI   C5A 1115  16.377  15.326   8.252  0.0703 -0.1339  0.1022
   70loPI   C6A 1116  16.697  15.207   7.975 -0.1076 -0.2370  0.1109
   70loPI   C1B 1117  17.004  15.015   9.844  0.1826 -0.0569  0.0266
   70loPI   C2B 1118  16.650  14.773   9.783 -0.1523 -0.0403 -0.1045
   70loPI   C3B 1119  16.562  14.486   9.338 -0.2648  0.2661  0.0189
   70loPI   C4B 1120  16.282  14.553   8.931 -0.0339 -0.0245 -0.1662
   71loPI    C1 1121  13.417  10.041  10.740 -0.0351 -0.1383  0.0062
   71loPI    C2 1122  13.574   9.887  10.406  0.0944  0.0069 -0.0009
   71loPI    C3 1123  13.562   9.668  10.740 -0.0219 -0.1334 -0.0958
   71loPI   PO4 1124  13.147  10.151  10.667 -0.3514 -0.0531 -0.2303
   71loPI   GL1 1125  12.876  10.050  10.384 -0.1964 -0.0325 -0.1936
   71loPI   GL2 1126  12.856  10.403  10.329  0.2551  0.0474 -0.0120
   71loPI   C1A 1127  13.122  10.139   9.974  0.2088 -0.1099  0.1047
   71loPI   C2A 1128  13.269  10.148   9.490 -0.1980 -0.0890  0.2235
   71loPI   C3A 1129  13.125  10.439   9.144 -0.1393  0.0416  0.0179
   71loPI   C4A 1130  12.797  10.517   8.853 -0.1673 -0.0210  0.1129
   71loPI   C5A 1131  12.799  10.833   8.508  0.3607 -0.1037  0.1943
   71loPI   C6A 1132  12.624  10.778   8.003 -0.1552  0.0444  0.0929
   71loPI   C1B 1133  12.587  10.241   9.997 -0.1116  0.2269  0.2629
   71loPI   C2B 1134  12.474   9.983   9.725 -0.0448 -0.0364  0.0413
   71loPI   C3B 1135  12.351   9.566   9.656  0.0039 -0.1180  0.2602
   71loPI   C4B 1136  12.488   9.193   9.530  0.2988  0.0925 -0.0616
   72loPI    C1 1137   5.054   8.452  10.373 -0.0509  0.0930  0.0390
   72loPI    C2 1138   5.180   8.501  10.749 -0.0384 -0.0429  0.0530
   72loPI    C3 1139   5.322   8.736  10.458 -0.0010  0.0211  0.1226
   72loPI   PO4 1140   5.039   8.129  10.362 -0.0244 -0.3016 -0.1413
   72loPI   GL1 1141   5.070   7.953   9.943 -0.1724  0.1817 -0.3178
   72loPI   GL2 1142   5.379   7.967   9.755  0.1209  0.0673  0.0563
   72loPI   C1A 1143   4.883   7.935   9.516 -0.1378  0.0239 -0.0535
   72loPI   C2A 1144   5.017   7.868   9.067 -0.0534 -0.3877 -0.0551
   72loPI   C3A 1145   5.193   7.676   8.710 -0.0130  0.0312 -0.1614
   72loPI   C4A 1146   4.981   7.764   8.420  0.1319  0.0725 -0.0220
   72loPI   C5A 1147   4.939   7.626   7.998 -0.0504 -0.2286  0.2706
   72loPI   C6A 1148   4.869   7.492   7.664  0.1596 -0.0098 -0.1098
   72loPI   C1B 1149   5.443   7.758   9.375  0.1121 -0.0595 -0.0555
   72loPI   C2B 1150   5.588   7.567   8.975 -0.3301 -0.2672  0.0349
   72loPI   C3B 1151   5.690   7.266   8.616 -0.2947 -0.0002  0.3539
   72loPI   C4B 1152   5.567   7.059   8.219 -0.2021  0.0294 -0.1390
   73loPI    C1 1153  11.136  13.327  10.273 -0.0200  0.2659  0.0656
   73loPI    C2 1154  11.255  13.512  10.607 -0.1179 -0.2825  0.4162
   73loPI    C3 1155  11.466  13.204  10.462 -0.1836 -0.1721  0.0770
   73loPI   PO4 1156  10.960  13.206  10.279 -0.0415  0.2168 -0.1302
   73loPI   GL1 1157  10.644  13.147   9.991 -0.1285 -0.1672  0.3152
   73loPI   GL2 1158  10.424  13.041  10.166 -0.2217  0.0115 -0.0180
   73loPI   C1A 1159  10.531  13.066   9.503  0.2171  0.1977 -0.1621
   73loPI   C2A 1160  10.410  13.040   9.075 -0.0152  0.2015  0.1182
   73loPI   C3A 1161  10.400  13.192   8.790 -0.0667 -0.0681 -0.0277
   73loPI   C4A 1162  10.413  13.054   8.416  0.0688  0.0950 -0.3876
   73loPI   C5A 1163  10.103  13.227   8.219  0.1444 -0.3090 -0.0488
   73loPI   C6A 1164   9.937  13.559   7.959  0.0985  0.1826  0.1728
   73loPI   C1B 1165  10.080  13.141   9.901  0.1140  0.2692  0.1188
   73loPI   C2B 1166  10.001  13.080   9.443 -0.2370 -0.1128 -0.1695
   73loPI   C3B 1167   9.965  12.995   8.980  0.0433  0.0620 -0.0879
   73loPI   C4B 1168   9.773  13.004   8.541  0.0316 -0.2663  0.0580
   74loPI    C1 1169  18.233  11.002  10.724 -0.0550 -0.0366  0.0521
   74loPI    C2 1170  18.023  11.237  10.971 -0.1004 -0.0114 -0.0101
   74loPI    C3 1171  18.124  10.867  11.084 -0.1633 -0.0172  0.0270
   74loPI   PO4 1172  18.181  11.099  10.497  0.0055  0.3125  0.0570
   74loPI   GL1 1173  18.237  10.897  10.033 -0.0520  0.0325  0.0605
   74loPI   GL2 1174  18.535  10.777   9.947 -0.1565 -0.1681 -0.1540
   74loPI   C1A 1175  18.197  11.083   9.626 -0.1954  0.0390  0.0644
   74loPI   C2A 1176  18.229  11.128   9.148 -0.0432 -0.1498  0.2473
   74loPI   C3A 1177  18.336  11.006   8.751 -0.1021 -0.0104  0.0024
   74loPI   C4A 1178  18.363  10.954   8.400  0.3043 -0.0235  0.0831
   74loPI   C5A 1179  18.279  11.136   8.018 -0.2123  0.3841 -0.1083
   74loPI   C6A 1180  18.212  11.398   7.602  0.1353 -0.0312  0.1948
   74loPI   C1B 1181  18.707  10.809   9.533 -0.4205 -0.6264 -0.2859
   74loPI   C2B 1182  18.700  10.728   9.066  0.2090 -0.1904 -0.0713
   74loPI   C3B 1183  18.875  10.687   8.696 -0.1983  0.1242 -0.1886
   74loPI   C4B 1184  18.990  10.792   8.291  0.0250  0.3114 -0.0213
   75loPI    C1 1185  13.451   8.705  10.833 -0.0187  0.1660  0.0213
   75loPI    C2 1186  13.821   8.672  10.979 -0.0857  0.1220  0.1829
   75loPI    C3 1187  13.568   8.363  11.004 -0.1117  0.1289  0.0113
   75loPI   PO4 1188  13.446   8.786  10.634 -0.0359 -0.0031  0.1367
   75loPI   GL1 1189  13.583   8.939  10.170 -0.1494  0.4003 -0.0361
   75loPI   GL2 1190  13.696   8.686  10.152  0.1442 -0.1874 -0.0425
   75loPI   C1A 1191  13.394   8.803   9.784 -0.0914  0.0298 -0.1309
   75loPI   C2A 1192  13.323   8.783   9.341  0.2016  0.1965  0.1362
   75loPI   C3A 1193  13.401   8.909   8.820  0.2550  0.0525  0.1191
   75loPI   C4A 1194  12.966   9.129   8.581 -0.1518 -0.0001  0.0715
   75loPI   C5A 1195  12.787   9.134   8.089 -0.0990 -0.0849  0.5334
   75loPI   C6A 1196  12.518   9.036   7.732  0.2166 -0.0491 -0.1163
   75loPI   C1B 1197  13.583   8.369   9.910  0.0652 -0.0470  0.1808
   75loPI   C2B 1198  13.712   8.297   9.467  0.2125 -0.1817  0.0369
   75loPI   C3B 1199  13.753   8.330   8.969  0.1191 -0.1149 -0.2386
   75loPI   C4B 1200  13.733   8.531   8.699 -0.0501  0.0624 -0.2961
   76loPI    C1 1201  10.803   0.096  10.389 -0.2630 -0.0717  0.2064
   76loPI    C2 1202  10.985   0.292  10.686 -0.1544  0.0970  0.0307
   76loPI    C3 1203  11.042  -0.101  10.641 -0.0192  0.1058  0.1187
   76loPI   PO4 1204  10.878   0.097  10.109  0.1516  0.4987  0.0063
   76loPI   GL1 1205  10.832   0.045   9.644 -0.2536 -0.0318  0.2156
   76loPI   GL2 1206  10.602   0.262   9.724  0.1000  0.1116 -0.0138
   76loPI   C1A 1207  11.225   0.074   9.280 -0.1176  0.2135  0.0122
   76loPI   C2A 1208  11.453   0.185   8.863  0.1046 -0.0190 -0.0134
   76loPI   C3A 1209  11.521   0.196   8.543  0.0399  0.2227 -0.2511
   76loPI   C4A 1210  11.568   0.458   8.225  0.1496  0.1887 -0.2380
   76loPI   C5A 1211  11.565   0.630   7.842  0.0115  0.0087  0.1912
   76loPI   C6A 1212  11.512   1.032   7.713 -0.1085  0.1806 -0.1932
   76loPI   C1B 1213  11.032   0.475   9.589 -0.0543 -0.1687 -0.0017
   76loPI   C2B 1214  11.493   0.513   9.351 -0.1362  0.0879  0.0815
   76loPI   C3B 1215  11.791   0.704   9.013  0.2184 -0.0469  0.1673
   76loPI   C4B 1216  11.756   0.667   8.645  0.3985  0.1618  0.0137
   77loPI    C1 1217   3.952   6.967  10.116 -0.0219 -0.0282 -0.0461
   77loPI    C2 1218   3.957   6.578  10.209  0.1177 -0.0408 -0.1047
   77loPI    C3 1219   4.220   6.828  10.378  0.1156  0.0045 -0.1680
   77loPI   PO4 1220   3.898   6.983   9.916 -0.0540 -0.1059  0.2422
   77loPI   GL1 1221   3.491   7.003   9.573  0.0978 -0.5333  0.2964
   77loPI   GL2 1222   3.384   6.921   9.310  0.1266  0.0459  0.0169
   77loPI   C1A 1223   3.395   7.476   9.535  0.2388 -0.1514  0.0949
   77loPI   C2A 1224   3.287   7.750   9.252 -0.2241  0.3881  0.3366
   77loPI   C3A 1225   3.286   7.923   8.865  0.0088 -0.1495  0.1644
   77loPI   C4A 1226   3.374   7.842   8.441  0.4075  0.1426 -0.1143
   77loPI   C5A 1227   3.532   7.491   8.207  0.0219  0.0643 -0.0268
   77loPI   C6A 1228   3.685   7.433   7.778  0.0421 -0.1209  0.0927
   77loPI   C1B 1229   3.544   6.900   8.863 -0.1388  0.0552 -0.1689
   77loPI   C2B 1230   3.702   7.142   8.493  0.0316 -0.0552 -0.2495
   77loPI   C3B 1231   3.740   7.017   8.059  0.1071 -0.0067  0.0710
   77loPI   C4B 1232   4.141   7.068   7.683  0.0979  0.0836  0.1803
   78loPI    C1 1233   3.309  12.064  10.732 -0.1344 -0.2565  0.0057
   78loPI    C2 1234   3.275  11.734  10.956 -0.2083 -0.3660 -0.1650
   78loPI    C3 1235   2.997  12.020  10.978 -0.0620 -0.2412  0.1006
   78loPI   PO4 1236   3.358  12.018  10.483  0.4996  0.1831 -0.0232
   78loPI   GL1 1237   3.451  12.101  10.015 -0.1042  0.1451 -0.0388
   78loPI   GL2 1238   3.150  11.900  10.054 -0.0410 -0.1008 -0.0648
   78loPI   C1A 1239   3.408  11.968   9.563  0.0699 -0.2097 -0.2650
   78loPI   C2A 1240   3.214  11.616   9.272  0.1993 -0.1280 -0.0581
   78loPI   C3A 1241   3.226  11.463   8.886  0.2382 -0.1638 -0.3583
   78loPI   C4A 1242   3.220  11.470   8.483  0.1250 -0.0667 -0.1178
   78loPI   C5A 1243   3.260  11.232   8.094  0.1866 -0.1132 -0.0370
   78loPI   C6A 1244   3.140  10.805   8.197 -0.0424  0.1869 -0.1790
   78loPI   C1B 1245   2.855  11.718   9.702  0.0884  0.1474 -0.0174
   78loPI   C2B 1246   2.534  11.470   9.416  0.2408  0.1443  0.2316
   78loPI   C3B 1247   2.426  11.233   9.097 -0.2400  0.1854 -0.2851
   78loPI   C4B 1248   2.407  11.313   8.642 -0.5209 -0.0482  0.3242
   79loPI    C1 1249  12.167   0.735  10.617  0.0770 -0.1705  0.3032
   79loPI    C2 1250  11.885   0.697  10.898 -0.2076  0.0424  0.0525
   79loPI    C3 1251  12.040   1.057  10.817  0.0106 -0.0471  0.0665
   79loPI   PO4 1252  12.141   0.656  10.349  0.1337 -0.1835 -0.1354
   79loPI   GL1 1253  12.198   0.560   9.878  0.2677 -0.3293  0.2371
   79loPI   GL2 1254  12.350   0.307   9.821 -0.1882  0.0361 -0.0658
   79loPI   C1A 1255  12.021   0.612   9.470  0.0190 -0.2120  0.0678
   79loPI   C2A 1256  12.249   0.654   9.047  0.2033  0.1511  0.2534
   79loPI   C3A 1257  12.201   0.754   8.586 -0.1941  0.0837 -0.0734
   79loPI   C4A 1258  11.978   0.724   8.145 -0.1772 -0.1771  0.0283
   79loPI   C5A 1259  12.091   0.610   7.755  0.1902  0.1061  0.0114
   79loPI   C6A 1260  11.941   0.373   7.460 -0.0432 -0.1142 -0.0783
   79loPI   C1B 1261  12.465   0.316   9.441  0.1172  0.0121 -0.1610
   79loPI   C2B 1262  12.554   0.223   8.968 -0.3925  0.0454 -0.0149
   79loPI   C3B 1263  12.733   0.075   8.595  0.0010  0.3061  0.0023
   79loPI   C4B 1264  13.006   0.030   8.299  0.2031  0.1534 -0.1092
   80loPI    C1 1265   8.195   0.762  10.657  0.2860  0.1268 -0.1937
   80loPI    C2 1266   8.326   1.078  10.864 -0.2427  0.2240  0.0079
   80loPI    C3 1267   8.311   0.717  11.037 -0.0394  0.1688 -0.0864
   80loPI   PO4 1268   8.228   0.934  10.404  0.1758 -0.2373  0.2445
   80loPI   GL1 1269   8.289   0.831   9.926  0.1517  0.2857 -0.5276
   80loPI   GL2 1270   8.478   0.676   9.785 -0.0520 -0.0228 -0.1351
   80loPI   C1A 1271   8.415   1.168   9.656 -0.1476  0.0788  0.2161
   80loPI   C2A 1272   8.427   1.310   9.272 -0.5984 -0.0094 -0.1536
   80loPI   C3A 1273   8.123   1.204   8.929  0.0720 -0.3092 -0.2421
   80loPI   C4A 1274   7.891   1.281   8.600 -0.0481  0.1522 -0.1636
   80loPI   C5A 1275   7.728   1.605   8.215  0.0697  0.2733 -0.0544
   80loPI   C6A 1276   7.973   1.536   7.791  0.0374 -0.1239  0.1538
   80loPI   C1B 1277   8.594   0.471   9.489 -0.1080  0.1534  0.3076
   80loPI   C2B 1278   8.618   0.351   9.083  0.4262  0.3024  0.0696
   80loPI   C3B 1279   8.626   0.431   8.584  0.2538 -0.1034 -0.1456
   80loPI   C4B 1280   8.596   0.107   8.362 -0.1832  0.0073 -0.0556
   81loPI    C1 1281  10.713   2.455  10.349  0.0401  0.0656  0.0299
   81loPI    C2 1282  10.411   2.702  10.261  0.1010  0.1677  0.1041
   81loPI    C3 1283  10.373   2.437  10.558  0.0554  0.1245  0.0601
   81loPI   PO4 1284  10.759   2.407  10.125 -0.1673 -0.0333 -0.1448
   81loPI   GL1 1285  10.939   2.557   9.859 -0.0931  0.0649 -0.0458
   81loPI   GL2 1286  10.808   2.325   9.597  0.0044  0.5726 -0.4261
   81loPI   C1A 1287  10.895   2.820   9.519  0.0937  0.4729 -0.1307
   81loPI   C2A 1288  11.057   2.839   9.137  0.0659 -0.1904  0.2068
   81loPI   C3A 1289  11.145   2.944   8.638 -0.1000 -0.1473 -0.2463
   81loPI   C4A 1290  10.990   3.176   8.314  0.0970 -0.0423  0.0196
   81loPI   C5A 1291  10.842   2.948   7.942  0.0726 -0.2102 -0.3601
   81loPI   C6A 1292  10.751   3.068   7.539  0.1079  0.1557  0.1310
   81loPI   C1B 1293  10.841   2.385   9.233 -0.0408  0.1889 -0.0633
   81loPI   C2B 1294  10.833   2.572   8.807 -0.3297  0.2723 -0.5564
   81loPI   C3B 1295  10.683   2.594   8.421  0.1737  0.0294  0.3808
   81loPI   C4B 1296  10.455   2.445   8.042 -0.1111 -0.2446  0.0435
   82loPI    C1 1297  11.057  17.689  10.359  0.0920 -0.2441 -0.2477
   82loPI    C2 1298  10.829  17.969  10.187 -0.0238 -0.0871  0.1502
   82loPI    C3 1299  11.217  17.940  10.092 -0.1408 -0.1769 -0.3263
   82loPI   PO4 1300  10.918  17.464  10.310  0.0226 -0.1545  0.0914
   82loPI   GL1 1301  11.116  17.292  10.037  0.0222  0.0801  0.1013
   82loPI   GL2 1302  11.424  17.126   9.964  0.3634  0.4935  0.2386
   82loPI   C1A 1303  11.015  17.201   9.614 -0.1601  0.0777  0.2464
   82loPI   C2A 1304  10.939  17.452   9.264  0.0720 -0.2691  0.2460
   82loPI   C3A 1305  10.848  17.580   8.882  0.1259  0.1165 -0.1835
   82loPI   C4A 1306  11.055  17.534   8.466  0.1244 -0.1238 -0.0901
   82loPI   C5A 1307  11.202  17.430   8.057  0.0489  0.1278  0.3097
   82loPI   C6A 1308  11.183  17.449   7.647 -0.1790 -0.0633  0.2392
   82loPI   C1B 1309  11.538  17.169   9.549 -0.4885  0.0446  0.0051
   82loPI   C2B 1310  11.407  17.163   9.092 -0.1327 -0.0535  0.0918
   82loPI   C3B 1311  11.429  17.197   8.649  0.0624  0.0006  0.1452
   82loPI   C4B 1312  11.516  16.932   8.261 -0.2936 -0.1009 -0.0338
   83loPI    C1 1313   7.682  11.286  10.632 -0.3056 -0.0630 -0.1741
   83loPI    C2 1314   7.967  11.514  10.467  0.2141 -0.3937  0.2349
   83loPI    C3 1315   7.773  11.641  10.793 -0.1284 -0.1640 -0.0497
   83loPI   PO4 1316   7.553  11.170  10.463 -0.2448  0.0218  0.2071
   83loPI   GL1 1317   7.745  11.244  10.089 -0.0703  0.1171 -0.0028
   83loPI   GL2 1318   7.398  11.442  10.056 -0.2712  0.0080 -0.1033
   83loPI   C1A 1319   7.382  11.050   9.858 -0.2000  0.6218  0.3932
   83loPI   C2A 1320   7.313  10.986   9.451 -0.1720 -0.1031 -0.3513
   83loPI   C3A 1321   7.212  10.968   9.077  0.0418 -0.0393  0.1804
   83loPI   C4A 1322   7.205  11.035   8.626 -0.1067  0.1594 -0.2702
   83loPI   C5A 1323   7.472  11.143   8.286 -0.3828 -0.2846 -0.0672
   83loPI   C6A 1324   7.594  11.468   8.082 -0.0960 -0.0420  0.2869
   83loPI   C1B 1325   7.581  11.541   9.671  0.1369 -0.0943 -0.2519
   83loPI   C2B 1326   7.462  11.437   9.184  0.0857  0.1740  0.0098
   83loPI   C3B 1327   7.423  11.489   8.772 -0.1017 -0.1757  0.0026
   83loPI   C4B 1328   7.110  11.490   8.411 -0.0145 -0.0582 -0.0294
   84loPI    C1 1329   3.840  14.307  10.549 -0.0307 -0.1023  0.0564
   84loPI    C2 1330   3.876  14.424  10.930 -0.1168  0.1172 -0.0015
   84loPI    C3 1331   3.857  14.034  10.842 -0.0407  0.0634  0.2131
   84loPI   PO4 1332   3.881  14.563  10.427 -0.4811 -0.0527  0.0021
   84loPI   GL1 1333   4.154  14.827  10.139  0.0851  0.2585  0.0441
   84loPI   GL2 1334   3.974  14.565   9.939 -0.1465  0.1609  0.2051
   84loPI   C1A 1335   4.239  14.893   9.743 -0.1015 -0.0580 -0.2350
   84loPI   C2A 1336   4.169  14.877   9.258  0.1061  0.0197  0.0309
   84loPI   C3A 1337   4.174  14.998   8.827  0.0601  0.1435 -0.4157
   84loPI   C4A 1338   4.185  14.740   8.438 -0.0483 -0.0650 -0.2124
   84loPI   C5A 1339   4.254  14.558   8.005  0.0817  0.0530  0.0692
   84loPI   C6A 1340   4.178  14.747   7.535  0.0771  0.1526 -0.1521
   84loPI   C1B 1341   3.909  14.513   9.496  0.0253  0.2282 -0.2799
   84loPI   C2B 1342   3.821  14.488   9.092  0.0777 -0.3324  0.1694
   84loPI   C3B 1343   3.845  14.491   8.641  0.2742  0.2033  0.2611
   84loPI   C4B 1344   3.729  14.507   8.232 -0.1085  0.1093 -0.0623
   85loPI    C1 1345   3.060   9.965  10.624  0.2394  0.0281 -0.1278
   85loPI    C2 1346   3.276   9.932  10.959  0.0122 -0.2302 -0.0025
   85loPI    C3 1347   3.144   9.603  10.773 -0.1090 -0.0802 -0.1849
   85loPI   PO4 1348   3.220  10.224  10.440  0.0920  0.1271 -0.1838
   85loPI   GL1 1349   3.086  10.472  10.105 -0.0915 -0.3246  0.1502
   85loPI   GL2 1350   3.155  10.815  10.145  0.1139  0.0497 -0.1199
   85loPI   C1A 1351   3.072  10.364   9.746 -0.1811  0.0637  0.4232
   85loPI   C2A 1352   3.237  10.311   9.331  0.2308 -0.0570  0.0064
   85loPI   C3A 1353   3.321  10.330   8.911  0.2992  0.0388  0.1900
   85loPI   C4A 1354   3.309  10.391   8.506 -0.1473  0.0200  0.0787
   85loPI   C5A 1355   3.440  10.333   8.057  0.2341  0.0464  0.1676
   85loPI   C6A 1356   3.789  10.462   7.823 -0.2146 -0.1387 -0.3353
   85loPI   C1B 1357   3.200  10.880   9.780  0.0558  0.1069 -0.0076
   85loPI   C2B 1358   3.035  10.796   9.437 -0.0399 -0.0221  0.0752
   85loPI   C3B 1359   3.113  10.786   9.023 -0.2458  0.4784 -0.1725
   85loPI   C4B 1360   3.285  10.909   8.653  0.0475  0.0181 -0.0602
   86loPI    C1 1361   1.970  11.884  10.647 -0.0456 -0.1378  0.1178
   86loPI    C2 1362   2.136  12.058  10.967  0.1121 -0.1306  0.0328
   86loPI    C3 1363   2.019  11.676  10.985 -0.2214 -0.0233  0.2151
   86loPI   PO4 1364   1.692  12.104  10.515 -0.0510 -0.0275  0.1138
   86loPI   GL1 1365   1.261  12.151  10.172  0.5165  0.0599  0.2681
   86loPI   GL2 1366   1.471  12.520  10.058 -0.1144  0.1563 -0.0631
   86loPI   C1A 1367   1.409  12.185   9.713  0.1491 -0.2508  0.1576
   86loPI   C2A 1368   1.415  12.084   9.128 -0.1075 -0.1157  0.1355
   86loPI   C3A 1369   1.333  11.885   8.739  0.0203 -0.2113  0.0782
   86loPI   C4A 1370   1.399  11.640   8.464  0.0384  0.0039  0.0081
   86loPI   C5A 1371   1.361  11.355   8.110  0.2451 -0.0691 -0.1772
   86loPI   C6A 1372   1.524  11.001   7.835 -0.4534 -0.1280  0.3571
   86loPI   C1B 1373   1.867  12.494   9.736  0.1564  0.1070  0.1849
   86loPI   C2B 1374   1.770  12.502   9.321  0.0377  0.0286  0.1940
   86loPI   C3B 1375   1.437  12.637   9.084  0.0467  0.0043 -0.2367
   86loPI   C4B 1376   1.208  12.375   8.731 -0.0436 -0.0498 -0.1211
   87loPI    C1 1377   7.496  15.262  10.352 -0.1428  0.0528  0.0072
   87loPI    C2 1378   7.585  15.097  10.706  0.1121 -0.0420 -0.0987
   87loPI    C3 1379   7.716  15.464  10.618 -0.0651  0.0357 -0.0438
   87loPI   PO4 1380   7.563  15.131  10.172  0.1092 -0.0833  0.0022
   87loPI   GL1 1381   7.874  14.962   9.977 -0.1604  0.1751 -0.0614
   87loPI   GL2 1382   7.949  15.235   9.730  0.0264 -0.1166 -0.0882
   87loPI   C1A 1383   7.964  14.723   9.571  0.1923 -0.1323  0.2060
   87loPI   C2A 1384   7.831  14.637   9.143  0.0652 -0.0049  0.1506
   87loPI   C3A 1385   7.607  14.774   8.667  0.0913  0.0643 -0.2709
   87loPI   C4A 1386   7.631  14.918   8.319  0.1392  0.1192 -0.1787
   87loPI   C5A 1387   7.532  15.048   7.940  0.2306 -0.0040  0.0767
   87loPI   C6A 1388   7.521  15.188   7.514  0.2191 -0.0139  0.0509
   87loPI   C1B 1389   7.982  15.148   9.256  0.0240 -0.1528 -0.1354
   87loPI   C2B 1390   8.215  15.068   8.765 -0.2174  0.0646 -0.0467
   87loPI   C3B 1391   8.266  14.913   8.329 -0.1038 -0.2808 -0.0253
   87loPI   C4B 1392   8.433  14.789   7.893  0.0407 -0.0798  0.1088
   88loPI    C1 1393   6.671   0.562  10.579 -0.2543 -0.1420  0.1463
   88loPI    C2 1394   6.785   0.943  10.621 -0.2072 -0.1305 -0.0772
   88loPI    C3 1395   6.796   0.696  10.935 -0.0182 -0.0072  0.0155
   88loPI   PO4 1396   6.757   0.389  10.407 -0.4865  0.2075  0.0028
   88loPI   GL1 1397   6.518   0.234  10.113 -0.1396  0.5413  0.0404
   88loPI   GL2 1398   6.411  -0.026   9.897 -0.0929 -0.1077  0.1293
   88loPI   C1A 1399   6.638   0.525   9.783  0.1560  0.0696 -0.2466
   88loPI   C2A 1400   6.715   0.483   9.339  0.3164 -0.1055  0.0190
   88loPI   C3A 1401   6.752   0.430   8.878 -0.1594  0.1482  0.2019
   88loPI   C4A 1402   6.731   0.559   8.490 -0.0546 -0.2186 -0.0811
   88loPI   C5A 1403   7.070   0.767   8.230 -0.1840 -0.1480  0.0609
   88loPI   C6A 1404   7.202   0.942   7.870  0.2612 -0.1950 -0.2389
   88loPI   C1B 1405   6.203   0.093   9.531  0.4215  0.0746  0.0488
   88loPI   C2B 1406   6.244   0.175   9.157 -0.0569 -0.0269  0.0109
   88loPI   C3B 1407   6.353   0.163   8.653 -0.2355  0.2878  0.0591
   88loPI   C4B 1408   6.342  -0.154   8.263  0.3481 -0.1240  0.2373
   89loPI    C1 1409  11.057   5.085  10.554  0.1780  0.1313 -0.2463
   89loPI    C2 1410  10.832   4.926  10.264  0.1663  0.0734 -0.2055
   89loPI    C3 1411  10.661   5.145  10.551  0.1358 -0.1246 -0.0707
   89loPI   PO4 1412  11.336   5.055  10.359  0.0523 -0.1529  0.1558
   89loPI   GL1 1413  11.601   4.878  10.036  0.0829 -0.3072  0.1766
   89loPI   GL2 1414  11.836   4.969   9.904 -0.1080 -0.1520 -0.0096
   89loPI   C1A 1415  11.414   5.010   9.595  0.1573  0.0908  0.1312
   89loPI   C2A 1416  11.193   5.323   9.142  0.1884  0.2484  0.0413
   89loPI   C3A 1417  11.085   5.311   8.720 -0.3535  0.0966  0.0803
   89loPI   C4A 1418  11.262   5.508   8.340  0.0851  0.1699 -0.0587
   89loPI   C5A 1419  11.576   5.766   8.129 -0.0760 -0.1093 -0.1029
   89loPI   C6A 1420  11.655   6.172   8.225 -0.1223  0.2984  0.2328
   89loPI   C1B 1421  11.932   4.768   9.558 -0.0048 -0.0238  0.0214
   89loPI   C2B 1422  11.953   4.625   9.175 -0.1527  0.1995  0.0903
   89loPI   C3B 1423  12.212   4.468   8.809 -0.1883 -0.1544 -0.2075
   89loPI   C4B 1424  12.097   4.513   8.401  0.2902  0.1074  0.1655
   90loPI    C1 1425  11.163   9.077  11.044  0.1633 -0.3316  0.1637
   90loPI    C2 1426  10.827   8.984  11.240 -0.0583 -0.3100 -0.1970
   90loPI    C3 1427  10.982   9.351  11.273 -0.0903 -0.3083 -0.0592
   90loPI   PO4 1428  11.112   8.963  10.784 -0.3608 -0.0067 -0.0572
   90loPI   GL1 1429  11.050   8.935  10.365 -0.0022 -0.3141 -0.0492
   90loPI   GL2 1430  10.880   9.090  10.343  0.2426 -0.2048 -0.1004
   90loPI   C1A 1431  11.330   9.037  10.065 -0.0070  0.2541  0.2275
   90loPI   C2A 1432  11.455   9.118   9.598 -0.0403  0.3690  0.1713
   90loPI   C3A 1433  11.536   9.049   9.237  0.4811  0.3270 -0.1456
   90loPI   C4A 1434  11.483   9.015   8.798 -0.0825  0.1854  0.2421
   90loPI   C5A 1435  11.302   9.235   8.434 -0.1593  0.0978 -0.0822
   90loPI   C6A 1436  11.454   9.717   8.274  0.0499  0.1157 -0.0937
   90loPI   C1B 1437  10.900   9.194   9.829 -0.2991 -0.2291 -0.0566
   90loPI   C2B 1438  10.870   9.047   9.472 -0.0423 -0.2289 -0.0135
   90loPI   C3B 1439  10.681   9.271   8.997 -0.0193 -0.0036 -0.0343
   90loPI   C4B 1440  10.832   9.209   8.616  0.2377 -0.1432 -0.4129
   91loPI    C1 1441   5.633   8.465  10.053  0.1440 -0.1482 -0.2841
   91loPI    C2 1442   5.644   8.856   9.971 -0.0057  0.0020  0.3607
   91loPI    C3 1443   5.975   8.634   9.934  0.0280  0.1358 -0.2212
   91loPI   PO4 1444   5.407   8.351  10.042  0.2042 -0.0676 -0.0836
   91loPI   GL1 1445   5.187   8.390   9.707  0.0294  0.0849 -0.0422
   91loPI   GL2 1446   5.497   8.607   9.572 -0.3018 -0.0574 -0.1152
   91loPI   C1A 1447   5.343   8.280   9.250  0.0035 -0.0190 -0.2344
   91loPI   C2A 1448   5.422   8.061   8.907  0.0691  0.2601 -0.0168
   91loPI   C3A 1449   5.717   7.811   8.571 -0.0063  0.0954  0.0215
   91loPI   C4A 1450   6.079   7.619   8.393 -0.1512 -0.1568  0.0303
   91loPI   C5A 1451   6.406   7.671   8.115 -0.3163  0.0982  0.1263
   91loPI   C6A 1452   6.654   7.962   7.962 -0.1538  0.2263 -0.0253
   91loPI   C1B 1453   5.743   8.574   9.125 -0.0439  0.0692 -0.0022
   91loPI   C2B 1454   5.772   8.592   8.637  0.1701  0.1582  0.2740
   91loPI   C3B 1455   5.675   8.447   8.181 -0.2071  0.1495  0.0203
   91loPI   C4B 1456   5.545   8.704   7.761 -0.1696 -0.2760 -0.0529
   92loPI    C1 1457   0.701  10.854  10.739  0.0690  0.1799  0.1842
   92loPI    C2 1458   0.711  10.930  11.131  0.0015 -0.0268  0.2271
   92loPI    C3 1459   0.873  10.593  10.989  0.1028  0.0885  0.0669
   92loPI   PO4 1460   0.489  11.021  10.636  0.2005 -0.2227 -0.1049
   92loPI   GL1 1461   0.289  11.101  10.298  0.0026  0.0906 -0.1624
   92loPI   GL2 1462   0.614  11.086  10.111  0.1099  0.1017  0.0399
   92loPI   C1A 1463   0.209  11.304   9.826 -0.2557 -0.1105 -0.0166
   92loPI   C2A 1464   0.272  11.359   9.393 -0.0731  0.3194 -0.1318
   92loPI   C3A 1465   0.325  11.208   9.013 -0.0052 -0.2256  0.0661
   92loPI   C4A 1466   0.397  11.364   8.598  0.2489 -0.0629 -0.0458
   92loPI   C5A 1467   0.371  11.252   8.189 -0.3255  0.3570  0.1505
   92loPI   C6A 1468   0.414  11.180   7.771 -0.2274 -0.0504  0.0429
   92loPI   C1B 1469   0.735  11.029   9.754 -0.0843 -0.0711 -0.0194
   92loPI   C2B 1470   0.724  11.023   9.291 -0.0003  0.2002 -0.1388
   92loPI   C3B 1471   0.804  11.075   8.755 -0.2357  0.0564  0.0182
   92loPI   C4B 1472   0.848  11.231   8.347 -0.0752  0.2389  0.2142
   93loPI    C1 1473  12.668   9.952  10.836  0.1560  0.2745  0.0306
   93loPI    C2 1474  12.354  10.195  10.884 -0.0372  0.0163  0.1026
   93loPI    C3 1475  12.715  10.347  10.802 -0.1829  0.3155  0.0014
   93loPI   PO4 1476  12.529   9.731  10.628 -0.0747  0.1864 -0.1383
   93loPI   GL1 1477  12.490   9.625  10.200  0.0112 -0.1207 -0.3101
   93loPI   GL2 1478  12.264   9.722  10.166 -0.0469  0.0139 -0.1170
   93loPI   C1A 1479  12.809   9.561   9.887 -0.1992 -0.2202  0.5063
   93loPI   C2A 1480  12.988   9.749   9.650 -0.3831 -0.3243 -0.1494
   93loPI   C3A 1481  13.113   9.714   9.192  0.0508 -0.1359  0.0934
   93loPI   C4A 1482  13.040   9.970   8.835 -0.0417 -0.0979 -0.0368
   93loPI   C5A 1483  12.777  10.090   8.502 -0.1864 -0.1578  0.2975
   93loPI   C6A 1484  12.784   9.945   8.065  0.1297  0.2256  0.1708
   93loPI   C1B 1485  11.924   9.659   9.871 -0.3186 -0.1112  0.0686
   93loPI   C2B 1486  11.724   9.557   9.495  0.0099 -0.0944  0.2171
   93loPI   C3B 1487  11.662   9.517   9.082 -0.2900 -0.1145  0.1294
   93loPI   C4B 1488  11.778   9.759   8.711 -0.1870 -0.0048  0.1504
   94loPI    C1 1489   3.298  14.755  10.454  0.1611  0.3212  0.1136
   94loPI    C2 1490   3.105  14.864  10.787 -0.0904 -0.0334  0.0887
   94loPI    C3 1491   3.439  14.646  10.812 -0.0559  0.0222  0.1116
   94loPI   PO4 1492   3.126  14.840  10.280 -0.3909  0.0353  0.0539
   94loPI   GL1 1493   3.084  14.719   9.974  0.1788 -0.4100 -0.0800
   94loPI   GL2 1494   2.944  14.383  10.002 -0.3237 -0.0432 -0.4282
   94loPI   C1A 1495   3.050  14.667   9.526  0.0223  0.0836  0.0754
   94loPI   C2A 1496   3.067  14.745   9.070  0.2325 -0.5266 -0.1930
   94loPI   C3A 1497   2.973  14.854   8.602  0.2468  0.1365 -0.0841
   94loPI   C4A 1498   2.939  14.892   8.212  0.1855 -0.3568 -0.1248
   94loPI   C5A 1499   3.059  15.208   7.992  0.1828  0.1526 -0.1248
   94loPI   C6A 1500   3.421  15.231   7.724  0.0940 -0.0341  0.1842
   94loPI   C1B 1501   2.700  14.308   9.655 -0.0223 -0.1641 -0.1754
   94loPI   C2B 1502   2.780  14.386   9.140 -0.0190  0.1108 -0.0596
   94loPI   C3B 1503   2.805  14.408   8.707 -0.3023  0.1306 -0.1927
   94loPI   C4B 1504   2.708  14.466   8.248  0.1749  0.0182  0.0751
   95loPI    C1 1505   2.132   7.669  10.839  0.0971  0.3485 -0.0115
   95loPI    C2 1506   2.345   7.450  11.098 -0.1113  0.0939 -0.0512
   95loPI    C3 1507   2.474   7.812  10.988  0.1512  0.0627  0.1465
   95loPI   PO4 1508   2.138   7.605  10.579 -0.0315  0.3206  0.1950
   95loPI   GL1 1509   2.216   7.741  10.124  0.2032  0.1846 -0.4805
   95loPI   GL2 1510   2.282   7.983  10.026 -0.0827  0.0773  0.0087
   95loPI   C1A 1511   1.978   7.569   9.774  0.1250  0.1085 -0.0268
   95loPI   C2A 1512   2.006   7.357   9.439  0.0920  0.1401  0.1571
   95loPI   C3A 1513   1.951   7.432   8.972 -0.0612 -0.2358  0.0537
   95loPI   C4A 1514   1.907   7.340   8.549 -0.1059 -0.1881  0.0538
   95loPI   C5A 1515   1.841   7.500   8.226  0.2513  0.1191 -0.1455
   95loPI   C6A 1516   1.636   7.585   7.770  0.4125  0.4060  0.2994
   95loPI   C1B 1517   1.958   8.080   9.684 -0.2500  0.2355 -0.1675
   95loPI   C2B 1518   1.932   7.966   9.301  0.0691  0.0442  0.1099
   95loPI   C3B 1519   1.836   7.905   8.871  0.0793  0.3122 -0.0527
   95loPI   C4B 1520   1.836   7.981   8.455 -0.6250 -0.0560  0.2066
   96loPI    C1 1521  16.273  16.550  10.330  0.0239  0.2876  0.0788
   96loPI    C2 1522  16.639  16.658  10.210  0.1106 -0.1494 -0.0673
   96loPI    C3 1523  16.527  16.717  10.589  0.2854  0.0997 -0.0519
   96loPI   PO4 1524  16.203  16.335  10.185  0.3210  0.0020  0.1015
   96loPI   GL1 1525  16.036  16.162   9.887  0.1122  0.2895 -0.2920
   96loPI   GL2 1526  15.815  16.023   9.744 -0.1409 -0.1332 -0.3000
   96loPI   C1A 1527  16.270  16.270   9.454 -0.3645 -0.2102 -0.2144
   96loPI   C2A 1528  16.216  16.260   8.997 -0.0689  0.1433 -0.0939
   96loPI   C3A 1529  16.251  16.188   8.488  0.3103  0.1365  0.0470
   96loPI   C4A 1530  16.462  15.962   8.163 -0.1956 -0.0707  0.0165
   96loPI   C5A 1531  16.810  15.879   7.820  0.0511  0.2590 -0.2664
   96loPI   C6A 1532  17.242  15.937   7.902 -0.0989  0.0403  0.2411
   96loPI   C1B 1533  15.653  16.060   9.404 -0.1642 -0.0839 -0.2587
   96loPI   C2B 1534  15.706  16.132   8.989  0.3209 -0.3001  0.1328
   96loPI   C3B 1535  15.759  16.038   8.561  0.2741 -0.1870 -0.0826
   96loPI   C4B 1536  15.924  15.872   8.171 -0.0910  0.1183 -0.1048
   97loPI    C1 1537  11.939   2.820  10.185  0.4423  0.1658 -0.0765
   97loPI    C2 1538  11.931   2.938  10.567  0.1816 -0.2151  0.0410
   97loPI    C3 1539  11.608   2.986  10.336  0.1993 -0.3541 -0.0143
   97loPI   PO4 1540  12.194   2.878  10.130 -0.1348  0.2012  0.0626
   97loPI   GL1 1541  12.373   2.884   9.810 -0.0256  0.0100  0.2076
   97loPI   GL2 1542  12.040   2.826   9.641 -0.1521  0.1377 -0.0152
   97loPI   C1A 1543  12.538   2.983   9.336  0.1104 -0.2152 -0.1011
   97loPI   C2A 1544  12.513   3.069   8.862 -0.0561  0.0452 -0.0413
   97loPI   C3A 1545  12.444   3.191   8.503 -0.0928  0.2139 -0.0550
   97loPI   C4A 1546  12.654   3.393   8.210  0.0839  0.3285 -0.0633
   97loPI   C5A 1547  12.975   3.597   7.853  0.0046  0.2898 -0.4214
   97loPI   C6A 1548  13.211   3.915   7.561  0.2375 -0.1437 -0.2156
   97loPI   C1B 1549  12.061   2.835   9.235 -0.0413  0.3668  0.3442
   97loPI   C2B 1550  12.044   2.917   8.777  0.1611  0.0988  0.0798
   97loPI   C3B 1551  11.977   2.950   8.398 -0.1395 -0.0459 -0.1391
   97loPI   C4B 1552  12.077   3.099   7.980 -0.0837 -0.0156  0.0336
   98loPI    C1 1553   6.348   3.860  10.536 -0.0765  0.2225  0.4427
   98loPI    C2 1554   6.525   3.544  10.706 -0.0597 -0.0621 -0.0828
   98loPI    C3 1555   6.126   3.558  10.676 -0.0611 -0.0261 -0.0471
   98loPI   PO4 1556   6.532   3.913  10.303  0.1300  0.2453  0.1136
   98loPI   GL1 1557   6.504   4.124   9.945 -0.2101  0.0450 -0.2210
   98loPI   GL2 1558   6.624   4.468  10.065  0.0064  0.0562  0.2135
   98loPI   C1A 1559   6.396   4.257   9.510  0.3213  0.1379 -0.0200
   98loPI   C2A 1560   6.342   4.391   9.114  0.0174  0.0091 -0.0056
   98loPI   C3A 1561   6.654   4.440   8.815 -0.3605  0.0611  0.0780
   98loPI   C4A 1562   6.730   4.508   8.344  0.2283 -0.0681  0.1349
   98loPI   C5A 1563   6.366   4.692   8.218 -0.1640 -0.0753 -0.2995
   98loPI   C6A 1564   5.949   4.735   8.052  0.1510  0.1812  0.0595
   98loPI   C1B 1565   6.365   4.685   9.738 -0.0289 -0.3547 -0.0782
   98loPI   C2B 1566   6.616   4.907   9.391 -0.1418 -0.0840 -0.0869
   98loPI   C3B 1567   6.543   4.939   9.009 -0.3813  0.2308  0.1380
   98loPI   C4B 1568   6.625   4.965   8.601  0.3720  0.2197  0.1030
   99loPI    C1 1569   7.380   3.830  10.692 -0.0438 -0.0387 -0.1422
   99loPI    C2 1570   7.180   3.921  11.026  0.0308  0.0333 -0.1166
   99loPI    C3 1571   7.117   3.570  10.844 -0.0127 -0.0047 -0.0290
   99loPI   PO4 1572   7.290   4.055  10.550  0.3171 -0.0525 -0.0063
   99loPI   GL1 1573   7.393   4.345  10.188 -0.2456 -0.0567  0.1289
   99loPI   GL2 1574   7.419   4.060  10.015 -0.0936  0.0146  0.2375
   99loPI   C1A 1575   7.387   4.521   9.804 -0.1294 -0.3633 -0.1396
   99loPI   C2A 1576   7.362   4.801   9.525  0.0961  0.0506  0.4517
   99loPI   C3A 1577   7.498   5.098   9.282 -0.1321 -0.0482 -0.2825
   99loPI   C4A 1578   7.571   5.134   8.848  0.0428  0.2050 -0.1629
   99loPI   C5A 1579   7.540   4.943   8.566  0.0411 -0.0695 -0.3516
   99loPI   C6A 1580   7.623   4.913   8.125  0.0196  0.2430 -0.0414
   99loPI   C1B 1581   7.379   4.060   9.556  0.1048 -0.1404 -0.0246
   99loPI   C2B 1582   7.494   4.394   9.241 -0.3213 -0.0099 -0.0983
   99loPI   C3B 1583   7.412   4.700   8.970  0.0849  0.2869  0.2804
   99loPI   C4B 1584   7.100   4.640   8.673  0.2863 -0.2406  0.1313
  100loPI    C1 1585   5.566  17.360  10.648  0.2631  0.1032 -0.0275
  100loPI    C2 1586   5.828  17.560  10.874 -0.1210  0.0034  0.5262
  100loPI    C3 1587   5.944  17.233  10.675  0.2668  0.1965  0.4252
  100loPI   PO4 1588   5.386  17.530  10.423  0.2042 -0.0041 -0.2631
  100loPI   GL1 1589   5.142  17.486  10.014 -0.1439  0.1856 -0.1366
  100loPI   GL2 1590   4.868  17.540  10.035  0.2832  0.0197  0.0144
  100loPI   C1A 1591   5.353  17.308   9.616  0.0538  0.1394  0.2124
  100loPI   C2A 1592   5.427  16.975   9.268 -0.2261 -0.3017  0.1267
  100loPI   C3A 1593   5.602  16.931   8.851 -0.2844  0.0350  0.0592
  100loPI   C4A 1594   6.063  16.896   8.700  0.1598  0.0142  0.0117
  100loPI   C5A 1595   6.237  16.496   8.461  0.1552  0.0414 -0.0583
  100loPI   C6A 1596   6.616  16.451   8.321 -0.2571 -0.5292 -0.0277
  100loPI   C1B 1597   4.836  17.659   9.659 -0.3429 -0.1838 -0.3332
  100loPI   C2B 1598   4.721  17.778   9.258 -0.2694  0.5901  0.1082
  100loPI   C3B 1599   4.728  17.663   8.853 -0.0613 -0.2168  0.0691
  100loPI   C4B 1600   4.664  17.932   8.534  0.0945  0.0180 -0.0391
  101loPI    C1 1601   8.554  12.215  10.542 -0.1096  0.0911 -0.3447
  101loPI    C2 1602   8.777  11.940  10.727 -0.0323  0.2259 -0.2356
  101loPI    C3 1603   8.778  12.318  10.857 -0.3169  0.2301 -0.2406
  101loPI   PO4 1604   8.629  12.265  10.261  0.2394  0.0188  0.0644
  101loPI   GL1 1605   8.276  12.115   9.939  0.1322  0.0230  0.1721
  101loPI   GL2 1606   8.239  12.464   9.736  0.4368 -0.0426  0.1688
  101loPI   C1A 1607   8.401  11.956   9.492 -0.1895 -0.0485 -0.2404
  101loPI   C2A 1608   8.480  11.897   9.136 -0.3810 -0.0156  0.0799
  101loPI   C3A 1609   8.444  11.784   8.781 -0.0539 -0.1003 -0.4967
  101loPI   C4A 1610   8.387  11.780   8.419 -0.1129 -0.0095  0.2959
  101loPI   C5A 1611   8.531  11.772   7.934 -0.3250 -0.1046  0.0556
  101loPI   C6A 1612   8.270  11.668   7.540  0.0541  0.3239  0.2796
  101loPI   C1B 1613   8.075  12.280   9.338 -0.2566 -0.1152  0.1606
  101loPI   C2B 1614   8.045  12.137   8.921  0.2217  0.2400 -0.0573
  101loPI   C3B 1615   8.005  12.058   8.459  0.0901 -0.0042 -0.1816
  101loPI   C4B 1616   8.037  11.791   8.084  0.1887  0.3078 -0.1147
  102loPI    C1 1617  10.017  14.596  10.417  0.0160 -0.2410 -0.0587
  102loPI    C2 1618  10.028  14.563  10.815 -0.1406 -0.0995 -0.0415
  102loPI    C3 1619  10.303  14.784  10.625 -0.1739 -0.0174  0.0050
  102loPI   PO4 1620   9.831  14.693  10.303 -0.0579  0.0623  0.1440
  102loPI   GL1 1621   9.686  14.559   9.960 -0.1800 -0.4779 -0.0863
  102loPI   GL2 1622   9.809  14.803   9.834  0.1543  0.3171  0.0096
  102loPI   C1A 1623   9.669  14.230   9.721  0.1814  0.2444  0.0208
  102loPI   C2A 1624   9.529  13.941   9.334 -0.0626 -0.0386 -0.0397
  102loPI   C3A 1625   9.731  13.854   8.946 -0.0484  0.1819  0.3526
  102loPI   C4A 1626   9.447  13.717   8.541  0.4638  0.1756  0.0895
  102loPI   C5A 1627   9.458  13.823   8.119 -0.0872 -0.1609  0.0078
  102loPI   C6A 1628   9.456  13.527   7.744 -0.0145 -0.1294  0.3896
  102loPI   C1B 1629  10.135  14.667   9.518  0.5639  0.1089 -0.1240
  102loPI   C2B 1630  10.427  14.597   9.169  0.1761  0.5941 -0.0267
  102loPI   C3B 1631  10.512  14.556   8.767 -0.4418  0.1693  0.1591
  102loPI   C4B 1632  10.525  14.826   8.437  0.3334 -0.2033  0.1354
  103loPI    C1 1633   1.861   3.231  10.649 -0.0123 -0.0726 -0.2048
  103loPI    C2 1634   1.682   3.578  10.738 -0.1062 -0.1293 -0.1715
  103loPI    C3 1635   2.031   3.483  10.909 -0.1084 -0.0766 -0.1378
  103loPI   PO4 1636   1.814   3.274  10.375  0.0472  0.1251 -0.0630
  103loPI   GL1 1637   2.009   3.167   9.961  0.0687 -0.1606 -0.1022
  103loPI   GL2 1638   2.053   2.816   9.864  0.0295  0.0875  0.2441
  103loPI   C1A 1639   2.042   3.289   9.554 -0.1137 -0.2569 -0.1771
  103loPI   C2A 1640   1.903   3.299   9.130  0.1056  0.0355 -0.2882
  103loPI   C3A 1641   1.863   3.201   8.661  0.0424  0.0407 -0.2426
  103loPI   C4A 1642   1.854   3.250   8.242  0.0077 -0.4635  0.0590
  103loPI   C5A 1643   1.760   3.132   7.884  0.2148 -0.0690  0.1158
  103loPI   C6A 1644   1.619   3.418   7.497 -0.2048 -0.0209 -0.3395
  103loPI   C1B 1645   1.907   2.823   9.470  0.3308 -0.0354  0.0653
  103loPI   C2B 1646   1.837   2.769   9.052  0.2319 -0.1285  0.0151
  103loPI   C3B 1647   1.630   2.748   8.683  0.2844  0.1076 -0.0228
  103loPI   C4B 1648   1.577   2.751   8.289 -0.0045  0.6155  0.1447
  104loPI    C1 1649  16.055  10.910  10.551  0.0614  0.0033  0.0653
  104loPI    C2 1650  15.986  11.284  10.675  0.0327  0.0013  0.0558
  104loPI    C3 1651  15.923  10.976  10.923  0.1485  0.0089  0.0957
  104loPI   PO4 1652  15.907  11.048  10.212  0.1592  0.0470 -0.1629
  104loPI   GL1 1653  16.092  11.026   9.908 -0.0899  0.2636 -0.0034
  104loPI   GL2 1654  16.426  11.088   9.891  0.1202 -0.1358 -0.2335
  104loPI   C1A 1655  16.043  11.001   9.462  0.1019 -0.2601 -0.1857
  104loPI   C2A 1656  15.905  10.910   9.042 -0.0076 -0.0569  0.0817
  104loPI   C3A 1657  15.958  10.823   8.627 -0.0973 -0.1328 -0.0619
  104loPI   C4A 1658  16.053  10.821   8.215 -0.1685 -0.0245 -0.0286
  104loPI   C5A 1659  16.075  10.637   7.889  0.0282  0.0054 -0.2461
  104loPI   C6A 1660  16.328  10.304   7.685  0.0433 -0.2189 -0.3802
  104loPI   C1B 1661  16.498  11.077   9.434  0.0693 -0.2157  0.0315
  104loPI   C2B 1662  16.364  11.076   8.972 -0.1197  0.1815 -0.0211
  104loPI   C3B 1663  16.387  11.137   8.437  0.1179  0.0512  0.2039
  104loPI   C4B 1664  16.424  11.026   7.897  0.2311 -0.1459 -0.0981
  105loPI    C1 1665   1.768  15.141  10.973 -0.2244 -0.0477  0.0580
  105loPI    C2 1666   2.049  15.420  10.918 -0.1176 -0.1508  0.0770
  105loPI    C3 1667   2.102  15.133  11.192 -0.0882 -0.3690 -0.1533
  105loPI   PO4 1668   1.629  15.142  10.676 -0.0180  0.2574 -0.2809
  105loPI   GL1 1669   1.691  15.057  10.215  0.0779  0.0650 -0.2130
  105loPI   GL2 1670   1.741  14.751  10.042  0.0287  0.1265  0.3267
  105loPI   C1A 1671   1.709  15.258   9.848  0.1939  0.1251 -0.0057
  105loPI   C2A 1672   1.785  15.009   9.508 -0.0524  0.1018 -0.1757
  105loPI   C3A 1673   1.974  14.792   9.208 -0.2549 -0.0668 -0.1906
  105loPI   C4A 1674   2.078  14.777   8.770 -0.0595  0.2159  0.1203
  105loPI   C5A 1675   1.876  14.683   8.354  0.2276 -0.1202 -0.0228
  105loPI   C6A 1676   1.624  14.832   7.969  0.0564  0.0097 -0.1647
  105loPI   C1B 1677   1.790  14.492   9.621  0.2487 -0.0997 -0.2994
  105loPI   C2B 1678   1.806  14.329   9.254  0.2169  0.2468  0.0509
  105loPI   C3B 1679   1.708  14.395   8.856  0.1536 -0.1632  0.0104
  105loPI   C4B 1680   1.586  14.216   8.417  0.1252 -0.3477 -0.1803
  106loPI    C1 1681  11.173   1.411  10.457  0.0866 -0.0640  0.2989
  106loPI    C2 1682  11.147   1.735  10.691  0.1974  0.1101  0.0739
  106loPI    C3 1683  11.246   1.381  10.850 -0.0857  0.1500  0.3491
  106loPI   PO4 1684  11.243   1.531  10.255 -0.1304  0.1008  0.0812
  106loPI   GL1 1685  11.037   1.520   9.925  0.0607  0.1474 -0.0112
  106loPI   GL2 1686  10.917   1.762   9.785  0.0038  0.0122 -0.0465
  106loPI   C1A 1687  10.895   1.303   9.544 -0.1756  0.1254 -0.1482
  106loPI   C2A 1688  10.828   1.347   9.063  0.1255  0.0826  0.0830
  106loPI   C3A 1689  10.672   1.381   8.640 -0.1960  0.0922  0.0002
  106loPI   C4A 1690  10.603   1.259   8.245  0.1505  0.0932  0.1317
  106loPI   C5A 1691  10.401   1.483   7.942  0.1600 -0.2647  0.0021
  106loPI   C6A 1692  10.041   1.767   8.001 -0.1660  0.2088 -0.3326
  106loPI   C1B 1693  11.059   1.874   9.420  0.2741 -0.2906  0.4005
  106loPI   C2B 1694  11.053   2.011   8.961  0.2125  0.2275  0.4374
  106loPI   C3B 1695  10.988   1.738   8.578  0.2647 -0.1674  0.0369
  106loPI   C4B 1696  10.955   1.701   8.041  0.0402  0.1601  0.1386
  107loPI    C1 1697   1.610  17.304  10.387 -0.0944  0.0334 -0.2072
  107loPI    C2 1698   1.880  17.362  10.676 -0.1033  0.0158 -0.1953
  107loPI    C3 1699   1.492  17.430  10.748 -0.0971  0.0837 -0.2256
  107loPI   PO4 1700   1.692  17.154  10.206 -0.0533 -0.2085 -0.1206
  107loPI   GL1 1701   1.495  17.038   9.901 -0.0622 -0.0790  0.0844
  107loPI   GL2 1702   1.577  16.778   9.878 -0.0240  0.0635  0.2138
  107loPI   C1A 1703   1.520  17.093   9.385 -0.0371 -0.2014  0.2713
  107loPI   C2A 1704   1.794  17.075   9.031  0.2460  0.2189 -0.0909
  107loPI   C3A 1705   1.957  17.024   8.531 -0.3271  0.1474 -0.0426
  107loPI   C4A 1706   1.852  16.995   8.171 -0.1697  0.3622 -0.0684
  107loPI   C5A 1707   1.774  16.834   7.733 -0.1566  0.0372  0.2028
  107loPI   C6A 1708   1.967  16.429   7.559  0.2497  0.1987 -0.1189
  107loPI   C1B 1709   1.904  16.614   9.545 -0.3785 -0.0578 -0.0372
  107loPI   C2B 1710   2.005  16.618   9.125  0.0595  0.0372 -0.1468
  107loPI   C3B 1711   2.095  16.622   8.809 -0.1571 -0.1120  0.0676
  107loPI   C4B 1712   2.229  16.642   8.343 -0.2149 -0.1079  0.2282
  108loPI    C1 1713   3.803  11.972  10.824  0.1158  0.0249 -0.0718
  108loPI    C2 1714   3.720  11.582  10.793 -0.0120  0.0395  0.0743
  108loPI    C3 1715   3.942  11.715  11.098  0.1968  0.0565 -0.0833
  108loPI   PO4 1716   3.925  12.053  10.542 -0.0606  0.2321 -0.3358
  108loPI   GL1 1717   4.007  12.050  10.079  0.1285 -0.0101  0.0555
  108loPI   GL2 1718   4.023  12.298  10.080 -0.3135 -0.2119  0.0732
  108loPI   C1A 1719   3.789  11.726   9.815 -0.0144 -0.0486  0.1806
  108loPI   C2A 1720   3.726  11.566   9.367  0.0351  0.0410  0.0543
  108loPI   C3A 1721   3.650  11.678   8.834 -0.1293  0.2095  0.3069
  108loPI   C4A 1722   3.745  11.850   8.432 -0.1781 -0.1395  0.1338
  108loPI   C5A 1723   3.829  12.037   7.976  0.2088  0.2346 -0.0730
  108loPI   C6A 1724   3.826  12.438   7.768  0.1265  0.1992  0.0940
  108loPI   C1B 1725   3.921  12.239   9.606 -0.3351  0.0166 -0.0066
  108loPI   C2B 1726   3.749  12.065   9.260 -0.1482 -0.0720  0.3130
  108loPI   C3B 1727   3.326  11.999   9.006  0.0944 -0.5817 -0.5176
  108loPI   C4B 1728   3.165  12.043   8.620  0.1302  0.0048  0.1437
  109loPI    C1 1729  12.707   5.499  10.528  0.0474 -0.2322 -0.1393
  109loPI    C2 1730  12.993   5.666  10.753  0.0160 -0.1022 -0.1952
  109loPI    C3 1731  12.652   5.545  10.922 -0.1286  0.2637 -0.2150
  109loPI   PO4 1732  12.800   5.322  10.312  0.4121  0.1308  0.3225
  109loPI   GL1 1733  12.651   5.326  10.012  0.0447 -0.0648  0.3266
  109loPI   GL2 1734  12.540   5.113   9.889  0.4376 -0.2351  0.1772
  109loPI   C1A 1735  12.789   5.595   9.559 -0.0000  0.1009 -0.2164
  109loPI   C2A 1736  12.766   5.713   9.110 -0.1271 -0.2224  0.2242
  109loPI   C3A 1737  12.802   6.105   8.835 -0.2220  0.0276  0.0977
  109loPI   C4A 1738  12.729   6.319   8.450  0.0143 -0.0156  0.1336
  109loPI   C5A 1739  12.405   6.124   8.218  0.3576  0.0085 -0.1145
  109loPI   C6A 1740  12.069   5.839   8.376  0.2095  0.3528  0.0680
  109loPI   C1B 1741  12.255   5.096   9.547 -0.3098 -0.3302  0.3402
  109loPI   C2B 1742  12.281   4.978   9.109 -0.1817  0.0466 -0.0763
  109loPI   C3B 1743  12.427   4.857   8.643  0.1145  0.1665  0.0496
  109loPI   C4B 1744  12.144   4.979   8.225 -0.0593 -0.0582 -0.0171
  110loPI    C1 1745   2.227  16.573  10.425 -0.3479  0.1703  0.2142
  110loPI    C2 1746   2.564  16.582  10.640 -0.1153 -0.1718 -0.1212
  110loPI    C3 1747   2.225  16.447  10.804 -0.0721  0.0842  0.1895
  110loPI   PO4 1748   2.300  16.450  10.226 -0.1503  0.1763  0.1339
  110loPI   GL1 1749   2.505  16.671   9.795  0.0341 -0.0311  0.0294
  110loPI   GL2 1750   2.546  17.084   9.735 -0.1888 -0.0773 -0.0095
  110loPI   C1A 1751   2.449  16.588   9.436  0.0389  0.0550 -0.0564
  110loPI   C2A 1752   2.522  16.655   9.071  0.1620 -0.2144  0.2624
  110loPI   C3A 1753   2.670  16.600   8.707  0.0646 -0.1496 -0.0593
  110loPI   C4A 1754   2.780  16.217   8.577 -0.4126  0.2425  0.1608
  110loPI   C5A 1755   2.532  16.198   8.323 -0.1139  0.0921 -0.1153
  110loPI   C6A 1756   2.319  16.292   7.978 -0.0440  0.1035 -0.1372
  110loPI   C1B 1757   2.783  17.001   9.293 -0.2609 -0.2062  0.1794
  110loPI   C2B 1758   2.941  17.057   8.916 -0.1290 -0.0583 -0.1277
  110loPI   C3B 1759   3.055  16.996   8.503  0.2279  0.0042 -0.2221
  110loPI   C4B 1760   2.818  16.784   8.232 -0.1729 -0.2435  0.0211
  111loPI    C1 1761   7.541  13.071  10.550  0.0384  0.0032 -0.0384
  111loPI    C2 1762   7.323  13.309  10.786  0.0219  0.1367 -0.1875
  111loPI    C3 1763   7.587  13.057  10.947 -0.3016 -0.0890  0.0012
  111loPI   PO4 1764   7.408  13.048  10.326 -0.1925 -0.2232  0.1245
  111loPI   GL1 1765   7.521  12.736   9.897  0.2380  0.2020 -0.0815
  111loPI   GL2 1766   7.824  12.667   9.879 -0.0817  0.1399 -0.4017
  111loPI   C1A 1767   7.221  12.406   9.688 -0.1691  0.2839 -0.3417
  111loPI   C2A 1768   7.202  12.330   9.309 -0.0052  0.1147 -0.2525
  111loPI   C3A 1769   7.227  12.299   8.972  0.2061  0.1443  0.5016
  111loPI   C4A 1770   7.150  12.422   8.474 -0.2936 -0.1921 -0.0195
  111loPI   C5A 1771   7.168  12.240   8.090  0.1214 -0.2056  0.2009
  111loPI   C6A 1772   7.038  12.283   7.705  0.1309 -0.2944 -0.0357
  111loPI   C1B 1773   7.621  12.521   9.447  0.0494 -0.1735 -0.1659
  111loPI   C2B 1774   7.683  12.494   8.950 -0.0770  0.0887 -0.1411
  111loPI   C3B 1775   7.719  12.435   8.454 -0.0118 -0.0622  0.1771
  111loPI   C4B 1776   7.597  12.493   8.014  0.0277 -0.1833 -0.2240
  112loPI    C1 1777  14.095  15.015  10.797 -0.2362  0.0254  0.1179
  112loPI    C2 1778  14.445  14.873  10.928 -0.2382 -0.1233 -0.0339
  112loPI    C3 1779  14.180  15.022  11.187 -0.0576  0.0029  0.0805
  112loPI   PO4 1780  14.215  15.137  10.491  0.1151 -0.2950  0.0979
  112loPI   GL1 1781  14.119  14.993  10.088  0.2872  0.0313 -0.0229
  112loPI   GL2 1782  13.840  15.122   9.932 -0.1735  0.0423 -0.0996
  112loPI   C1A 1783  14.069  14.594   9.930 -0.1482 -0.1222 -0.1291
  112loPI   C2A 1784  14.078  14.304   9.611  0.0907  0.1726  0.0870
  112loPI   C3A 1785  14.183  14.198   9.260  0.1867  0.1022 -0.2090
  112loPI   C4A 1786  14.254  14.078   8.869  0.0761 -0.0620 -0.2087
  112loPI   C5A 1787  14.212  14.196   8.372 -0.1310 -0.0604  0.2263
  112loPI   C6A 1788  14.469  14.583   7.999 -0.0912 -0.0223  0.3354
  112loPI   C1B 1789  13.542  15.237   9.603  0.0141  0.1858  0.2017
  112loPI   C2B 1790  13.643  15.060   9.145 -0.1390  0.1942  0.1362
  112loPI   C3B 1791  13.679  14.730   8.712 -0.1016  0.1218  0.1530
  112loPI   C4B 1792  13.855  14.343   8.649  0.0003  0.1450 -0.0176
  113loPI    C1 1793   5.473   9.953  10.402 -0.0561  0.0962 -0.0714
  113loPI    C2 1794   5.300  10.257  10.597 -0.1409  0.0113 -0.0138
  113loPI    C3 1795   5.447   9.946  10.801 -0.0499  0.0157 -0.0724
  113loPI   PO4 1796   5.506  10.027  10.207 -0.2222  0.2012 -0.3193
  113loPI   GL1 1797   5.573  10.123   9.847 -0.3213  0.1209  0.2834
  113loPI   GL2 1798   5.474   9.941   9.613 -0.0486  0.2302 -0.1307
  113loPI   C1A 1799   5.712  10.408   9.471 -0.1473  0.3389 -0.2501
  113loPI   C2A 1800   5.693  10.627   9.189  0.1711  0.3141 -0.1549
  113loPI   C3A 1801   5.435  10.780   8.717  0.0482  0.3983 -0.1931
  113loPI   C4A 1802   5.442  10.514   8.351 -0.0457  0.0282 -0.1250
  113loPI   C5A 1803   5.489  10.214   8.133 -0.2089 -0.2974 -0.0504
  113loPI   C6A 1804   5.508   9.986   7.766  0.2718  0.0802  0.0472
  113loPI   C1B 1805   5.567  10.054   9.121  0.1224  0.2056  0.0490
  113loPI   C2B 1806   5.704  10.273   8.778  0.0890  0.0534  0.0704
  113loPI   C3B 1807   5.940  10.211   8.415 -0.0702 -0.0438 -0.0510
  113loPI   C4B 1808   6.344  10.266   8.201  0.2941 -0.0173 -0.2641
  114loPI    C1 1809   1.235  15.889  10.761  0.0220  0.0713 -0.0244
  114loPI    C2 1810   1.025  16.189  10.921 -0.2290 -0.0328 -0.1526
  114loPI    C3 1811   1.019  15.827  11.092 -0.0005  0.0096 -0.0504
  114loPI   PO4 1812   1.228  15.953  10.531  0.2519  0.0920  0.0149
  114loPI   GL1 1813   1.197  15.877  10.120 -0.1087 -0.0990 -0.2083
  114loPI   GL2 1814   1.188  16.111   9.851  0.1814  0.0655  0.1352
  114loPI   C1A 1815   1.414  15.670   9.808 -0.1646 -0.0626  0.1997
  114loPI   C2A 1816   1.411  15.400   9.443  0.1526  0.0755 -0.2285
  114loPI   C3A 1817   1.679  15.194   9.062  0.5473 -0.2064  0.0507
  114loPI   C4A 1818   1.710  15.101   8.700  0.0539 -0.0266  0.1446
  114loPI   C5A 1819   1.554  15.108   8.372  0.1162  0.0550 -0.0673
  114loPI   C6A 1820   1.207  15.066   8.079 -0.1644 -0.2674 -0.1162
  114loPI   C1B 1821   0.919  15.847   9.618 -0.3775 -0.2373  0.1438
  114loPI   C2B 1822   0.808  15.768   9.131 -0.1403  0.2151  0.0963
  114loPI   C3B 1823   0.896  15.607   8.776 -0.0801  0.0887  0.2162
  114loPI   C4B 1824   0.695  15.355   8.362 -0.1640  0.0518 -0.0687
  115loPI    C1 1825   1.033   6.352  10.569  0.0186  0.0796  0.0022
  115loPI    C2 1826   1.328   6.568  10.731  0.1097 -0.1870  0.1994
  115loPI    C3 1827   1.269   6.191  10.849 -0.2341 -0.1764  0.0721
  115loPI   PO4 1828   0.818   6.530  10.520 -0.2139 -0.1794  0.5039
  115loPI   GL1 1829   0.705   6.514  10.090 -0.0477 -0.0726 -0.2228
  115loPI   GL2 1830   0.404   6.636  10.080  0.2242  0.1340 -0.0390
  115loPI   C1A 1831   0.759   6.655   9.729  0.4593  0.0981  0.1693
  115loPI   C2A 1832   0.625   6.632   9.403 -0.3336 -0.1832 -0.1996
  115loPI   C3A 1833   0.733   6.461   9.067  0.1494 -0.0504  0.2677
  115loPI   C4A 1834   0.633   6.558   8.561 -0.0278 -0.2108  0.2181
  115loPI   C5A 1835   0.509   6.539   8.192  0.1861 -0.0207 -0.0902
  115loPI   C6A 1836   0.693   6.586   7.854 -0.0206 -0.2680 -0.1418
  115loPI   C1B 1837   0.232   6.364   9.693 -0.0236 -0.1706  0.1115
  115loPI   C2B 1838   0.341   6.224   9.279 -0.3820 -0.2719 -0.1394
  115loPI   C3B 1839   0.285   6.308   8.790 -0.0140 -0.0696 -0.2209
  115loPI   C4B 1840   0.120   6.339   8.423 -0.0730 -0.1259  0.0667
  116loPI    C1 1841   3.643   4.681  10.338  0.1391 -0.1264  0.2695
  116loPI    C2 1842   3.415   4.401  10.167  0.1823  0.0082 -0.0143
  116loPI    C3 1843   3.247   4.733  10.313  0.1298 -0.1661  0.3318
  116loPI   PO4 1844   3.896   4.696  10.241  0.1124 -0.0633  0.1609
  116loPI   GL1 1845   3.926   4.943   9.896  0.1247  0.0653  0.3275
  116loPI   GL2 1846   3.903   4.586   9.786  0.1323  0.0826  0.0283
  116loPI   C1A 1847   3.851   4.937   9.427  0.0129 -0.2793  0.0693
  116loPI   C2A 1848   3.843   4.892   8.976 -0.1460 -0.3494 -0.2668
  116loPI   C3A 1849   4.113   4.932   8.582 -0.2703  0.2612 -0.0175
  116loPI   C4A 1850   4.128   4.854   8.177  0.0499  0.3352  0.0968
  116loPI   C5A 1851   3.973   4.629   7.834  0.0389  0.2933  0.0010
  116loPI   C6A 1852   4.170   4.537   7.481 -0.0858  0.2600  0.1778
  116loPI   C1B 1853   4.062   4.536   9.340 -0.1371 -0.2026 -0.4465
  116loPI   C2B 1854   4.158   4.366   8.869  0.2854  0.0071 -0.1766
  116loPI   C3B 1855   3.883   4.140   8.567 -0.0075 -0.2447 -0.1403
  116loPI   C4B 1856   3.644   3.860   8.328  0.0117  0.5547  0.2211
  117loPI    C1 1857  17.938   0.224  10.493 -0.0391 -0.2850 -0.0613
  117loPI    C2 1858  17.775   0.500  10.254  0.0667 -0.0761  0.1045
  117loPI    C3 1859  17.738   0.532  10.651  0.2079 -0.2202  0.1305
  117loPI   PO4 1860  17.870  -0.052  10.358  0.0582 -0.0595 -0.1946
  117loPI   GL1 1861  17.725  -0.187   9.914  0.2600  0.1152 -0.0891
  117loPI   GL2 1862  17.778   0.076   9.902 -0.0156 -0.0883  0.0729
  117loPI   C1A 1863  17.819  -0.444   9.555  0.1371  0.2549  0.1755
  117loPI   C2A 1864  18.144  -0.561   9.267 -0.2456  0.2706 -0.2097
  117loPI   C3A 1865  18.146  -0.709   8.873 -0.0318  0.1586 -0.1525
  117loPI   C4A 1866  18.155  -0.511   8.515  0.0375  0.2267 -0.0396
  117loPI   C5A 1867  18.046  -0.742   8.100 -0.1475 -0.0598 -0.2113
  117loPI   C6A 1868  18.278  -0.606   7.683  0.2445 -0.1679 -0.1309
  117loPI   C1B 1869  17.556   0.027   9.470  0.0659 -0.1254  0.1380
  117loPI   C2B 1870  17.656  -0.141   9.011  0.1170  0.2346 -0.2145
  117loPI   C3B 1871  17.545  -0.028   8.614 -0.0055 -0.0880  0.2614
  117loPI   C4B 1872  17.413  -0.016   8.124  0.0075 -0.2079 -0.0324
  118loPI    C1 1873   6.265  12.960  10.861  0.0798  0.1147 -0.1186
  118loPI    C2 1874   6.533  12.935  11.157 -0.0242  0.2341 -0.0132
  118loPI    C3 1875   6.269  13.235  11.151 -0.0349  0.2222 -0.2178
  118loPI   PO4 1876   6.372  12.846  10.573 -0.0240  0.2580  0.0029
  118loPI   GL1 1877   6.484  12.644  10.148  0.1810 -0.4504 -0.0860
  118loPI   GL2 1878   6.488  12.374  10.035  0.0135 -0.0401  0.1836
  118loPI   C1A 1879   6.745  12.625   9.739  0.0359 -0.2564 -0.2509
  118loPI   C2A 1880   6.811  12.599   9.336 -0.0912 -0.0591 -0.0640
  118loPI   C3A 1881   6.843  12.574   8.888  0.0595  0.1606 -0.4316
  118loPI   C4A 1882   6.834  12.824   8.484 -0.1152  0.1880 -0.0420
  118loPI   C5A 1883   6.953  12.855   8.095  0.0319  0.2724 -0.1316
  118loPI   C6A 1884   6.643  12.748   7.824 -0.0849  0.1091  0.0603
  118loPI   C1B 1885   6.383  12.387   9.528 -0.3009  0.0362 -0.2364
  118loPI   C2B 1886   6.378  12.486   9.067  0.0839 -0.2220 -0.1372
  118loPI   C3B 1887   6.019  12.726   8.803 -0.1885  0.0505 -0.1563
  118loPI   C4B 1888   5.858  12.814   8.388 -0.1638  0.0124  0.0672
  119loPI    C1 1889   5.682  13.984  10.473 -0.0424  0.4012  0.1944
  119loPI    C2 1890   5.644  13.723  10.774 -0.0441  0.0464 -0.1058
  119loPI    C3 1891   5.431  14.062  10.775 -0.4196 -0.1842  0.0475
  119loPI   PO4 1892   5.901  14.030  10.223 -0.3484  0.2269  0.1965
  119loPI   GL1 1893   5.838  13.896   9.777  0.0163 -0.2567 -0.0412
  119loPI   GL2 1894   5.729  13.771   9.591  0.2422 -0.1814 -0.0955
  119loPI   C1A 1895   5.629  14.281   9.458  0.2459 -0.0163 -0.1752
  119loPI   C2A 1896   5.522  14.614   9.126 -0.0775  0.2637  0.1610
  119loPI   C3A 1897   5.298  14.940   8.784  0.0771  0.0611  0.1867
  119loPI   C4A 1898   5.240  14.715   8.333 -0.1713  0.0987  0.1033
  119loPI   C5A 1899   5.184  14.887   7.864  0.1685 -0.0656 -0.4343
  119loPI   C6A 1900   4.770  15.043   7.574 -0.1776  0.0471  0.0011
  119loPI   C1B 1901   5.761  13.822   9.228 -0.1344 -0.0097  0.1072
  119loPI   C2B 1902   5.730  14.204   8.848  0.1517  0.2277 -0.2343
  119loPI   C3B 1903   5.662  14.493   8.582 -0.0138 -0.0514  0.1490
  119loPI   C4B 1904   5.691  14.432   8.116 -0.0657 -0.1726  0.1757
  120loPI    C1 1905  15.762   5.592  10.377 -0.0357 -0.0187 -0.1061
  120loPI    C2 1906  15.705   5.925  10.590  0.0017 -0.1701  0.1445
  120loPI    C3 1907  16.058   5.738  10.603  0.1174  0.0018 -0.3158
  120loPI   PO4 1908  15.684   5.653  10.135 -0.3735 -0.0265 -0.2843
  120loPI   GL1 1909  15.770   5.592   9.744 -0.0074  0.0024  0.2316
  120loPI   GL2 1910  15.634   5.439   9.525  0.0189  0.2070 -0.0963
  120loPI   C1A 1911  15.933   5.948   9.543  0.0778 -0.2919  0.2173
  120loPI   C2A 1912  15.995   5.903   9.042 -0.1436  0.2554  0.0045
  120loPI   C3A 1913  16.195   5.873   8.618  0.1483  0.4021  0.2389
  120loPI   C4A 1914  16.250   5.672   8.175  0.2381 -0.1770  0.0333
  120loPI   C5A 1915  16.513   5.849   7.893  0.1616 -0.0656 -0.0079
  120loPI   C6A 1916  16.902   5.731   7.670  0.0070 -0.1012 -0.0561
  120loPI   C1B 1917  15.797   5.424   9.039  0.0163  0.0696 -0.1732
  120loPI   C2B 1918  15.649   5.235   8.798 -0.1206 -0.3383  0.2656
  120loPI   C3B 1919  15.800   5.064   8.533 -0.3155  0.3222  0.0789
  120loPI   C4B 1920  16.204   4.920   8.453  0.1884  0.4904 -0.0377
  121loPI    C1 1921   4.968   4.155  10.451  0.0556 -0.0026  0.2290
  121loPI    C2 1922   5.118   4.492  10.298 -0.1122 -0.0286  0.0020
  121loPI    C3 1923   4.934   4.498  10.653 -0.0946  0.1141  0.0095
  121loPI   PO4 1924   4.797   4.066  10.225  0.1010 -0.0821  0.0496
  121loPI   GL1 1925   4.612   4.017   9.879 -0.1936  0.1231 -0.5022
  121loPI   GL2 1926   4.332   4.156   9.990  0.1470 -0.1584 -0.0349
  121loPI   C1A 1927   4.759   4.046   9.534  0.0092 -0.0648 -0.1473
  121loPI   C2A 1928   4.801   3.921   9.178  0.0279 -0.0812  0.1925
  121loPI   C3A 1929   4.877   4.039   8.832 -0.1071  0.2275  0.1314
  121loPI   C4A 1930   4.926   4.254   8.369 -0.1006  0.0642 -0.1348
  121loPI   C5A 1931   4.845   4.138   7.901 -0.2805 -0.0562  0.0414
  121loPI   C6A 1932   4.508   3.986   7.705  0.2835 -0.3920  0.1061
  121loPI   C1B 1933   4.434   4.346   9.602  0.0244 -0.1030 -0.0204
  121loPI   C2B 1934   4.567   4.340   9.185 -0.2499 -0.1099  0.1816
  121loPI   C3B 1935   4.612   4.429   8.841  0.3135  0.1183  0.1783
  121loPI   C4B 1936   4.439   4.445   8.452  0.0900  0.0936 -0.0783
  122loPI    C1 1937   2.823   0.299  10.881  0.0455  0.4445 -0.1944
  122loPI    C2 1938   3.150   0.341  11.108 -0.0255  0.0902 -0.0182
  122loPI    C3 1939   2.789   0.432  11.257 -0.0400  0.1748 -0.1039
  122loPI   PO4 1940   3.018   0.184  10.643  0.1758  0.0025  0.0155
  122loPI   GL1 1941   2.981   0.291  10.347  0.1304  0.1671 -0.0179
  122loPI   GL2 1942   3.353   0.213  10.247  0.2547  0.1253 -0.0483
  122loPI   C1A 1943   2.815   0.213   9.972  0.1142 -0.0113  0.1606
  122loPI   C2A 1944   2.642   0.145   9.505 -0.1136  0.0687  0.1242
  122loPI   C3A 1945   2.609   0.018   9.138 -0.1301  0.0434 -0.1298
  122loPI   C4A 1946   2.486   0.100   8.737  0.2316  0.0765 -0.4110
  122loPI   C5A 1947   2.637  -0.110   8.358 -0.3452 -0.2737  0.3794
  122loPI   C6A 1948   2.832  -0.252   7.949  0.1082  0.0568 -0.2401
  122loPI   C1B 1949   3.325  -0.094   9.935  0.0918 -0.0032 -0.0550
  122loPI   C2B 1950   3.146  -0.230   9.615 -0.1267  0.3710  0.1311
  122loPI   C3B 1951   3.044  -0.305   9.137  0.1490  0.2317 -0.1187
  122loPI   C4B 1952   2.798  -0.303   8.790 -0.3507  0.0186  0.0323
  123loPI    C1 1953  10.369   5.609  10.774 -0.1457 -0.1809 -0.0991
  123loPI    C2 1954  10.357   5.303  11.032 -0.0898 -0.1988 -0.1175
  123loPI    C3 1955  10.685   5.530  11.006 -0.1207 -0.1547 -0.1242
  123loPI   PO4 1956  10.355   5.558  10.546  0.0907 -0.2625  0.2661
  123loPI   GL1 1957  10.170   5.664  10.231  0.0281  0.2478 -0.1172
  123loPI   GL2 1958  10.371   5.902  10.148 -0.1419 -0.1185  0.0799
  123loPI   C1A 1959  10.081   5.615   9.786  0.2754  0.0456 -0.3374
  123loPI   C2A 1960  10.258   5.484   9.481  0.3509 -0.0549 -0.1571
  123loPI   C3A 1961  10.309   5.371   9.125 -0.1845 -0.1817 -0.1587
  123loPI   C4A 1962  10.464   5.360   8.692  0.0876 -0.0181  0.0881
  123loPI   C5A 1963  10.684   5.623   8.413  0.0694 -0.1112  0.0213
  123loPI   C6A 1964  10.724   5.965   8.170 -0.1120 -0.1256  0.0853
  123loPI   C1B 1965  10.452   6.242   9.846 -0.2132 -0.4398  0.1099
  123loPI   C2B 1966  10.480   6.439   9.353  0.1176  0.2624 -0.2215
  123loPI   C3B 1967  10.503   6.359   8.942  0.1034 -0.0491  0.0311
  123loPI   C4B 1968  10.480   6.303   8.456 -0.2382 -0.0457 -0.1891
  124loPI    C1 1969   8.790  17.574  10.568  0.1858 -0.1702 -0.1664
  124loPI    C2 1970   8.666  17.195  10.538 -0.2703 -0.0356 -0.0622
  124loPI    C3 1971   8.783  17.340  10.892 -0.0211 -0.0973 -0.1169
  124loPI   PO4 1972   8.662  17.678  10.258 -0.0783  0.4368 -0.1711
  124loPI   GL1 1973   8.533  17.487   9.876  0.0438 -0.0872 -0.1583
  124loPI   GL2 1974   8.507  17.235  10.084 -0.0628  0.2312 -0.3625
  124loPI   C1A 1975   8.498  17.448   9.429 -0.1476  0.1101 -0.3070
  124loPI   C2A 1976   8.520  17.283   8.987  0.1511  0.0045 -0.0507
  124loPI   C3A 1977   8.634  17.162   8.508 -0.0536 -0.2527  0.0324
  124loPI   C4A 1978   8.693  17.466   8.171 -0.1271  0.0472 -0.0181
  124loPI   C5A 1979   8.578  17.752   7.902 -0.4574 -0.0594  0.1481
  124loPI   C6A 1980   8.229  18.141   7.913  0.0319  0.1552 -0.1157
  124loPI   C1B 1981   8.558  17.020   9.705 -0.0853 -0.1058 -0.1393
  124loPI   C2B 1982   8.702  16.965   9.317  0.0761  0.0230 -0.1940
  124loPI   C3B 1983   8.868  16.925   8.940 -0.0620  0.3172 -0.1260
  124loPI   C4B 1984   8.890  16.717   8.611  0.1679  0.0733 -0.0275
  125loPI    C1 1985  11.478  17.408  10.428 -0.0901  0.1800  0.0601
  125loPI    C2 1986  11.260  17.495  10.752 -0.0755 -0.1728  0.1693
  125loPI    C3 1987  11.544  17.214  10.772  0.4153  0.2968  0.0364
  125loPI   PO4 1988  11.496  17.603  10.241 -0.0111  0.1710 -0.2499
  125loPI   GL1 1989  11.376  17.632   9.767  0.2460 -0.1900  0.3015
  125loPI   GL2 1990  10.977  17.787   9.705  0.1266  0.0823  0.0535
  125loPI   C1A 1991  11.472  17.707   9.381  0.0953  0.0888  0.2409
  125loPI   C2A 1992  11.322  17.666   8.971  0.0752 -0.1660  0.0600
  125loPI   C3A 1993  11.522  17.678   8.645 -0.1127 -0.0457  0.0920
  125loPI   C4A 1994  11.338  17.975   8.339  0.1230  0.1934  0.0072
  125loPI   C5A 1995  11.050  17.934   8.062 -0.1825 -0.0640  0.0493
  125loPI   C6A 1996  10.612  18.095   7.937 -0.0331  0.0477  0.0124
  125loPI   C1B 1997  11.057  17.998   9.405 -0.1217  0.0347 -0.4232
  125loPI   C2B 1998  10.998  18.102   9.014 -0.1272  0.1655  0.0835
  125loPI   C3B 1999  11.036  18.327   8.664  0.3659  0.0361 -0.0165
  125loPI   C4B 2000  11.121  18.401   8.187  0.2658  0.3369  0.0354
  126loPI    C1 2001   3.283  14.244  10.458  0.1580 -0.0241  0.0848
  126loPI    C2 2002   3.494  13.913  10.536 -0.0852 -0.1939  0.0318
  126loPI    C3 2003   3.389  14.159  10.834  0.3377 -0.0125  0.0378
  126loPI   PO4 2004   3.470  14.358  10.163  0.1747  0.0618  0.1140
  126loPI   GL1 2005   3.472  14.467   9.707 -0.0067  0.1768  0.1387
  126loPI   GL2 2006   3.583  14.190   9.684 -0.2949  0.3642  0.2301
  126loPI   C1A 2007   3.324  14.404   9.257 -0.2732  0.1136 -0.0843
  126loPI   C2A 2008   3.285  14.405   8.796 -0.3066 -0.0986  0.1428
  126loPI   C3A 2009   3.271  14.509   8.358  0.0833 -0.0841 -0.1440
  126loPI   C4A 2010   3.179  14.545   8.003 -0.1860 -0.0827 -0.0063
  126loPI   C5A 2011   3.258  14.794   7.573  0.0008 -0.0044  0.1326
  126loPI   C6A 2012   3.184  14.765   7.156  0.2457 -0.0513  0.0229
  126loPI   C1B 2013   3.629  14.022   9.399  0.1529 -0.0152 -0.3312
  126loPI   C2B 2014   3.637  14.081   8.954 -0.0225 -0.1381 -0.0184
  126loPI   C3B 2015   3.742  14.047   8.519 -0.1434 -0.1545 -0.3599
  126loPI   C4B 2016   3.979  14.070   8.163  0.0657 -0.0817 -0.0981
  127loPI    C1 2017   7.868   9.802  10.887  0.0105 -0.0747 -0.2726
  127loPI    C2 2018   8.159   9.974  10.672 -0.0079 -0.2394 -0.4316
  127loPI    C3 2019   8.251   9.748  10.989  0.0106  0.1837 -0.1262
  127loPI   PO4 2020   7.787   9.656  10.635  0.1281 -0.1051  0.0133
  127loPI   GL1 2021   7.937   9.501  10.321  0.0849  0.1409 -0.3291
  127loPI   GL2 2022   7.915   9.695  10.010 -0.3381  0.0740  0.3496
  127loPI   C1A 2023   7.916   9.171   9.972 -0.0456  0.2472  0.1379
  127loPI   C2A 2024   7.809   8.878   9.731 -0.1172 -0.0835  0.0553
  127loPI   C3A 2025   7.487   8.867   9.451 -0.0645 -0.0949  0.3601
  127loPI   C4A 2026   7.139   8.941   9.101  0.2026  0.0104 -0.1164
  127loPI   C5A 2027   7.114   9.182   8.676 -0.1498 -0.0222 -0.0994
  127loPI   C6A 2028   7.264   9.178   8.320  0.2988 -0.0784 -0.0500
  127loPI   C1B 2029   7.923   9.760   9.670 -0.0455 -0.0436 -0.2459
  127loPI   C2B 2030   8.011   9.850   9.269 -0.1383  0.0945  0.2661
  127loPI   C3B 2031   7.789   9.735   8.828 -0.0763 -0.0224  0.0111
  127loPI   C4B 2032   7.712   9.361   8.594  0.1081 -0.0042  0.1564
  128loPI    C1 2033   5.015   9.308  10.339 -0.0302  0.0024 -0.1609
  128loPI    C2 2034   5.392   9.180  10.301 -0.0436 -0.1227  0.1062
  128loPI    C3 2035   5.309   9.483  10.548 -0.0716  0.1350 -0.2124
  128loPI   PO4 2036   4.955   9.326  10.052 -0.1436  0.0614 -0.2318
  128loPI   GL1 2037   4.670   9.006   9.755 -0.0943  0.0081 -0.0927
  128loPI   GL2 2038   4.750   8.700   9.698  0.0833  0.0946  0.1282
  128loPI   C1A 2039   4.753   9.078   9.340  0.0130  0.3783 -0.0046
  128loPI   C2A 2040   4.626   8.825   9.058  0.4344 -0.1644  0.3118
  128loPI   C3A 2041   4.565   8.677   8.717  0.1734 -0.3817  0.0796
  128loPI   C4A 2042   4.318   8.721   8.298  0.3016  0.0690  0.0760
  128loPI   C5A 2043   4.084   8.955   7.953 -0.1091  0.0620  0.1464
  128loPI   C6A 2044   3.724   8.684   7.699  0.0083 -0.2380 -0.1851
  128loPI   C1B 2045   5.036   8.663   9.340 -0.0342 -0.1846  0.2692
  128loPI   C2B 2046   5.117   8.605   8.896  0.0704 -0.0003  0.1847
  128loPI   C3B 2047   5.299   8.571   8.580 -0.0528 -0.0577  0.1407
  128loPI   C4B 2048   5.466   8.896   8.323 -0.0489 -0.3874 -0.0052
  129loPI    C1 2049   3.119   1.480  10.563 -0.2932 -0.2830 -0.0118
  129loPI    C2 2050   3.350   1.260  10.322 -0.2101  0.0197 -0.2143
  129loPI    C3 2051   3.341   1.184  10.715  0.0289 -0.1653 -0.2422
  129loPI   PO4 2052   3.194   1.684  10.488 -0.3422 -0.1655 -0.1585
  129loPI   GL1 2053   3.389   1.760  10.141 -0.1548  0.2347 -0.0029
  129loPI   GL2 2054   3.476   2.094  10.148  0.1293  0.0487 -0.0088
  129loPI   C1A 2055   3.388   1.393   9.846 -0.0101 -0.1828  0.1077
  129loPI   C2A 2056   3.505   1.148   9.617  0.0645  0.0829 -0.2981
  129loPI   C3A 2057   3.655   1.025   9.251 -0.0199  0.3985  0.2055
  129loPI   C4A 2058   3.494   0.983   8.782  0.5834 -0.0629  0.1055
  129loPI   C5A 2059   3.350   0.878   8.388 -0.0922 -0.0499 -0.1359
  129loPI   C6A 2060   3.052   0.858   8.101  0.0686  0.0765 -0.1014
  129loPI   C1B 2061   3.643   2.223   9.733  0.1021  0.0226 -0.3572
  129loPI   C2B 2062   3.710   2.161   9.283  0.1100  0.1915 -0.1947
  129loPI   C3B 2063   3.796   2.243   8.818  0.1232 -0.1608  0.0607
  129loPI   C4B 2064   4.097   2.161   8.478 -0.2830  0.1195  0.0647
  130loPI    C1 2065  13.559  10.508  10.906  0.0687  0.1550 -0.0021
  130loPI    C2 2066  13.751  10.652  11.226  0.2186  0.0747 -0.0551
  130loPI    C3 2067  13.375  10.765  11.151  0.1597  0.0426  0.1860
  130loPI   PO4 2068  13.729  10.511  10.726  0.0301  0.0903  0.1411
  130loPI   GL1 2069  13.846  10.260  10.401 -0.1135 -0.0669  0.1020
  130loPI   GL2 2070  14.150  10.285  10.458 -0.1153  0.0607  0.1984
  130loPI   C1A 2071  13.670  10.232   9.974 -0.0994 -0.1313  0.0172
  130loPI   C2A 2072  13.738  10.271   9.591  0.1652 -0.1160  0.0029
  130loPI   C3A 2073  13.677  10.297   9.160 -0.2913  0.0515  0.0932
  130loPI   C4A 2074  13.472  10.362   8.738 -0.1755 -0.0847  0.1278
  130loPI   C5A 2075  13.390  10.184   8.391  0.1862 -0.0217  0.0866
  130loPI   C6A 2076  13.246   9.977   8.018  0.1500 -0.2451 -0.0100
  130loPI   C1B 2077  14.379  10.065  10.055  0.2174  0.2543 -0.1595
  130loPI   C2B 2078  14.487   9.914   9.692  0.2640 -0.0217  0.4163
  130loPI   C3B 2079  14.555   9.727   9.241 -0.0625 -0.0352 -0.0529
  130loPI   C4B 2080  14.688   9.602   8.900 -0.1023  0.0827 -0.3428
  131loPI    C1 2081  18.008   5.653  11.156  0.1264 -0.0978 -0.2518
  131loPI    C2 2082  18.294   5.481  11.376 -0.1768 -0.2293  0.0487
  131loPI    C3 2083  18.002   5.688  11.554 -0.1265  0.1292 -0.2728
  131loPI   PO4 2084  18.172   5.655  10.907 -0.0801  0.0045 -0.1921
  131loPI   GL1 2085  18.131   5.365  10.562 -0.4264 -0.0684 -0.2624
  131loPI   GL2 2086  17.877   5.098  10.350  0.0645  0.1630 -0.3753
  131loPI   C1A 2087  18.028   5.690  10.230 -0.0094 -0.2368 -0.0588
  131loPI   C2A 2088  17.911   5.721   9.758  0.0098 -0.0063 -0.3878
  131loPI   C3A 2089  17.839   5.727   9.254  0.1850 -0.1222  0.1550
  131loPI   C4A 2090  17.906   5.473   8.873 -0.1159 -0.1093  0.1476
  131loPI   C5A 2091  18.139   5.530   8.490 -0.2306 -0.1686  0.1126
  131loPI   C6A 2092  18.397   5.292   8.176 -0.0966 -0.1568 -0.2680
  131loPI   C1B 2093  17.995   5.283   9.929 -0.5380 -0.0528 -0.1768
  131loPI   C2B 2094  17.995   5.292   9.444  0.2323 -0.1069  0.3980
  131loPI   C3B 2095  18.303   5.473   9.255  0.0403  0.2719  0.1450
  131loPI   C4B 2096  18.447   5.198   8.811 -0.1077 -0.0870  0.1740
  132loPI    C1 2097   8.435   3.394  10.109 -0.0868  0.2409  0.0975
  132loPI    C2 2098   8.122   3.269   9.894 -0.0397  0.0300  0.1493
  132loPI    C3 2099   8.208   3.092  10.242 -0.0059  0.2477  0.2532
  132loPI   PO4 2100   8.667   3.401   9.959 -0.0986  0.4341  0.1251
  132loPI   GL1 2101   8.905   3.137   9.706 -0.1498 -0.1267  0.0640
  132loPI   GL2 2102   8.635   3.221   9.520 -0.2733 -0.1765 -0.1821
  132loPI   C1A 2103   8.959   2.989   9.270 -0.0068 -0.0647 -0.0794
  132loPI   C2A 2104   8.918   2.831   8.883 -0.1662 -0.0809  0.1050
  132loPI   C3A 2105   8.935   2.812   8.388 -0.0158  0.0058 -0.4637
  132loPI   C4A 2106   8.897   2.780   7.989 -0.0609 -0.1215  0.0662
  132loPI   C5A 2107   9.016   2.895   7.575 -0.2229 -0.1750  0.1768
  132loPI   C6A 2108   9.221   3.111   7.325  0.3222  0.0475 -0.1725
  132loPI   C1B 2109   8.552   3.304   9.080 -0.2094  0.2439  0.2623
  132loPI   C2B 2110   8.547   3.257   8.710  0.3142  0.1028  0.2139
  132loPI   C3B 2111   8.349   3.455   8.436  0.2535 -0.3504  0.3673
  132loPI   C4B 2112   8.324   3.787   8.090 -0.0794  0.1716 -0.0070
  133loPI    C1 2113  14.974  11.044  10.702 -0.0652  0.0535 -0.3562
  133loPI    C2 2114  14.602  11.173  10.775 -0.0384 -0.1440  0.1723
  133loPI    C3 2115  14.909  11.430  10.785 -0.1287 -0.0268 -0.0177
  133loPI   PO4 2116  15.024  10.919  10.409  0.3966 -0.1247  0.0306
  133loPI   GL1 2117  14.811  10.799  10.047 -0.3676 -0.0387 -0.2100
  133loPI   GL2 2118  15.033  11.073   9.935 -0.0786 -0.1759  0.0083
  133loPI   C1A 2119  14.739  10.845   9.564  0.0673 -0.0326 -0.0326
  133loPI   C2A 2120  14.644  10.653   9.059 -0.0327  0.1836  0.2228
  133loPI   C3A 2121  14.411  10.528   8.702  0.2332 -0.3195 -0.0560
  133loPI   C4A 2122  14.230  10.497   8.322 -0.0963  0.1632  0.0766
  133loPI   C5A 2123  14.149  10.282   8.038 -0.0420  0.2750  0.1206
  133loPI   C6A 2124  13.975   9.968   7.727 -0.2862 -0.0366 -0.0938
  133loPI   C1B 2125  15.108  11.193   9.559  0.1028  0.1281 -0.0835
  133loPI   C2B 2126  15.073  11.044   9.094 -0.1789 -0.0326 -0.0072
  133loPI   C3B 2127  14.757  10.907   8.620 -0.0488 -0.0866 -0.3327
  133loPI   C4B 2128  14.621  10.878   8.202 -0.2031  0.2000 -0.0349
  134loPI    C1 2129  16.082   1.811  10.163 -0.1899 -0.0197 -0.0852
  134loPI    C2 2130  16.118   2.185  10.026  0.0663 -0.0631 -0.1409
  134loPI    C3 2131  16.279   2.085  10.378 -0.0539 -0.1064 -0.0979
  134loPI   PO4 2132  16.215   1.681   9.969  0.1941  0.2960  0.2501
  134loPI   GL1 2133  16.330   1.373   9.640 -0.2369  0.1780  0.1776
  134loPI   GL2 2134  16.186   1.150   9.486  0.2794 -0.1553  0.0972
  134loPI   C1A 2135  16.349   1.529   9.185 -0.1467 -0.0292 -0.0267
  134loPI   C2A 2136  16.511   1.691   8.929  0.2686  0.0348  0.1174
  134loPI   C3A 2137  16.714   1.706   8.581  0.1287 -0.1431  0.2667
  134loPI   C4A 2138  16.590   1.863   8.127 -0.0937  0.2265  0.2738
  134loPI   C5A 2139  16.484   2.242   8.064 -0.1720  0.0640 -0.2052
  134loPI   C6A 2140  16.136   2.457   8.201  0.1299 -0.0528 -0.1286
  134loPI   C1B 2141  16.234   1.106   9.011  0.1794  0.0507  0.0779
  134loPI   C2B 2142  16.294   1.294   8.597 -0.1864  0.0031  0.0772
  134loPI   C3B 2143  16.277   1.661   8.446  0.1458 -0.1901  0.2280
  134loPI   C4B 2144  16.012   1.987   8.359 -0.1741  0.2009 -0.0537
  135loPI    C1 2145  12.620   7.318  10.850 -0.0186  0.0071 -0.0688
  135loPI    C2 2146  12.788   6.991  11.009  0.0047 -0.0136 -0.1360
  135loPI    C3 2147  12.628   7.270  11.247  0.2444  0.0659 -0.0651
  135loPI   PO4 2148  12.626   7.332  10.606  0.0322 -0.0067  0.2245
  135loPI   GL1 2149  12.799   7.370  10.214 -0.0584  0.1788  0.0099
  135loPI   GL2 2150  12.525   7.304  10.023 -0.2256  0.0444 -0.2057
  135loPI   C1A 2151  12.898   6.968  10.081  0.1343  0.1342  0.1620
  135loPI   C2A 2152  12.809   7.008   9.698 -0.2491  0.0251  0.0991
  135loPI   C3A 2153  12.711   7.374   9.439  0.0924  0.1463 -0.2673
  135loPI   C4A 2154  12.739   7.330   9.050  0.1015  0.0476 -0.3023
  135loPI   C5A 2155  12.859   7.411   8.606 -0.0178 -0.1774  0.1020
  135loPI   C6A 2156  12.884   7.267   8.251 -0.1337 -0.0820 -0.1383
  135loPI   C1B 2157  12.231   7.370   9.737  0.0093  0.1190  0.0291
  135loPI   C2B 2158  12.156   7.326   9.228  0.2895  0.0997 -0.4397
  135loPI   C3B 2159  12.345   7.295   8.821 -0.0339 -0.1615  0.1219
  135loPI   C4B 2160  12.402   7.197   8.327 -0.1144 -0.1550 -0.1444
  136loPI    C1 2161  15.136  16.051  10.483  0.1519 -0.1032 -0.1363
  136loPI    C2 2162  15.134  15.833  10.819  0.0876 -0.1102 -0.1411
  136loPI    C3 2163  15.244  16.218  10.830  0.2174 -0.1471 -0.1352
  136loPI   PO4 2164  15.031  16.018  10.353  0.1770  0.0882  0.2351
  136loPI   GL1 2165  14.746  16.115  10.062 -0.2480 -0.0249 -0.2452
  136loPI   GL2 2166  14.500  15.995  10.001  0.0368  0.2717 -0.0433
  136loPI   C1A 2167  14.721  16.024   9.570 -0.0538  0.3394 -0.2912
  136loPI   C2A 2168  14.804  15.899   9.244  0.0765 -0.1718 -0.0869
  136loPI   C3A 2169  14.650  15.641   8.880  0.4259  0.1652  0.1778
  136loPI   C4A 2170  14.293  15.455   8.592  0.1819 -0.1079  0.0994
  136loPI   C5A 2171  13.963  15.285   8.336  0.2567  0.3973 -0.0738
  136loPI   C6A 2172  14.065  14.893   8.096  0.2499  0.0987  0.2412
  136loPI   C1B 2173  14.282  15.803   9.679 -0.4152 -0.0490 -0.0953
  136loPI   C2B 2174  14.284  15.716   9.339 -0.0483 -0.0861 -0.1001
  136loPI   C3B 2175  14.074  15.512   9.004 -0.0240  0.0368 -0.2649
  136loPI   C4B 2176  14.021  15.101   8.788 -0.1894  0.0855  0.0659
  137loPI    C1 2177  10.402   4.786  10.693 -0.0244  0.1112 -0.0034
  137loPI    C2 2178  10.166   5.104  10.636  0.0529  0.2034  0.1838
  137loPI    C3 2179  10.099   4.857  10.944 -0.0683 -0.0199 -0.0184
  137loPI   PO4 2180  10.392   4.724  10.389 -0.1048  0.2722 -0.2002
  137loPI   GL1 2181  10.499   4.618  10.039  0.3362 -0.0130  0.1380
  137loPI   GL2 2182  10.192   4.738   9.900 -0.1143 -0.0295 -0.0007
  137loPI   C1A 2183  10.562   4.580   9.527 -0.1445 -0.0935  0.0850
  137loPI   C2A 2184  10.643   4.591   9.149  0.0639 -0.1725 -0.0226
  137loPI   C3A 2185  10.674   4.364   8.800  0.1642 -0.2422  0.0565
  137loPI   C4A 2186  10.841   4.469   8.353  0.0208 -0.1349 -0.1366
  137loPI   C5A 2187  10.818   4.856   8.136 -0.0108  0.1740 -0.1940
  137loPI   C6A 2188  10.742   5.180   8.061  0.2570 -0.1624  0.0516
  137loPI   C1B 2189  10.058   4.489   9.527  0.3372  0.1447  0.0989
  137loPI   C2B 2190   9.768   4.661   9.153  0.1655 -0.2552 -0.1565
  137loPI   C3B 2191   9.789   4.704   8.655 -0.1074 -0.1634 -0.1177
  137loPI   C4B 2192   9.734   4.365   8.332  0.0473 -0.1873 -0.1954
  138loPI    C1 2193   4.568   0.681  10.338 -0.2484  0.1353 -0.2249
  138loPI    C2 2194   4.776   0.342  10.376 -0.0841  0.2546 -0.0450
  138loPI    C3 2195   4.469   0.417  10.621 -0.0720  0.2699 -0.0344
  138loPI   PO4 2196   4.646   0.736  10.108  0.1771 -0.1148 -0.4330
  138loPI   GL1 2197   4.819   0.622   9.824  0.2084  0.0911 -0.1836
  138loPI   GL2 2198   4.647   0.274   9.849 -0.1683 -0.3444  0.1894
  138loPI   C1A 2199   4.777   0.773   9.400  0.1279 -0.0481 -0.0627
  138loPI   C2A 2200   4.725   0.827   8.966 -0.0696  0.0471  0.1570
  138loPI   C3A 2201   4.651   0.981   8.484 -0.1259  0.0322 -0.0410
  138loPI   C4A 2202   4.824   0.930   8.055  0.0698 -0.3809  0.0268
  138loPI   C5A 2203   5.210   1.164   7.797  0.0259  0.2761  0.1349
  138loPI   C6A 2204   5.675   1.058   7.752  0.0486  0.0614  0.0398
  138loPI   C1B 2205   4.625   0.234   9.322 -0.2346  0.1565 -0.1016
  138loPI   C2B 2206   4.884   0.310   8.962 -0.1900  0.1141 -0.0481
  138loPI   C3B 2207   4.925   0.505   8.562 -0.0141 -0.0856  0.2646
  138loPI   C4B 2208   5.140   0.379   8.234 -0.1339 -0.1435 -0.1024
  139loPI    C1 2209  10.445   1.131  10.440 -0.0168  0.0349  0.1554
  139loPI    C2 2210  10.658   1.467  10.402  0.0413 -0.0236 -0.0509
  139loPI    C3 2211  10.318   1.469  10.613 -0.0039  0.1856 -0.1230
  139loPI   PO4 2212  10.402   1.064  10.246 -0.3123 -0.0033 -0.2080
  139loPI   GL1 2213  10.284   0.908   9.878  0.1793 -0.0784 -0.0867
  139loPI   GL2 2214  10.242   0.663   9.839  0.0562 -0.1066 -0.2026
  139loPI   C1A 2215  10.334   1.081   9.561 -0.2151 -0.0454  0.0370
  139loPI   C2A 2216  10.327   1.075   9.136  0.1018 -0.1526 -0.0113
  139loPI   C3A 2217  10.246   0.906   8.698  0.1140 -0.0735  0.0442
  139loPI   C4A 2218  10.145   0.803   8.272 -0.0527 -0.1900 -0.2849
  139loPI   C5A 2219   9.858   0.705   8.096  0.1450  0.0206 -0.0628
  139loPI   C6A 2220   9.754   0.798   7.640 -0.0764 -0.0816 -0.2325
  139loPI   C1B 2221  10.392   0.632   9.395 -0.1273  0.3241 -0.2621
  139loPI   C2B 2222  10.709   0.737   9.178 -0.0839  0.0738  0.1758
  139loPI   C3B 2223  10.817   0.907   8.733  0.0496 -0.1708 -0.0038
  139loPI   C4B 2224  11.129   1.214   8.472 -0.1450  0.1269  0.1147
  140loPI    C1 2225   1.066  12.671  10.733  0.0749  0.1012  0.0110
  140loPI    C2 2226   1.316  12.983  10.738  0.1861  0.0156 -0.1277
  140loPI    C3 2227   1.338  12.705  11.024 -0.0745  0.2580  0.1338
  140loPI   PO4 2228   1.063  12.633  10.487 -0.2625  0.3344 -0.0820
  140loPI   GL1 2229   0.824  12.562  10.265  0.2947 -0.2169  0.1214
  140loPI   GL2 2230   0.775  12.903  10.109  0.0344 -0.0098  0.3111
  140loPI   C1A 2231   0.975  12.440   9.865  0.2045  0.1022  0.2410
  140loPI   C2A 2232   0.986  12.443   9.416 -0.1442  0.1783  0.0464
  140loPI   C3A 2233   0.958  12.696   9.031  0.1172  0.3743  0.0258
  140loPI   C4A 2234   0.761  12.707   8.621 -0.3868 -0.1790  0.1319
  140loPI   C5A 2235   0.620  12.833   8.226  0.1047  0.1084  0.0203
  140loPI   C6A 2236   0.557  13.262   8.077 -0.3394  0.0703  0.0165
  140loPI   C1B 2237   0.985  12.963   9.736  0.0614  0.0713  0.0951
  140loPI   C2B 2238   0.916  13.091   9.419  0.0153  0.3027 -0.1812
  140loPI   C3B 2239   0.887  13.208   9.048  0.0464 -0.0351  0.3285
  140loPI   C4B 2240   0.784  13.205   8.575 -0.0738  0.0022  0.0982
  141loPI    C1 2241  18.088  12.088  10.798 -0.1769  0.1040 -0.0677
  141loPI    C2 2242  18.057  12.435  10.995  0.0344 -0.0873  0.3156
  141loPI    C3 2243  17.818  12.129  11.091 -0.0678 -0.0889  0.0624
  141loPI   PO4 2244  18.236  12.235  10.538 -0.0535 -0.0868 -0.0383
  141loPI   GL1 2245  18.393  12.516  10.239  0.0303 -0.0263  0.3921
  141loPI   GL2 2246  18.380  12.271   9.969  0.2966  0.0016  0.0812
  141loPI   C1A 2247  18.737  12.691   9.989  0.1554 -0.0320  0.0960
  141loPI   C2A 2248  18.927  12.600   9.569  0.0121 -0.1085 -0.2132
  141loPI   C3A 2249  18.821  12.368   9.207  0.1470 -0.5697  0.2289
  141loPI   C4A 2250  18.728  12.435   8.795  0.0381 -0.0425  0.0025
  141loPI   C5A 2251  18.446  12.512   8.408 -0.0456  0.1746 -0.0684
  141loPI   C6A 2252  17.981  12.376   8.524  0.2655  0.1579  0.2364
  141loPI   C1B 2253  18.415  12.134   9.514  0.1201  0.0045  0.2852
  141loPI   C2B 2254  18.346  12.088   9.101 -0.1757 -0.0525 -0.2280
  141loPI   C3B 2255  18.372  12.055   8.654  0.1302 -0.0360 -0.0547
  141loPI   C4B 2256  18.326  12.041   8.365 -0.0348  0.3708 -0.0257
  142loPI    C1 2257   8.996  10.521  10.894  0.0274  0.0029 -0.1374
  142loPI    C2 2258   8.619  10.470  11.018  0.1205 -0.1475  0.0902
  142loPI    C3 2259   8.835  10.777  11.155  0.0209  0.0523 -0.1895
  142loPI   PO4 2260   8.955  10.444  10.650 -0.2868  0.1926 -0.0664
  142loPI   GL1 2261   8.984  10.267  10.330  0.0272 -0.1316  0.4943
  142loPI   GL2 2262   8.669  10.314  10.160  0.1926 -0.0252  0.0091
  142loPI   C1A 2263   9.293  10.135  10.051  0.1454 -0.0029 -0.0678
  142loPI   C2A 2264   9.232  10.017   9.588  0.5685  0.3776  0.3284
  142loPI   C3A 2265   9.061  10.002   9.130 -0.2191 -0.1906 -0.0798
  142loPI   C4A 2266   9.064  10.182   8.725  0.0374 -0.0741 -0.2163
  142loPI   C5A 2267   9.042   9.995   8.414 -0.1577  0.1981  0.2751
  142loPI   C6A 2268   8.750   9.766   8.240  0.0044 -0.3411  0.1571
  142loPI   C1B 2269   8.871  10.294   9.707 -0.0728  0.0135 -0.1501
  142loPI   C2B 2270   8.825  10.440   9.278 -0.3741  0.0416  0.0946
  142loPI   C3B 2271   8.504  10.395   8.983 -0.0190  0.2630  0.0092
  142loPI   C4B 2272   8.398  10.512   8.496 -0.2299  0.0837 -0.0765
  143loPI    C1 2273  14.429   3.254  10.303 -0.2599 -0.1516 -0.1446
  143loPI    C2 2274  14.193   3.058  10.560 -0.0714 -0.1623  0.0219
  143loPI    C3 2275  14.585   2.977  10.546 -0.0427 -0.0052 -0.1149
  143loPI   PO4 2276  14.277   3.241  10.053  0.0273  0.3201  0.0270
  143loPI   GL1 2277  14.166   3.378   9.633 -0.2323  0.1535 -0.3889
  143loPI   GL2 2278  13.926   3.116   9.720  0.1041 -0.2225 -0.0207
  143loPI   C1A 2279  14.208   3.505   9.245  0.1778  0.3009  0.1418
  143loPI   C2A 2280  14.205   3.496   8.815 -0.1449 -0.2601 -0.1970
  143loPI   C3A 2281  14.237   3.245   8.502 -0.0550  0.0661 -0.0519
  143loPI   C4A 2282  14.168   2.815   8.352  0.2858 -0.1111  0.0707
  143loPI   C5A 2283  13.838   2.503   8.247  0.0406 -0.0199 -0.0724
  143loPI   C6A 2284  13.524   2.392   8.055 -0.0364  0.2761  0.0441
  143loPI   C1B 2285  14.020   3.045   9.288 -0.0389  0.0277  0.3392
  143loPI   C2B 2286  13.817   3.145   8.861  0.0035  0.0288 -0.2512
  143loPI   C3B 2287  13.738   3.185   8.457 -0.1855  0.0763  0.3485
  143loPI   C4B 2288  13.908   3.543   8.293  0.0118  0.1074  0.2789
  144loPI    C1 2289  14.875   3.535  10.668  0.1400  0.1372  0.2656
  144loPI    C2 2290  14.519   3.402  10.795  0.2449 -0.1839  0.2329
  144loPI    C3 2291  14.738   3.642  11.029 -0.1012  0.2246  0.1502
  144loPI   PO4 2292  14.950   3.438  10.411  0.0406  0.0157  0.2233
  144loPI   GL1 2293  15.020   3.538   9.979 -0.1453  0.1416  0.0787
  144loPI   GL2 2294  14.644   3.556   9.841  0.2995  0.0240 -0.1329
  144loPI   C1A 2295  15.120   3.571   9.562 -0.0424 -0.0124  0.1461
  144loPI   C2A 2296  15.379   3.623   9.203 -0.0985  0.1240  0.1289
  144loPI   C3A 2297  15.339   3.500   8.821 -0.1798  0.0400 -0.1811
  144loPI   C4A 2298  15.453   3.578   8.401  0.3996 -0.2581  0.1380
  144loPI   C5A 2299  15.142   3.764   8.073  0.1049 -0.0051 -0.2267
  144loPI   C6A 2300  15.046   3.920   7.670  0.0281 -0.3005 -0.1342
  144loPI   C1B 2301  14.613   3.734   9.437 -0.1880 -0.0426 -0.1186
  144loPI   C2B 2302  14.509   3.871   8.994 -0.1627 -0.0372  0.1774
  144loPI   C3B 2303  14.477   3.885   8.579  0.1202 -0.3115  0.0910
  144loPI   C4B 2304  14.563   3.542   8.222  0.1429  0.1150  0.1821
  145loPI    C1 2305   0.047   0.188  10.750  0.4167  0.2856  0.2590
  145loPI    C2 2306  -0.297   0.249  10.945  0.2886 -0.0829  0.1566
  145loPI    C3 2307  -0.082   0.561  10.818  0.0585  0.1528  0.3337
  145loPI   PO4 2308  -0.004  -0.039  10.537  0.4655 -0.0283 -0.2332
  145loPI   GL1 2309  -0.131  -0.077  10.108  0.0003 -0.0185  0.0601
  145loPI   GL2 2310   0.183  -0.017  10.029 -0.1834  0.1330  0.0454
  145loPI   C1A 2311  -0.154  -0.162   9.655 -0.2015 -0.2565 -0.0555
  145loPI   C2A 2312  -0.370  -0.017   9.266 -0.3348 -0.1410 -0.0137
  145loPI   C3A 2313  -0.266  -0.119   8.857  0.2455  0.0291 -0.0037
  145loPI   C4A 2314   0.024  -0.099   8.573 -0.2645  0.0215 -0.3002
  145loPI   C5A 2315   0.344   0.162   8.344  0.2240 -0.1061  0.1726
  145loPI   C6A 2316   0.766   0.238   8.290  0.0296  0.1932  0.0188
  145loPI   C1B 2317   0.303   0.161   9.708  0.0521 -0.3473  0.0424
  145loPI   C2B 2318   0.290   0.374   9.385  0.0384  0.1609  0.0197
  145loPI   C3B 2319   0.043   0.279   9.034 -0.1804  0.1218 -0.0454
  145loPI   C4B 2320  -0.188   0.496   8.724 -0.0316  0.4186  0.2181
  146loPI    C1 2321   3.706  16.323  10.665  0.0127 -0.1839  0.0309
  146loPI    C2 2322   3.456  16.489  10.929  0.1821  0.1398 -0.0075
  146loPI    C3 2323   3.809  16.346  11.051  0.0741 -0.1162  0.0107
  146loPI   PO4 2324   3.644  16.104  10.570 -0.4390 -0.0590  0.1584
  146loPI   GL1 2325   3.464  16.055  10.108  0.0242 -0.0320  0.0176
  146loPI   GL2 2326   3.750  16.007   9.969 -0.0354 -0.0703 -0.0282
  146loPI   C1A 2327   3.190  16.217   9.742 -0.2846 -0.0414  0.2947
  146loPI   C2A 2328   3.242  16.183   9.279  0.1130 -0.0472 -0.3101
  146loPI   C3A 2329   3.303  16.058   8.881 -0.0332  0.8241 -0.0568
  146loPI   C4A 2330   3.275  15.909   8.553 -0.0612 -0.1923 -0.2501
  146loPI   C5A 2331   3.308  16.047   8.129 -0.0805  0.0873 -0.0480
  146loPI   C6A 2332   3.297  15.885   7.754 -0.3870  0.1214  0.0648
  146loPI   C1B 2333   3.649  15.867   9.600  0.1563 -0.2552 -0.0469
  146loPI   C2B 2334   3.721  15.982   9.275  0.0223 -0.0326  0.0009
  146loPI   C3B 2335   3.767  15.877   8.894 -0.0077  0.0561 -0.1421
  146loPI   C4B 2336   3.817  15.911   8.455 -0.2349  0.0412 -0.1939
  147loPI    C1 2337   1.566  16.386  10.770  0.1429 -0.0466  0.0924
  147loPI    C2 2338   1.744  16.546  11.090 -0.0044  0.1285  0.0887
  147loPI    C3 2339   1.348  16.579  11.044 -0.0160 -0.1028  0.0076
  147loPI   PO4 2340   1.777  16.284  10.606 -0.2620 -0.1576  0.0291
  147loPI   GL1 2341   1.852  16.317   9.997  0.2954  0.0722 -0.1016
  147loPI   GL2 2342   2.108  16.192   9.758 -0.1454  0.0281  0.3005
  147loPI   C1A 2343   1.594  16.192   9.623  0.3258 -0.2087  0.0489
  147loPI   C2A 2344   1.322  15.975   9.318  0.2038 -0.1908  0.1936
  147loPI   C3A 2345   1.332  15.597   9.035  0.0590 -0.5123  0.1097
  147loPI   C4A 2346   1.270  15.499   8.538  0.3656  0.0322 -0.1898
  147loPI   C5A 2347   1.123  15.559   8.160  0.3115  0.1830  0.1220
  147loPI   C6A 2348   0.756  15.814   7.940  0.0250  0.2761 -0.0219
  147loPI   C1B 2349   2.128  16.174   9.331  0.2689 -0.0894  0.1148
  147loPI   C2B 2350   1.738  16.152   9.063  0.1438 -0.1135  0.0102
  147loPI   C3B 2351   1.364  16.133   8.780  0.0279  0.0993 -0.1069
  147loPI   C4B 2352   1.058  15.981   8.402  0.2216 -0.0240 -0.0630
  148loPI    C1 2353   9.844   5.660  10.598 -0.0694 -0.1012 -0.1782
  148loPI    C2 2354   9.592   5.699  10.906  0.0384 -0.0666 -0.0937
  148loPI    C3 2355   9.895   5.439  10.927 -0.0210 -0.1467 -0.2160
  148loPI   PO4 2356   9.861   5.933  10.526 -0.1949 -0.1593  0.1641
  148loPI   GL1 2357   9.896   6.041  10.009 -0.1245 -0.1347  0.1194
  148loPI   GL2 2358   9.698   5.787  10.014  0.0081  0.2108  0.0898
  148loPI   C1A 2359   9.933   6.145   9.544 -0.2831  0.4902 -0.1654
  148loPI   C2A 2360  10.014   6.285   9.178  0.0930  0.4866  0.2126
  148loPI   C3A 2361  10.003   6.534   8.796  0.0975  0.2981 -0.0108
  148loPI   C4A 2362   9.968   6.742   8.382 -0.1860 -0.0893 -0.2418
  148loPI   C5A 2363   9.865   7.127   8.021  0.1492 -0.0945  0.0487
  148loPI   C6A 2364   9.871   7.536   7.835 -0.0162 -0.0848  0.0181
  148loPI   C1B 2365   9.439   5.982   9.686  0.0032  0.2961 -0.1213
  148loPI   C2B 2366   9.531   6.123   9.267  0.2403 -0.1697  0.0427
  148loPI   C3B 2367   9.469   6.386   8.935 -0.3555 -0.0525  0.1278
  148loPI   C4B 2368   9.554   6.495   8.488 -0.1384  0.0898 -0.2146
  149loPI    C1 2369  13.863  13.728  11.157  0.3279 -0.0026 -0.1101
  149loPI    C2 2370  14.038  14.086  11.188  0.1233  0.0834  0.0833
  149loPI    C3 2371  14.044  13.833  11.497  0.0715  0.0106  0.0254
  149loPI   PO4 2372  14.023  13.586  10.859  0.2385  0.0316  0.0883
  149loPI   GL1 2373  13.957  13.575  10.494 -0.0868 -0.2631  0.1318
  149loPI   GL2 2374  13.920  13.259  10.257  0.0125 -0.2787  0.2844
  149loPI   C1A 2375  13.782  13.786  10.182 -0.0526 -0.0042  0.3527
  149loPI   C2A 2376  13.695  14.038   9.805  0.1044  0.1241 -0.2557
  149loPI   C3A 2377  13.819  13.876   9.479 -0.1549  0.0816  0.2067
  149loPI   C4A 2378  14.021  13.604   9.243 -0.0517 -0.0546 -0.1924
  149loPI   C5A 2379  14.156  13.484   9.658  0.3526 -0.0824  0.2094
  149loPI   C6A 2380  14.364  13.441  10.010 -0.0412 -0.0087  0.2562
  149loPI   C1B 2381  13.969  13.023   9.839  0.1224  0.0036 -0.1735
  149loPI   C2B 2382  14.058  12.937   9.430 -0.1478  0.1192  0.2960
  149loPI   C3B 2383  14.155  13.021   8.983  0.0088  0.1738 -0.1437
  149loPI   C4B 2384  14.057  13.251   8.635 -0.2928  0.1665  0.2686
  150loPI    C1 2385  11.475   8.553  10.904 -0.0086 -0.0401  0.0258
  150loPI    C2 2386  11.563   8.360  11.242 -0.0356 -0.0887  0.0052
  150loPI    C3 2387  11.238   8.593  11.224  0.0717  0.0686  0.0724
  150loPI   PO4 2388  11.589   8.293  10.700 -0.0998  0.0099  0.1084
  150loPI   GL1 2389  11.690   8.218  10.338 -0.1944  0.1260 -0.1878
  150loPI   GL2 2390  11.841   8.545  10.264  0.0498  0.0759 -0.0075
  150loPI   C1A 2391  11.714   8.272   9.818 -0.3701 -0.0683  0.3328
  150loPI   C2A 2392  11.680   8.186   9.351  0.3388 -0.1175 -0.2754
  150loPI   C3A 2393  11.514   8.052   8.876  0.2247  0.3800 -0.0091
  150loPI   C4A 2394  11.591   8.017   8.514 -0.0929  0.0588  0.0849
  150loPI   C5A 2395  11.637   7.745   8.210  0.2970 -0.3520 -0.1618
  150loPI   C6A 2396  11.636   7.719   7.756  0.2745  0.4026 -0.1118
  150loPI   C1B 2397  11.735   8.779   9.922 -0.1585 -0.0370 -0.2413
  150loPI   C2B 2398  11.846   8.683   9.507 -0.0382  0.1403  0.0038
  150loPI   C3B 2399  11.878   8.698   9.059 -0.0095  0.2671 -0.4180
  150loPI   C4B 2400  11.831   8.384   8.744  0.2034  0.2496 -0.0258
  151loPI    C1 2401   8.206   2.126  10.494  0.1106  0.0602  0.0093
  151loPI    C2 2402   8.032   1.786  10.613 -0.0426  0.0609 -0.2069
  151loPI    C3 2403   8.403   1.873  10.732 -0.1430  0.0016  0.1614
  151loPI   PO4 2404   8.180   2.145  10.219  0.0992 -0.1087 -0.1138
  151loPI   GL1 2405   7.889   2.290   9.840 -0.0370 -0.0745 -0.0212
  151loPI   GL2 2406   7.667   2.451   9.729 -0.0167 -0.3806 -0.1813
  151loPI   C1A 2407   7.885   2.044   9.530  0.1701 -0.2738  0.1347
  151loPI   C2A 2408   7.767   2.047   9.163  0.2634 -0.2204 -0.1107
  151loPI   C3A 2409   7.789   2.142   8.751  0.2186 -0.2224  0.1539
  151loPI   C4A 2410   7.669   2.205   8.367  0.1920 -0.1176  0.0001
  151loPI   C5A 2411   7.563   2.421   8.082 -0.1169  0.1916  0.1718
  151loPI   C6A 2412   7.533   2.735   7.740  0.0952  0.0066  0.1095
  151loPI   C1B 2413   7.605   2.513   9.335 -0.0888  0.1029  0.0239
  151loPI   C2B 2414   7.453   2.634   8.974  0.0642  0.0401  0.5326
  151loPI   C3B 2415   7.102   2.807   8.741 -0.0108  0.1553  0.0075
  151loPI   C4B 2416   6.923   3.174   8.667  0.0057 -0.0636  0.1417
  152loPI    C1 2417  17.511   5.674  11.096 -0.1665 -0.0145  0.0380
  152loPI    C2 2418  17.323   5.502  11.405 -0.0812 -0.0192  0.0872
  152loPI    C3 2419  17.538   5.835  11.461  0.2398 -0.2247  0.1068
  152loPI   PO4 2420  17.250   5.579  10.909  0.1147  0.0199 -0.2021
  152loPI   GL1 2421  17.213   5.545  10.547  0.2384  0.0163 -0.2719
  152loPI   GL2 2422  17.181   5.898  10.392  0.1186  0.0406 -0.2379
  152loPI   C1A 2423  17.551   5.449  10.279  0.2736  0.3691  0.0988
  152loPI   C2A 2424  17.507   5.472   9.864  0.0587  0.2817 -0.1142
  152loPI   C3A 2425  17.453   5.383   9.399  0.1628  0.0386  0.1938
  152loPI   C4A 2426  17.445   5.272   8.944 -0.1756 -0.0220  0.0076
  152loPI   C5A 2427  17.398   5.184   8.532 -0.3388 -0.1608 -0.0817
  152loPI   C6A 2428  17.768   5.226   8.127 -0.2144 -0.3365  0.2007
  152loPI   C1B 2429  17.349   5.892  10.001 -0.0496  0.0755  0.1390
  152loPI   C2B 2430  17.380   5.867   9.618  0.3347 -0.1449 -0.2233
  152loPI   C3B 2431  17.363   5.870   9.219 -0.1622  0.1342  0.0542
  152loPI   C4B 2432  17.439   5.811   8.828  0.1089  0.1806  0.1421
  153loPI    C1 2433   4.196   7.452  10.369 -0.2021  0.1507  0.1036
  153loPI    C2 2434   4.555   7.302  10.461 -0.3243 -0.1989  0.0237
  153loPI    C3 2435   4.402   7.601  10.678  0.0565  0.0224 -0.0040
  153loPI   PO4 2436   4.207   7.577  10.129 -0.1762  0.2290 -0.1088
  153loPI   GL1 2437   4.136   7.426   9.757  0.0722 -0.0806 -0.1192
  153loPI   GL2 2438   3.878   7.687   9.542  0.2337  0.0160  0.1010
  153loPI   C1A 2439   4.402   7.623   9.477 -0.1026  0.0552  0.3958
  153loPI   C2A 2440   4.544   7.771   9.056 -0.0603  0.0983  0.2349
  153loPI   C3A 2441   4.493   7.737   8.602  0.1374  0.3511  0.0451
  153loPI   C4A 2442   4.493   7.785   8.163  0.0950  0.1703  0.1842
  153loPI   C5A 2443   4.258   8.171   8.045  0.0477  0.0700  0.2757
  153loPI   C6A 2444   4.199   8.527   7.758  0.2894  0.0020  0.0763
  153loPI   C1B 2445   3.808   7.759   9.144 -0.2162 -0.1877 -0.1062
  153loPI   C2B 2446   4.042   7.828   8.745 -0.0334 -0.0375 -0.0878
  153loPI   C3B 2447   3.877   7.950   8.271  0.1045  0.0224  0.0181
  153loPI   C4B 2448   3.694   7.988   7.834  0.1358 -0.1642  0.0425
  154loPI    C1 2449   0.969   7.426  10.499 -0.1201 -0.1968 -0.0086
  154loPI    C2 2450   1.051   7.062  10.645  0.1018 -0.2713 -0.3088
  154loPI    C3 2451   1.208   7.388  10.817 -0.1138 -0.3129 -0.0266
  154loPI   PO4 2452   0.927   7.378  10.289  0.1109 -0.1582  0.0098
  154loPI   GL1 2453   1.104   7.478   9.914  0.0087 -0.0167 -0.0390
  154loPI   GL2 2454   0.764   7.500   9.879 -0.2676  0.0641  0.0297
  154loPI   C1A 2455   1.196   7.330   9.522  0.0550  0.3090 -0.0316
  154loPI   C2A 2456   1.123   7.280   9.194 -0.1842 -0.0027  0.0683
  154loPI   C3A 2457   1.020   7.322   8.790 -0.2308 -0.1513  0.2803
  154loPI   C4A 2458   1.011   7.487   8.316  0.4345 -0.0242 -0.0561
  154loPI   C5A 2459   0.896   7.531   7.874 -0.0946  0.0738 -0.0551
  154loPI   C6A 2460   1.145   7.854   7.774 -0.0749 -0.0604  0.3409
  154loPI   C1B 2461   0.634   7.575   9.377 -0.0095 -0.1180  0.1908
  154loPI   C2B 2462   0.559   7.555   8.938  0.0343  0.0633 -0.0579
  154loPI   C3B 2463   0.516   7.530   8.557 -0.1272  0.0481 -0.2790
  154loPI   C4B 2464   0.427   7.621   8.172 -0.3572 -0.1777  0.2722
  155loPI    C1 2465  11.202   2.278  10.630 -0.3397  0.0580 -0.3512
  155loPI    C2 2466  10.825   2.184  10.724 -0.3072  0.2068 -0.0596
  155loPI    C3 2467  10.977   2.537  10.836 -0.0076  0.0517  0.0316
  155loPI   PO4 2468  11.221   2.217  10.374 -0.3184  0.0255 -0.0336
  155loPI   GL1 2469  11.461   1.933   9.960 -0.1874  0.1564 -0.0966
  155loPI   GL2 2470  11.298   2.174   9.903 -0.0608 -0.1598  0.0570
  155loPI   C1A 2471  11.541   1.889   9.541 -0.3232  0.2787 -0.0214
  155loPI   C2A 2472  11.582   1.973   9.088 -0.3460 -0.4195 -0.2148
  155loPI   C3A 2473  11.542   2.098   8.640  0.1140  0.0407 -0.1608
  155loPI   C4A 2474  11.541   2.290   8.208 -0.0828 -0.2441 -0.0589
  155loPI   C5A 2475  11.543   2.447   7.809 -0.1219  0.0009 -0.0936
  155loPI   C6A 2476  11.350   2.748   7.538  0.1065  0.0641  0.0151
  155loPI   C1B 2477  11.294   2.461   9.494 -0.3101  0.1754  0.1257
  155loPI   C2B 2478  11.307   2.395   8.998 -0.0162  0.2357 -0.2308
  155loPI   C3B 2479  11.135   2.347   8.528  0.2002  0.1078  0.1079
  155loPI   C4B 2480  11.066   2.187   8.125  0.2540 -0.1196 -0.0173
  156loPI    C1 2481  15.758  16.121  10.303  0.2793 -0.1319 -0.0998
  156loPI    C2 2482  15.633  15.910  10.619  0.0781  0.0439 -0.0598
  156loPI    C3 2483  16.020  16.003  10.581  0.1524 -0.2424 -0.0257
  156loPI   PO4 2484  15.552  15.996  10.172  0.2522 -0.4536 -0.1117
  156loPI   GL1 2485  15.547  15.586   9.882 -0.2661 -0.0532 -0.0311
  156loPI   GL2 2486  15.234  15.830   9.806 -0.0088  0.1136 -0.0694
  156loPI   C1A 2487  15.688  15.535   9.487 -0.1172 -0.1416  0.0167
  156loPI   C2A 2488  15.662  15.565   9.100 -0.0865  0.3058 -0.4057
  156loPI   C3A 2489  15.628  15.528   8.666  0.0196  0.0710  0.2001
  156loPI   C4A 2490  15.390  15.702   8.227  0.0333 -0.0221  0.1134
  156loPI   C5A 2491  15.213  15.392   7.876 -0.0116  0.0349  0.1885
  156loPI   C6A 2492  15.252  15.045   7.659 -0.0085 -0.0134  0.4817
  156loPI   C1B 2493  15.229  15.744   9.343 -0.3264 -0.0206 -0.5628
  156loPI   C2B 2494  15.178  15.732   8.929 -0.0116  0.0172  0.0205
  156loPI   C3B 2495  15.298  16.033   8.700  0.2628 -0.0307  0.5374
  156loPI   C4B 2496  15.297  16.220   8.296  0.1934  0.1916  0.0890
  157loPI    C1 2497   7.738  17.120  10.289 -0.0026  0.0920  0.2454
  157loPI    C2 2498   7.738  16.806  10.537 -0.1288 -0.0613  0.0551
  157loPI    C3 2499   7.785  17.176  10.682 -0.0751 -0.1590  0.2919
  157loPI   PO4 2500   7.597  17.158  10.085 -0.0055 -0.0717 -0.2400
  157loPI   GL1 2501   7.539  17.347   9.674  0.0847  0.1812  0.0484
  157loPI   GL2 2502   7.626  17.598   9.785  0.2352  0.3158  0.1606
  157loPI   C1A 2503   7.445  17.472   9.330  0.2761  0.0573  0.1886
  157loPI   C2A 2504   7.427  17.481   8.877  0.2056 -0.1012  0.0407
  157loPI   C3A 2505   7.348  17.692   8.463 -0.4688  0.0155 -0.0025
  157loPI   C4A 2506   7.091  18.090   8.395  0.0878  0.1212 -0.1256
  157loPI   C5A 2507   6.794  18.379   8.188 -0.1997  0.2823  0.2015
  157loPI   C6A 2508   6.395  18.716   8.179 -0.1764 -0.0855 -0.0430
  157loPI   C1B 2509   7.715  17.852   9.515 -0.1576 -0.0709  0.1493
  157loPI   C2B 2510   7.680  17.830   9.095 -0.1620  0.2222 -0.2063
  157loPI   C3B 2511   7.757  17.817   8.658  0.1292  0.0166 -0.1000
  157loPI   C4B 2512   7.818  17.892   8.213 -0.1918  0.0848  0.0930
  158loPI    C1 2513   2.583  17.830  10.393  0.1471  0.1920  0.0936
  158loPI    C2 2514   2.342  17.648  10.656  0.0963  0.0480 -0.0509
  158loPI    C3 2515   2.714  17.513  10.598  0.1335  0.1266  0.0016
  158loPI   PO4 2516   2.398  17.852  10.181  0.2068  0.2756  0.2294
  158loPI   GL1 2517   2.157  18.077  10.043 -0.0152 -0.0249  0.1820
  158loPI   GL2 2518   2.498  18.212   9.825  0.0459 -0.0068 -0.1724
  158loPI   C1A 2519   1.879  18.064   9.693 -0.2940 -0.1190 -0.1033
  158loPI   C2A 2520   1.755  18.150   9.275 -0.0074 -0.2611  0.0014
  158loPI   C3A 2521   1.860  17.901   8.915 -0.0017  0.2140 -0.3676
  158loPI   C4A 2522   1.795  17.957   8.498 -0.2866  0.1999 -0.1906
  158loPI   C5A 2523   2.035  17.868   8.239  0.4699 -0.0928 -0.0971
  158loPI   C6A 2524   2.318  18.100   7.940 -0.0524  0.0441 -0.1034
  158loPI   C1B 2525   2.416  18.045   9.455  0.1670 -0.0178 -0.0099
  158loPI   C2B 2526   2.343  17.959   9.007  0.1259  0.0006  0.0645
  158loPI   C3B 2527   2.302  17.996   8.628  0.0351 -0.0753  0.0511
  158loPI   C4B 2528   2.528  17.734   8.290 -0.0899 -0.1392  0.1912
  159loPI    C1 2529  17.656   9.045  10.530 -0.1863 -0.1899  0.2542
  159loPI    C2 2530  17.979   9.224  10.682 -0.0809 -0.2264  0.0771
  159loPI    C3 2531  17.656   9.440  10.589 -0.1476 -0.2041  0.3505
  159loPI   PO4 2532  17.676   8.968  10.389 -0.2641  0.0896  0.2013
  159loPI   GL1 2533  17.874   8.754  10.057 -0.0913 -0.1259 -0.1704
  159loPI   GL2 2534  17.868   8.479   9.948 -0.0605 -0.0845  0.4005
  159loPI   C1A 2535  17.766   8.906   9.658  0.1198  0.0237 -0.0944
  159loPI   C2A 2536  17.589   8.838   9.283 -0.1277 -0.0407  0.0123
  159loPI   C3A 2537  17.415   8.838   8.946 -0.0964 -0.1753  0.0747
  159loPI   C4A 2538  17.332   8.952   8.540 -0.0124 -0.1141  0.0724
  159loPI   C5A 2539  17.383   8.893   8.127  0.1231 -0.2727  0.0747
  159loPI   C6A 2540  17.076   9.028   7.751 -0.2220  0.1719 -0.0191
  159loPI   C1B 2541  17.972   8.530   9.461  0.2583 -0.0068  0.1877
  159loPI   C2B 2542  17.980   8.533   8.976  0.1715 -0.1322  0.1502
  159loPI   C3B 2543  17.817   8.544   8.609  0.1455  0.0365  0.2917
  159loPI   C4B 2544  17.853   8.613   8.157 -0.0449 -0.5250  0.1705
  160loPI    C1 2545   9.590   0.217  10.385 -0.0140 -0.0094  0.0404
  160loPI    C2 2546   9.647   0.520  10.640 -0.0036  0.0673 -0.0526
  160loPI    C3 2547   9.941   0.258  10.573 -0.0813 -0.0831  0.1839
  160loPI   PO4 2548   9.459   0.344  10.093 -0.1178 -0.0730  0.0780
  160loPI   GL1 2549   9.494   0.618   9.764 -0.0574 -0.2044 -0.0802
  160loPI   GL2 2550   9.382   0.846   9.590 -0.1443  0.4378  0.4170
  160loPI   C1A 2551   9.895   0.509   9.537  0.1336  0.0898 -0.4326
  160loPI   C2A 2552  10.030   0.507   9.065  0.0377 -0.0992 -0.2985
  160loPI   C3A 2553  10.343   0.444   8.907  0.0801 -0.1101  0.0128
  160loPI   C4A 2554  10.580   0.531   8.508 -0.0989  0.0182 -0.0220
  160loPI   C5A 2555  10.623   0.779   8.164  0.2990  0.1928 -0.1255
  160loPI   C6A 2556  10.294   0.930   7.798 -0.0866 -0.1936 -0.3252
  160loPI   C1B 2557   9.508   0.661   9.247 -0.1046  0.1864 -0.1173
  160loPI   C2B 2558   9.565   0.649   8.895  0.0099  0.0736  0.2369
  160loPI   C3B 2559   9.864   0.514   8.582  0.1071 -0.2301  0.0160
  160loPI   C4B 2560  10.179   0.280   8.342 -0.0888  0.1884 -0.0535
  161loPI    C1 2561   1.518   2.165  10.361 -0.2731 -0.0631  0.1437
  161loPI    C2 2562   1.738   2.215  10.691  0.1477  0.1291 -0.1572
  161loPI    C3 2563   1.341   2.257  10.707  0.1483  0.0007  0.3489
  161loPI   PO4 2564   1.673   2.172  10.169  0.1388  0.2251 -0.2345
  161loPI   GL1 2565   1.789   2.375   9.793  0.3688 -0.0280  0.0457
  161loPI   GL2 2566   1.480   2.410   9.807 -0.1682 -0.3239 -0.1429
  161loPI   C1A 2567   1.693   2.323   9.359 -0.0958 -0.1441 -0.3942
  161loPI   C2A 2568   1.766   2.337   8.886 -0.1137 -0.0925  0.0698
  161loPI   C3A 2569   1.927   2.297   8.445 -0.1621 -0.0869 -0.1096
  161loPI   C4A 2570   2.191   2.167   8.141  0.1253  0.0257  0.0664
  161loPI   C5A 2571   2.482   1.959   7.825  0.1881  0.0134 -0.3077
  161loPI   C6A 2572   2.825   1.725   7.970  0.1498  0.1386 -0.1087
  161loPI   C1B 2573   1.421   2.739   9.508 -0.2178 -0.0803 -0.3201
  161loPI   C2B 2574   1.224   2.697   9.161 -0.0162 -0.1454 -0.1716
  161loPI   C3B 2575   1.024   2.780   8.712 -0.0693 -0.0948  0.1496
  161loPI   C4B 2576   0.725   3.091   8.565  0.3121 -0.2833 -0.0553
  162loPI    C1 2577  18.131   9.823  10.287 -0.0280 -0.1685 -0.0649
  162loPI    C2 2578  18.276   9.691  10.636 -0.0047  0.0907  0.0255
  162loPI    C3 2579  18.526   9.794  10.341 -0.0263 -0.2321 -0.1098
  162loPI   PO4 2580  17.940   9.682  10.261  0.0717 -0.1156  0.5237
  162loPI   GL1 2581  17.959   9.283  10.110 -0.1014  0.0519 -0.0732
  162loPI   GL2 2582  17.611   9.281   9.980  0.0422 -0.0889  0.1139
  162loPI   C1A 2583  18.038   9.390   9.674 -0.1161 -0.0506  0.1675
  162loPI   C2A 2584  17.937   9.321   9.264  0.2448 -0.1165 -0.3466
  162loPI   C3A 2585  17.830   9.111   8.962 -0.0726 -0.0500  0.0204
  162loPI   C4A 2586  17.810   9.128   8.510 -0.1216 -0.0326  0.1209
  162loPI   C5A 2587  17.879   9.080   8.065 -0.0372 -0.0022 -0.1498
  162loPI   C6A 2588  18.012   9.333   7.630 -0.1515  0.1230 -0.1743
  162loPI   C1B 2589  17.505   9.311   9.572 -0.2833 -0.0616  0.0048
  162loPI   C2B 2590  17.420   9.348   9.216 -0.0498  0.0699  0.2250
  162loPI   C3B 2591  17.350   9.365   8.816  0.0002  0.0256  0.1406
  162loPI   C4B 2592  17.210   9.454   8.446  0.0017  0.1181 -0.2029
  163loPI    C1 2593   4.446  16.658  10.231  0.1256 -0.1192  0.0444
  163loPI    C2 2594   4.632  16.778  10.565  0.1250 -0.0198  0.0094
  163loPI    C3 2595   4.288  16.950  10.454  0.1171 -0.0634 -0.0341
  163loPI   PO4 2596   4.393  16.476  10.164  0.1843 -0.0051  0.0035
  163loPI   GL1 2597   4.312  16.230   9.857  0.4077 -0.3361 -0.2787
  163loPI   GL2 2598   4.121  16.375   9.667 -0.0550  0.1264  0.1007
  163loPI   C1A 2599   4.532  16.197   9.504 -0.2261  0.1276 -0.4168
  163loPI   C2A 2600   4.677  16.302   9.060 -0.4562  0.1869 -0.1728
  163loPI   C3A 2601   4.668  16.129   8.679 -0.1376 -0.2028 -0.2370
  163loPI   C4A 2602   4.836  15.977   8.253 -0.0716 -0.1749 -0.1968
  163loPI   C5A 2603   4.775  16.024   7.833  0.0737 -0.2398 -0.0289
  163loPI   C6A 2604   4.486  16.096   7.397 -0.0797  0.0405 -0.0148
  163loPI   C1B 2605   4.079  16.359   9.228  0.0607  0.2142 -0.1101
  163loPI   C2B 2606   4.188  16.288   8.768 -0.0852 -0.1498 -0.1327
  163loPI   C3B 2607   4.310  16.169   8.341  0.0518 -0.0282 -0.0934
  163loPI   C4B 2608   4.295  16.042   7.951 -0.3515 -0.1025  0.0367
  164loPI    C1 2609   1.279  10.718  10.815  0.0149  0.1631 -0.0108
  164loPI    C2 2610   1.526  10.957  11.021 -0.1792  0.0226  0.3964
  164loPI    C3 2611   1.153  11.077  10.940 -0.1194  0.0569  0.1640
  164loPI   PO4 2612   1.395  10.728  10.530  0.1762  0.0595 -0.3142
  164loPI   GL1 2613   1.675  10.540  10.248 -0.0726 -0.1078  0.1286
  164loPI   GL2 2614   1.341  10.459  10.158  0.2407  0.0003  0.2320
  164loPI   C1A 2615   1.738  10.582   9.808 -0.0307  0.0846 -0.3375
  164loPI   C2A 2616   1.711  10.586   9.413  0.0808 -0.0952  0.2673
  164loPI   C3A 2617   1.774  10.441   9.017 -0.0907 -0.2726  0.0902
  164loPI   C4A 2618   1.887  10.572   8.592  0.1776 -0.0357 -0.1870
  164loPI   C5A 2619   2.029  10.308   8.212 -0.0713 -0.2239  0.1678
  164loPI   C6A 2620   2.294  10.473   7.850  0.1277  0.1440  0.0697
  164loPI   C1B 2621   1.259  10.337   9.653  0.0851 -0.1614 -0.2418
  164loPI   C2B 2622   1.237  10.304   9.240  0.0407 -0.5062  0.2527
  164loPI   C3B 2623   1.320  10.283   8.878 -0.0594 -0.0371  0.0766
  164loPI   C4B 2624   1.546  10.186   8.516  0.0751  0.0205  0.2448
  165loPI    C1 2625  10.446  14.324  10.621  0.0536  0.0628 -0.2816
  165loPI    C2 2626  10.804  14.278  10.794  0.0279 -0.0391 -0.2550
  165loPI    C3 2627  10.514  14.479  10.983  0.0363 -0.0515 -0.2288
  165loPI   PO4 2628  10.509  14.336  10.367 -0.2904  0.1479 -0.0426
  165loPI   GL1 2629  10.672  14.348   9.974 -0.1008  0.1446 -0.0170
  165loPI   GL2 2630  10.837  14.170   9.927  0.1586 -0.0193  0.1624
  165loPI   C1A 2631  10.588  14.307   9.545 -0.1889 -0.0570  0.1021
  165loPI   C2A 2632  10.741  14.237   9.174 -0.2028  0.0502 -0.0773
  165loPI   C3A 2633  10.889  14.247   8.762  0.0999  0.0446 -0.0983
  165loPI   C4A 2634  11.113  14.334   8.436 -0.2267  0.0018  0.0781
  165loPI   C5A 2635  11.321  14.410   8.012  0.0277 -0.0137 -0.2475
  165loPI   C6A 2636  11.238  14.107   7.758  0.1945 -0.0397  0.0249
  165loPI   C1B 2637  10.890  13.931   9.529 -0.2015  0.3149  0.3081
  165loPI   C2B 2638  11.013  13.761   9.103  0.0687  0.0742  0.1661
  165loPI   C3B 2639  11.108  13.794   8.659 -0.0283 -0.1298 -0.0717
  165loPI   C4B 2640  11.198  13.769   8.157  0.3134 -0.0536 -0.1928
  166loPI    C1 2641   4.976  18.222  10.650 -0.3277 -0.1808  0.1231
  166loPI    C2 2642   4.764  18.471  10.881 -0.0796 -0.0426  0.2050
  166loPI    C3 2643   4.970  18.170  11.046  0.0877  0.0487  0.1657
  166loPI   PO4 2644   4.688  18.232  10.430  0.0803  0.1577 -0.0090
  166loPI   GL1 2645   4.806  18.099  10.028 -0.2260  0.1513  0.1261
  166loPI   GL2 2646   4.527  18.189   9.902  0.0214 -0.1830 -0.1392
  166loPI   C1A 2647   4.922  18.200   9.543  0.0431 -0.1007 -0.0739
  166loPI   C2A 2648   4.947  18.248   9.132  0.0187 -0.1179 -0.0299
  166loPI   C3A 2649   5.032  18.294   8.632 -0.0892  0.2648 -0.1451
  166loPI   C4A 2650   4.934  18.277   8.226 -0.2226 -0.0578 -0.0508
  166loPI   C5A 2651   5.005  17.990   7.773  0.1355  0.0222  0.0861
  166loPI   C6A 2652   5.315  17.705   7.680 -0.1985  0.3924 -0.1586
  166loPI   C1B 2653   4.447  18.102   9.456 -0.0293 -0.1328  0.0716
  166loPI   C2B 2654   4.534  18.157   8.972  0.2866  0.0496  0.2249
  166loPI   C3B 2655   4.442  18.402   8.785 -0.1450  0.1331  0.2370
  166loPI   C4B 2656   4.523  18.436   8.345  0.0515  0.2244 -0.2260
  167loPI    C1 2657   8.150  14.557  10.467  0.1367 -0.0210 -0.2378
  167loPI    C2 2658   8.396  14.776  10.694 -0.0486  0.0440 -0.0975
  167loPI    C3 2659   8.318  14.397  10.793  0.0149  0.0153 -0.1568
  167loPI   PO4 2660   8.224  14.567  10.228  0.0037 -0.1321 -0.1469
  167loPI   GL1 2661   8.299  14.722   9.932 -0.0542 -0.3107 -0.0313
  167loPI   GL2 2662   8.469  14.463   9.702  0.0890 -0.0036 -0.0413
  167loPI   C1A 2663   8.400  14.981   9.610 -0.0790 -0.0862  0.0106
  167loPI   C2A 2664   8.344  14.841   9.249 -0.0278  0.1725  0.0554
  167loPI   C3A 2665   8.417  14.608   8.884  0.1980 -0.1813  0.1862
  167loPI   C4A 2666   8.056  14.575   8.607  0.0932  0.0332 -0.2839
  167loPI   C5A 2667   7.641  14.327   8.478  0.0619  0.2369  0.0584
  167loPI   C6A 2668   7.205  14.163   8.566  0.0059  0.0198 -0.0929
  167loPI   C1B 2669   8.280  14.300   9.238  0.4496  0.0410  0.0217
  167loPI   C2B 2670   8.101  14.155   8.827 -0.1984  0.1938 -0.0525
  167loPI   C3B 2671   8.047  14.026   8.442  0.4376 -0.3556  0.1372
  167loPI   C4B 2672   7.756  13.942   8.190 -0.2469  0.0723  0.0152
  168loPI    C1 2673   8.618   6.428  10.747  0.0628  0.2426  0.0251
  168loPI    C2 2674   8.610   6.081  10.945 -0.0236  0.0914 -0.2369
  168loPI    C3 2675   8.290   6.321  10.950 -0.0844  0.0128 -0.3226
  168loPI   PO4 2676   8.644   6.262  10.466 -0.0355 -0.3392 -0.3166
  168loPI   GL1 2677   8.474   6.461  10.128 -0.2497 -0.3215 -0.0473
  168loPI   GL2 2678   8.253   6.152  10.151 -0.2124 -0.1879  0.2939
  168loPI   C1A 2679   8.641   6.630   9.753  0.2637  0.3002 -0.0401
  168loPI   C2A 2680   8.564   6.725   9.384  0.0315  0.2647  0.0540
  168loPI   C3A 2681   8.712   6.688   8.968  0.0369  0.1982  0.0328
  168loPI   C4A 2682   8.770   6.727   8.519  0.0796  0.2750 -0.0993
  168loPI   C5A 2683   8.776   6.807   8.128  0.2377 -0.0521 -0.0710
  168loPI   C6A 2684   8.880   7.060   7.850  0.3569  0.3987  0.0259
  168loPI   C1B 2685   8.044   5.960   9.776 -0.0112 -0.1444 -0.0589
  168loPI   C2B 2686   7.971   5.886   9.386 -0.2818 -0.0745  0.1057
  168loPI   C3B 2687   8.057   5.968   8.939 -0.1753 -0.0647 -0.2675
  168loPI   C4B 2688   8.099   6.167   8.385  0.1991  0.1813  0.0242
  169loPI    C1 2689   4.015  11.137  10.450 -0.1410  0.2624  0.0827
  169loPI    C2 2690   4.185  11.404  10.695  0.0874  0.0112  0.2042
  169loPI    C3 2691   4.311  11.025  10.695 -0.1716 -0.0785 -0.0313
  169loPI   PO4 2692   3.766  11.255  10.437  0.0315 -0.2940  0.1660
  169loPI   GL1 2693   3.445  11.185  10.184 -0.0832  0.1082 -0.2216
  169loPI   GL2 2694   3.207  11.344  10.045  0.0462 -0.1213 -0.1230
  169loPI   C1A 2695   3.777  11.237   9.814 -0.2996 -0.2408  0.1274
  169loPI   C2A 2696   3.962  11.159   9.399  0.3070  0.0053  0.2726
  169loPI   C3A 2697   4.085  11.350   8.993  0.1141  0.1645 -0.0135
  169loPI   C4A 2698   4.233  11.467   8.590  0.2548  0.1997 -0.1221
  169loPI   C5A 2699   4.339  11.388   8.124 -0.1917 -0.3813 -0.0115
  169loPI   C6A 2700   4.221  11.470   7.716 -0.1430  0.0872  0.1151
  169loPI   C1B 2701   3.367  11.533   9.763  0.1431  0.3028 -0.0575
  169loPI   C2B 2702   3.446  11.167   9.400  0.1404 -0.1347  0.1439
  169loPI   C3B 2703   3.642  11.116   9.014  0.1435 -0.2391 -0.3186
  169loPI   C4B 2704   3.722  11.266   8.510  0.3830 -0.3048  0.0289
  170loPI    C1 2705   6.701  15.728  10.378 -0.1115 -0.0041 -0.0002
  170loPI    C2 2706   6.474  15.917  10.647 -0.0707 -0.1561  0.1425
  170loPI    C3 2707   6.794  15.708  10.766  0.1027 -0.0040 -0.0501
  170loPI   PO4 2708   6.599  15.665  10.129  0.1649 -0.2356  0.3171
  170loPI   GL1 2709   6.480  15.871   9.743 -0.0167  0.1185  0.0222
  170loPI   GL2 2710   6.662  15.982   9.694  0.2213 -0.1991  0.0131
  170loPI   C1A 2711   6.386  16.007   9.275  0.3100  0.1258  0.1020
  170loPI   C2A 2712   6.135  16.100   8.924  0.1442  0.1018  0.1619
  170loPI   C3A 2713   6.180  15.969   8.551 -0.0892 -0.1092 -0.1340
  170loPI   C4A 2714   6.231  16.083   8.157 -0.1582  0.2092 -0.1768
  170loPI   C5A 2715   5.993  16.172   7.884  0.0080  0.0144  0.1035
  170loPI   C6A 2716   5.597  16.322   7.833  0.1985 -0.3034  0.3675
  170loPI   C1B 2717   6.781  15.751   9.339 -0.3124 -0.0670 -0.0834
  170loPI   C2B 2718   6.589  15.631   8.961  0.2303 -0.1824  0.2478
  170loPI   C3B 2719   6.531  15.575   8.499  0.0189 -0.2617 -0.0771
  170loPI   C4B 2720   6.242  15.521   8.150  0.0228 -0.2144 -0.0266
  171loPI    C1 2721  12.099   1.850  10.381  0.1887 -0.0211 -0.2448
  171loPI    C2 2722  12.430   2.072  10.419  0.0629  0.1120  0.1165
  171loPI    C3 2723  12.424   1.697  10.557  0.1440  0.0206 -0.1245
  171loPI   PO4 2724  11.996   1.948  10.159 -0.0427 -0.0126  0.2431
  171loPI   GL1 2725  12.014   1.892   9.738  0.0274  0.0268 -0.0781
  171loPI   GL2 2726  12.134   2.125   9.663 -0.0129 -0.3839  0.3552
  171loPI   C1A 2727  12.310   1.676   9.551 -0.0540 -0.0444  0.1992
  171loPI   C2A 2728  12.396   1.549   9.064  0.0722 -0.1452  0.1147
  171loPI   C3A 2729  12.415   1.575   8.586 -0.0876 -0.0455 -0.0066
  171loPI   C4A 2730  12.434   1.589   8.197  0.1913 -0.1412  0.2190
  171loPI   C5A 2731  12.432   1.561   7.787  0.2805  0.1253 -0.1325
  171loPI   C6A 2732  12.834   1.371   7.518  0.3103 -0.1515 -0.3015
  171loPI   C1B 2733  12.116   1.989   9.219  0.1388 -0.0963  0.4203
  171loPI   C2B 2734  12.258   2.016   8.739 -0.0660 -0.1102 -0.1629
  171loPI   C3B 2735  12.316   2.084   8.313  0.1605  0.2436  0.0878
  171loPI   C4B 2736  12.144   2.108   7.950 -0.1882  0.3717  0.1191
  172loPI    C1 2737   9.959  16.767  10.544 -0.2189  0.0876  0.0822
  172loPI    C2 2738  10.092  16.485  10.794 -0.2028  0.0474  0.0285
  172loPI    C3 2739   9.934  16.822  10.939  0.0402  0.1353  0.0941
  172loPI   PO4 2740  10.209  16.878  10.347  0.1207 -0.0496 -0.1486
  172loPI   GL1 2741  10.188  17.106   9.954  0.3432  0.1906 -0.2920
  172loPI   GL2 2742   9.777  17.223   9.903 -0.0881  0.1661 -0.1978
  172loPI   C1A 2743  10.097  17.039   9.616  0.0265 -0.1349  0.2107
  172loPI   C2A 2744   9.974  17.103   9.130 -0.0491 -0.2274 -0.0331
  172loPI   C3A 2745   9.973  17.139   8.742 -0.1618  0.0668 -0.2067
  172loPI   C4A 2746  10.210  17.119   8.459 -0.0067  0.0221  0.0723
  172loPI   C5A 2747  10.320  17.250   8.090 -0.0985 -0.0325  0.1407
  172loPI   C6A 2748  10.278  17.364   7.629  0.0152 -0.0670 -0.0716
  172loPI   C1B 2749   9.636  17.240   9.437 -0.1088  0.1242 -0.2223
  172loPI   C2B 2750   9.534  17.314   8.998 -0.2776  0.1932 -0.0462
  172loPI   C3B 2751   9.512  17.536   8.573 -0.1059 -0.0725 -0.2081
  172loPI   C4B 2752   9.441  17.484   8.118 -0.0594 -0.1076 -0.2741
  173loPI    C1 2753  17.685  11.611  10.359 -0.1256  0.0140  0.0697
  173loPI    C2 2754  17.707  11.655  10.756 -0.0161 -0.0897  0.0757
  173loPI    C3 2755  17.675  11.290  10.597 -0.1758 -0.0409 -0.0064
  173loPI   PO4 2756  17.551  11.876  10.300 -0.2082 -0.0713 -0.2522
  173loPI   GL1 2757  17.412  12.100   9.931  0.1237  0.2452  0.0424
  173loPI   GL2 2758  17.414  12.416  10.119 -0.0780  0.1767 -0.1953
  173loPI   C1A 2759  17.774  12.006   9.564 -0.3398  0.0754 -0.2682
  173loPI   C2A 2760  17.899  11.853   9.137  0.0776  0.0213  0.0479
  173loPI   C3A 2761  17.938  11.892   8.716 -0.1073  0.0816 -0.0488
  173loPI   C4A 2762  17.866  11.583   8.298 -0.3175 -0.1484  0.1604
  173loPI   C5A 2763  17.866  11.454   7.937 -0.1230  0.1848  0.0470
  173loPI   C6A 2764  17.830  11.123   7.749  0.2120 -0.2623 -0.0949
  173loPI   C1B 2765  17.507  12.429   9.583 -0.2529  0.0934 -0.2967
  173loPI   C2B 2766  17.608  12.286   9.087 -0.1629 -0.0057  0.0990
  173loPI   C3B 2767  17.525  12.158   8.705 -0.1506 -0.1077 -0.3195
  173loPI   C4B 2768  17.449  11.894   8.359 -0.3122 -0.0438 -0.0180
  174loPI    C1 2769   7.509   2.864  10.035 -0.0113 -0.2275  0.3468
  174loPI    C2 2770   7.593   3.237   9.918 -0.3732 -0.2393  0.0263
  174loPI    C3 2771   7.713   3.108  10.277 -0.1091  0.1310  0.0776
  174loPI   PO4 2772   7.295   2.824   9.976 -0.1063  0.0452 -0.1138
  174loPI   GL1 2773   7.231   2.756   9.570  0.0334 -0.2722  0.0694
  174loPI   GL2 2774   6.963   2.749   9.609  0.2726  0.0784 -0.0860
  174loPI   C1A 2775   7.071   3.093   9.252  0.1696 -0.2558 -0.0664
  174loPI   C2A 2776   6.647   3.364   9.115  0.1836  0.0666  0.4524
  174loPI   C3A 2777   6.473   3.490   8.697 -0.0706 -0.1390 -0.1548
  174loPI   C4A 2778   6.426   3.427   8.265 -0.0592 -0.0586  0.0460
  174loPI   C5A 2779   6.422   3.190   7.899 -0.1661  0.1327 -0.0486
  174loPI   C6A 2780   6.353   2.901   7.560 -0.1543  0.2318  0.0065
  174loPI   C1B 2781   6.673   2.833   9.259 -0.0077 -0.2383  0.0836
  174loPI   C2B 2782   6.573   2.918   8.811 -0.0462 -0.0202 -0.2826
  174loPI   C3B 2783   6.541   2.868   8.392  0.3163 -0.4059  0.0105
  174loPI   C4B 2784   6.689   2.730   7.947 -0.0936 -0.0321 -0.0860
  175loPI    C1 2785  15.912  10.101  10.272  0.1349 -0.1765 -0.0570
  175loPI    C2 2786  16.161   9.927  10.532 -0.0188 -0.2736  0.0271
  175loPI    C3 2787  15.767   9.924  10.601 -0.0259  0.0951  0.0213
  175loPI   PO4 2788  16.027  10.040  10.021 -0.2104  0.0742 -0.0050
  175loPI   GL1 2789  15.845  10.102   9.639 -0.2501  0.2462 -0.0565
  175loPI   GL2 2790  15.521  10.174   9.754  0.0033 -0.3162  0.1485
  175loPI   C1A 2791  15.859  10.002   9.109  0.0841  0.2318 -0.0336
  175loPI   C2A 2792  15.560  10.168   8.721 -0.1061 -0.1153  0.1482
  175loPI   C3A 2793  15.332  10.326   8.319 -0.0980 -0.0569 -0.0252
  175loPI   C4A 2794  15.144  10.619   8.088  0.0600  0.1695 -0.0512
  175loPI   C5A 2795  15.076  10.908   7.825 -0.3004 -0.2053  0.0496
  175loPI   C6A 2796  14.988  11.406   7.739  0.1315  0.1593 -0.4424
  175loPI   C1B 2797  15.426  10.139   9.263 -0.0220  0.4460  0.2528
  175loPI   C2B 2798  15.082   9.972   8.975  0.0219 -0.1206  0.0411
  175loPI   C3B 2799  15.014   9.975   8.525 -0.1330 -0.0887 -0.0256
  175loPI   C4B 2800  15.082   9.747   8.185 -0.1301  0.1736 -0.1421
  176loPI    C1 2801  10.727   5.947  10.662  0.0351  0.1551  0.2047
  176loPI    C2 2802  10.342   6.046  10.615 -0.0292 -0.1137  0.1491
  176loPI    C3 2803  10.527   6.120  10.962 -0.1411 -0.0186  0.1889
  176loPI   PO4 2804  10.852   5.752  10.572  0.0455  0.0122 -0.0039
  176loPI   GL1 2805  10.779   5.532  10.204 -0.3752 -0.1141  0.0334
  176loPI   GL2 2806  11.080   5.311  10.059 -0.1468 -0.1368  0.3015
  176loPI   C1A 2807  10.663   5.751   9.818 -0.2639  0.2009  0.2140
  176loPI   C2A 2808  10.415   5.972   9.479 -0.2668 -0.3988 -0.1369
  176loPI   C3A 2809  10.347   5.924   9.042  0.0143 -0.0225 -0.0435
  176loPI   C4A 2810  10.309   5.865   8.582 -0.1286  0.0668 -0.1185
  176loPI   C5A 2811  10.233   5.503   8.294  0.0750  0.1168  0.0352
  176loPI   C6A 2812  10.254   5.247   7.964 -0.1234  0.0104  0.0847
  176loPI   C1B 2813  11.036   5.473   9.642 -0.3897  0.0731 -0.1762
  176loPI   C2B 2814  10.852   5.669   9.361  0.3809  0.0131  0.0804
  176loPI   C3B 2815  10.796   5.653   8.942 -0.0148  0.0471  0.0096
  176loPI   C4B 2816  10.830   5.991   8.737  0.2436  0.1794 -0.1129
  177loPI    C1 2817   4.965   1.860  10.382 -0.0924  0.0036 -0.1093
  177loPI    C2 2818   4.960   1.877  10.781  0.1168 -0.4370 -0.0822
  177loPI    C3 2819   5.281   2.003  10.579 -0.0786  0.0012 -0.1299
  177loPI   PO4 2820   4.865   1.646  10.289 -0.0538 -0.2056  0.0059
  177loPI   GL1 2821   4.872   1.449   9.947 -0.0574 -0.2079 -0.0226
  177loPI   GL2 2822   4.972   1.138  10.054 -0.2053 -0.3547 -0.1149
  177loPI   C1A 2823   5.034   1.522   9.575  0.1907  0.1582  0.2205
  177loPI   C2A 2824   4.787   1.376   9.253  0.1541  0.2222 -0.0911
  177loPI   C3A 2825   4.741   1.312   8.845 -0.1491 -0.0325  0.0804
  177loPI   C4A 2826   4.828   1.537   8.519  0.2033  0.2541  0.4784
  177loPI   C5A 2827   5.126   1.367   8.252  0.1430  0.4385 -0.2185
  177loPI   C6A 2828   5.604   1.292   8.287 -0.1369 -0.0982 -0.3696
  177loPI   C1B 2829   5.112   0.998   9.658 -0.2533 -0.0507  0.1242
  177loPI   C2B 2830   5.228   1.148   9.165  0.0451  0.3166 -0.0129
  177loPI   C3B 2831   5.109   0.990   8.727 -0.1597  0.0669  0.3400
  177loPI   C4B 2832   5.216   0.873   8.338 -0.1125  0.2843 -0.1445
  178loPI    C1 2833  15.274  15.022  10.647 -0.2953  0.0179  0.0117
  178loPI    C2 2834  15.103  15.369  10.748  0.0768  0.1183  0.3213
  178loPI    C3 2835  14.978  15.028  10.916 -0.0928  0.1367  0.2352
  178loPI   PO4 2836  15.238  15.049  10.431  0.0604 -0.0017 -0.0922
  178loPI   GL1 2837  15.563  15.136  10.178  0.0553  0.1098  0.0587
  178loPI   GL2 2838  15.838  15.059  10.061  0.0655 -0.3149  0.0481
  178loPI   C1A 2839  15.455  14.961   9.736  0.2055  0.1564  0.1442
  178loPI   C2A 2840  15.769  15.061   9.429 -0.1789  0.2758  0.1890
  178loPI   C3A 2841  15.822  14.973   9.034 -0.0657  0.1873 -0.0498
  178loPI   C4A 2842  15.941  15.093   8.580 -0.1050 -0.0941 -0.0626
  178loPI   C5A 2843  16.086  14.842   8.198  0.2045 -0.1848  0.0323
  178loPI   C6A 2844  16.346  14.539   8.238 -0.1388 -0.2441  0.1591
  178loPI   C1B 2845  16.129  14.854   9.809 -0.0933 -0.0949 -0.0867
  178loPI   C2B 2846  16.298  14.936   9.397 -0.0712  0.0495  0.0760
  178loPI   C3B 2847  16.670  14.883   9.068  0.1575  0.1236 -0.0009
  178loPI   C4B 2848  16.800  14.525   8.758  0.0901  0.4859  0.2693
  179loPI    C1 2849   2.723   9.308  10.702  0.0181  0.0522 -0.2336
  179loPI    C2 2850   2.938   9.182  11.015 -0.1135  0.0035 -0.1620
  179loPI    C3 2851   2.578   9.023  10.943 -0.2484  0.2820 -0.1164
  179loPI   PO4 2852   2.798   9.261  10.453 -0.0001 -0.0769 -0.1770
  179loPI   GL1 2853   2.590   9.077  10.005 -0.0431 -0.1443  0.0830
  179loPI   GL2 2854   2.974   9.161   9.939 -0.2332  0.1879 -0.1685
  179loPI   C1A 2855   2.431   9.327   9.671  0.0967  0.0256 -0.0175
  179loPI   C2A 2856   2.420   9.550   9.291 -0.0806 -0.1608  0.0569
  179loPI   C3A 2857   2.542   9.725   8.796 -0.0530  0.0352 -0.2244
  179loPI   C4A 2858   2.856   9.623   8.468 -0.1316 -0.1254  0.0792
  179loPI   C5A 2859   2.825   9.347   8.096  0.0736 -0.0586 -0.0983
  179loPI   C6A 2860   3.009   9.302   7.625  0.1035 -0.1453 -0.1765
  179loPI   C1B 2861   2.937   9.241   9.575 -0.1341 -0.0112  0.0652
  179loPI   C2B 2862   2.830   9.221   9.228 -0.1582 -0.1101  0.1502
  179loPI   C3B 2863   2.688   9.295   8.893 -0.0626 -0.4541  0.1249
  179loPI   C4B 2864   2.557   9.235   8.481 -0.0247 -0.1312 -0.2479
  180loPI    C1 2865  11.197   4.592  10.500 -0.3402 -0.0338 -0.2362
  180loPI    C2 2866  10.849   4.542  10.691 -0.1127 -0.1250  0.1666
  180loPI    C3 2867  11.154   4.724  10.875  0.0585 -0.0533 -0.1793
  180loPI   PO4 2868  11.341   4.380  10.367  0.0353 -0.2909 -0.1883
  180loPI   GL1 2869  11.210   4.388   9.926 -0.1827 -0.3823 -0.0508
  180loPI   GL2 2870  11.131   4.686   9.932  0.3455 -0.1413 -0.1138
  180loPI   C1A 2871  11.490   4.426   9.465 -0.2265  0.3397  0.2013
  180loPI   C2A 2872  11.598   4.240   9.048 -0.0109  0.1111 -0.0016
  180loPI   C3A 2873  11.641   4.421   8.619 -0.1302 -0.1069  0.0771
  180loPI   C4A 2874  11.665   4.250   8.214  0.0134 -0.1803 -0.0326
  180loPI   C5A 2875  11.634   3.855   7.996 -0.1335  0.1868 -0.0926
  180loPI   C6A 2876  11.638   3.463   7.813 -0.1389  0.2485  0.1809
  180loPI   C1B 2877  11.064   4.642   9.554  0.1743  0.3124 -0.2136
  180loPI   C2B 2878  11.186   4.765   9.194  0.2501  0.1434  0.2307
  180loPI   C3B 2879  11.525   4.751   8.977 -0.0744  0.2038 -0.4697
  180loPI   C4B 2880  11.905   4.865   8.745  0.0259 -0.1322  0.1782
  181loPI    C1 2881  13.115  17.414  10.511  0.2265 -0.1808 -0.0910
  181loPI    C2 2882  13.376  17.318  10.799  0.0102 -0.1344  0.1233
  181loPI    C3 2883  13.038  17.108  10.757 -0.1426  0.1004  0.1552
  181loPI   PO4 2884  13.185  17.453  10.286  0.2644 -0.1389  0.0448
  181loPI   GL1 2885  13.483  17.416   9.915  0.0995  0.0978  0.0030
  181loPI   GL2 2886  13.689  17.154   9.919 -0.1564  0.0396 -0.0455
  181loPI   C1A 2887  13.691  17.567   9.598  0.1683 -0.4302  0.0649
  181loPI   C2A 2888  13.752  17.480   9.217  0.2966  0.1342 -0.0070
  181loPI   C3A 2889  13.686  17.295   8.784  0.2109  0.2078 -0.4438
  181loPI   C4A 2890  13.789  17.370   8.361  0.1716 -0.2267  0.0277
  181loPI   C5A 2891  13.902  17.142   8.051 -0.4794 -0.1372  0.0918
  181loPI   C6A 2892  14.025  16.761   7.913 -0.0695 -0.0164 -0.1571
  181loPI   C1B 2893  13.585  16.963   9.520  0.1012 -0.0390  0.2613
  181loPI   C2B 2894  13.549  16.820   9.127  0.2308 -0.3089  0.0544
  181loPI   C3B 2895  13.689  16.772   8.733  0.1994 -0.0655 -0.0302
  181loPI   C4B 2896  13.742  16.768   8.341  0.1186 -0.1756  0.0545
  182loPI    C1 2897  10.576  15.177  10.384  0.1549 -0.0964 -0.0863
  182loPI    C2 2898  10.550  15.552  10.522  0.1644 -0.2108  0.2363
  182loPI    C3 2899  10.325  15.264  10.684  0.2445 -0.3681  0.0710
  182loPI   PO4 2900  10.658  15.204  10.175  0.0558  0.0038  0.2521
  182loPI   GL1 2901  10.516  15.275   9.793  0.1023 -0.1325  0.3392
  182loPI   GL2 2902  10.217  15.135   9.779  0.1964  0.1583 -0.0497
  182loPI   C1A 2903  10.450  15.143   9.300  0.0938  0.2885 -0.0328
  182loPI   C2A 2904  10.554  15.127   8.826  0.0712 -0.1780 -0.0127
  182loPI   C3A 2905  10.798  15.230   8.385 -0.0832  0.0390 -0.2061
  182loPI   C4A 2906  10.831  15.364   7.974  0.1513  0.0553 -0.0935
  182loPI   C5A 2907  11.025  15.417   7.649 -0.0758 -0.1427  0.1293
  182loPI   C6A 2908  11.321  15.735   7.540  0.2831 -0.0150 -0.0744
  182loPI   C1B 2909  10.602  14.792   9.630 -0.0454  0.0328  0.1343
  182loPI   C2B 2910  10.948  14.714   9.541 -0.2123  0.0847 -0.1851
  182loPI   C3B 2911  10.893  14.801   9.129 -0.0855  0.0504 -0.2256
  182loPI   C4B 2912  10.964  14.765   8.782  0.0974 -0.0942  0.2035
  183loPI    C1 2913  10.572   7.031  10.702  0.1231 -0.0080  0.0623
  183loPI    C2 2914  10.599   7.008  11.101  0.2073 -0.0227  0.0558
  183loPI    C3 2915  10.871   6.825  10.871  0.0963 -0.1063 -0.0098
  183loPI   PO4 2916  10.323   7.196  10.707  0.0550  0.0672 -0.0671
  183loPI   GL1 2917  10.067   7.446  10.479 -0.1123  0.2611  0.1366
  183loPI   GL2 2918  10.276   7.618  10.293 -0.0411  0.1930 -0.1415
  183loPI   C1A 2919  10.079   7.205  10.031  0.0729 -0.0656 -0.0424
  183loPI   C2A 2920  10.135   7.384   9.665 -0.3913  0.2610  0.1135
  183loPI   C3A 2921  10.312   7.436   9.339 -0.0948 -0.1698  0.0521
  183loPI   C4A 2922  10.657   7.374   9.024 -0.2821 -0.0574 -0.1871
  183loPI   C5A 2923  10.649   7.307   8.674 -0.0725 -0.1772 -0.3353
  183loPI   C6A 2924  10.604   7.476   8.244  0.2854  0.1054 -0.6105
  183loPI   C1B 2925  10.403   7.744   9.860 -0.0606  0.1345  0.0297
  183loPI   C2B 2926  10.513   7.927   9.544 -0.1312 -0.0946  0.3285
  183loPI   C3B 2927  10.569   7.895   9.070 -0.4271 -0.2128 -0.1618
  183loPI   C4B 2928  10.619   7.828   8.635 -0.0659 -0.4261 -0.0973
  184loPI    C1 2929  13.943   9.093  10.537  0.1849 -0.1658 -0.0405
  184loPI    C2 2930  14.216   9.032  10.822  0.2271  0.0962 -0.0226
  184loPI    C3 2931  14.026   9.383  10.799 -0.2053 -0.1272  0.0456
  184loPI   PO4 2932  14.092   9.027  10.359  0.0595 -0.1405  0.0042
  184loPI   GL1 2933  14.101   8.995   9.940  0.3999  0.1723  0.0133
  184loPI   GL2 2934  14.501   8.955   9.951 -0.1626  0.4398 -0.0761
  184loPI   C1A 2935  13.869   8.789   9.602  0.2882  0.0434  0.0877
  184loPI   C2A 2936  13.794   8.785   9.174  0.0165  0.0474  0.1389
  184loPI   C3A 2937  13.938   8.944   8.715  0.2088  0.1129 -0.1566
  184loPI   C4A 2938  14.142   9.053   8.377  0.1908  0.1907  0.0873
  184loPI   C5A 2939  14.343   9.120   8.100  0.1711  0.1429  0.3139
  184loPI   C6A 2940  14.507   8.890   7.857 -0.0280 -0.1354 -0.5027
  184loPI   C1B 2941  14.417   8.878   9.547  0.0853 -0.0275 -0.3726
  184loPI   C2B 2942  14.495   9.019   9.231  0.4148  0.2111 -0.3538
  184loPI   C3B 2943  14.440   9.041   8.754  0.0254 -0.0185  0.0711
  184loPI   C4B 2944  14.396   9.474   8.481 -0.0737  0.0601 -0.2432
  185loPI    C1 2945  15.766  17.854  10.557 -0.0427 -0.1050  0.0287
  185loPI    C2 2946  15.816  18.248  10.609 -0.0247 -0.1096  0.0476
  185loPI    C3 2947  16.075  17.990  10.771  0.0879 -0.1216 -0.1481
  185loPI   PO4 2948  15.783  17.864  10.248  0.0647 -0.1857 -0.0940
  185loPI   GL1 2949  15.940  17.888   9.841  0.1963  0.3197  0.1175
  185loPI   GL2 2950  15.832  18.232   9.899  0.0747 -0.2012 -0.2483
  185loPI   C1A 2951  15.897  17.822   9.383  0.1135  0.1423  0.2390
  185loPI   C2A 2952  16.007  17.655   9.084 -0.1977 -0.1839  0.0022
  185loPI   C3A 2953  16.000  17.436   8.687 -0.0625  0.0632  0.2778
  185loPI   C4A 2954  15.675  17.426   8.419 -0.3995  0.1659 -0.0370
  185loPI   C5A 2955  15.453  17.725   8.224 -0.1001  0.1550  0.1557
  185loPI   C6A 2956  15.232  17.921   7.904  0.0487 -0.2142  0.2700
  185loPI   C1B 2957  15.496  18.176   9.591 -0.2101 -0.2011  0.0881
  185loPI   C2B 2958  15.333  17.836   9.375  0.0902  0.1076  0.1848
  185loPI   C3B 2959  15.345  17.952   8.987  0.1863  0.2701  0.1586
  185loPI   C4B 2960  15.269  18.089   8.526 -0.1887  0.1390  0.0242
  186loPI    C1 2961   8.707  12.881  10.670  0.0561 -0.0930 -0.1270
  186loPI    C2 2962   8.790  13.235  10.504 -0.0190  0.0707  0.1785
  186loPI    C3 2963   8.837  13.183  10.898 -0.3737 -0.1432  0.1966
  186loPI   PO4 2964   8.543  12.728  10.554  0.2972  0.0003  0.1652
  186loPI   GL1 2965   8.631  12.730  10.094  0.5437  0.0282 -0.1488
  186loPI   GL2 2966   8.878  12.911  10.133  0.3001 -0.2751 -0.1169
  186loPI   C1A 2967   8.645  12.720   9.688 -0.0725  0.3735  0.2843
  186loPI   C2A 2968   8.627  12.913   9.238  0.1130 -0.2803  0.0662
  186loPI   C3A 2969   8.667  12.835   8.775  0.2955  0.2202 -0.1973
  186loPI   C4A 2970   8.798  12.786   8.433  0.0233  0.2388  0.3472
  186loPI   C5A 2971   8.729  12.815   7.922 -0.2033  0.0226  0.0753
  186loPI   C6A 2972   8.474  12.548   7.755 -0.0314  0.0191  0.3664
  186loPI   C1B 2973   9.046  13.010   9.750 -0.0302 -0.1615  0.3863
  186loPI   C2B 2974   9.148  13.145   9.315  0.0198  0.1713 -0.0381
  186loPI   C3B 2975   9.127  12.996   8.916  0.2944  0.2796 -0.2894
  186loPI   C4B 2976   9.316  12.894   8.477  0.0536 -0.0544  0.3371
  187loPI    C1 2977   0.745  17.800  10.455 -0.1365 -0.1019 -0.2077
  187loPI    C2 2978   0.803  18.182  10.559 -0.2172 -0.0363 -0.3979
  187loPI    C3 2979   0.436  18.055  10.460 -0.2511 -0.2419 -0.0264
  187loPI   PO4 2980   0.910  17.773  10.283 -0.0116  0.0106 -0.1909
  187loPI   GL1 2981   0.795  17.666   9.917 -0.1713  0.2803  0.0524
  187loPI   GL2 2982   0.585  17.602   9.834  0.0544  0.0272  0.0627
  187loPI   C1A 2983   0.983  17.559   9.613 -0.1256 -0.3610  0.2284
  187loPI   C2A 2984   1.059  17.429   9.225 -0.0735  0.2562 -0.1321
  187loPI   C3A 2985   1.218  17.253   9.024  0.1182  0.1412 -0.0103
  187loPI   C4A 2986   1.373  17.068   8.588  0.3595 -0.0738 -0.0839
  187loPI   C5A 2987   1.367  17.026   8.134 -0.1455  0.3682  0.1631
  187loPI   C6A 2988   1.644  17.306   7.827 -0.0355  0.2216  0.0017
  187loPI   C1B 2989   0.580  17.388   9.379 -0.1945 -0.1173  0.1877
  187loPI   C2B 2990   0.700  17.217   8.968 -0.1503 -0.0699  0.2442
  187loPI   C3B 2991   0.703  17.103   8.533 -0.0674 -0.0122 -0.0159
  187loPI   C4B 2992   0.772  16.928   8.220 -0.2008  0.1178 -0.3183
  188loPI    C1 2993  10.732   7.521  10.603 -0.0012 -0.0551  0.0114
  188loPI    C2 2994  10.973   7.739  10.836  0.1642 -0.1085 -0.1073
  188loPI    C3 2995  10.898   7.357  10.927 -0.0282 -0.0391  0.0335
  188loPI   PO4 2996  10.910   7.612  10.322  0.2417 -0.1663 -0.2918
  188loPI   GL1 2997  11.189   7.766  10.014  0.0542 -0.0543 -0.3649
  188loPI   GL2 2998  11.509   7.846  10.043 -0.1055  0.0712 -0.1291
  188loPI   C1A 2999  11.255   7.973   9.598 -0.0110  0.1559  0.0023
  188loPI   C2A 3000  11.098   8.011   9.228 -0.1242  0.1374 -0.1040
  188loPI   C3A 3001  11.096   7.732   8.829  0.3581 -0.0324  0.2280
  188loPI   C4A 3002  11.185   7.565   8.359  0.0805 -0.0155 -0.1786
  188loPI   C5A 3003  11.268   7.436   7.970  0.2700 -0.0282 -0.0487
  188loPI   C6A 3004  11.349   7.390   7.510 -0.1606  0.2927 -0.0570
  188loPI   C1B 3005  11.500   7.445   9.776 -0.1325 -0.2438 -0.1342
  188loPI   C2B 3006  11.179   7.124   9.671 -0.1157  0.1145 -0.3606
  188loPI   C3B 3007  11.064   6.941  10.004 -0.1344  0.1933 -0.2103
  188loPI   C4B 3008  11.122   6.516   9.885  0.2565 -0.0267 -0.2090
  189loPI    C1 3009  17.038  12.159  10.420  0.1348 -0.0960 -0.1432
  189loPI    C2 3010  16.867  12.340  10.733  0.0151 -0.3281 -0.0720
  189loPI    C3 3011  17.225  12.463  10.602 -0.1605  0.1035 -0.1657
  189loPI   PO4 3012  16.796  12.128  10.197  0.0578 -0.3716  0.0086
  189loPI   GL1 3013  16.713  12.370   9.821  0.2427  0.1248  0.2455
  189loPI   GL2 3014  16.985  12.209   9.670 -0.0791  0.1479 -0.0515
  189loPI   C1A 3015  16.746  12.594   9.537 -0.0426 -0.1370  0.1060
  189loPI   C2A 3016  16.745  12.605   9.149  0.0769  0.0615  0.4955
  189loPI   C3A 3017  16.749  12.648   8.717  0.0547 -0.1301  0.2811
  189loPI   C4A 3018  16.972  12.643   8.292  0.0745  0.0221  0.2059
  189loPI   C5A 3019  17.226  12.806   7.922 -0.0373 -0.2134  0.0067
  189loPI   C6A 3020  17.078  12.671   7.462 -0.0400 -0.3580 -0.0568
  189loPI   C1B 3021  17.158  12.225   9.315  0.3122 -0.0959 -0.0394
  189loPI   C2B 3022  17.144  12.411   8.969  0.0179 -0.2057 -0.2115
  189loPI   C3B 3023  17.278  12.630   8.682  0.2226 -0.0303  0.1188
  189loPI   C4B 3024  17.480  12.438   8.273 -0.2577 -0.1189 -0.0600
  190loPI    C1 3025  13.307  17.837  10.698  0.0966 -0.2066  0.3452
  190loPI    C2 3026  13.277  18.231  10.631  0.2202 -0.2387  0.0899
  190loPI    C3 3027  13.056  18.059  10.916  0.1355  0.0083  0.1754
  190loPI   PO4 3028  13.550  17.848  10.458 -0.3669 -0.0856 -0.4672
  190loPI   GL1 3029  13.465  17.910   9.977 -0.1043 -0.2218 -0.3413
  190loPI   GL2 3030  13.217  17.789   9.817 -0.1570 -0.0301  0.0056
  190loPI   C1A 3031  13.848  18.022   9.594 -0.0644 -0.0026  0.1304
  190loPI   C2A 3032  13.836  18.051   9.167 -0.3236  0.0096 -0.1796
  190loPI   C3A 3033  13.848  17.765   8.772  0.3702  0.0306  0.2491
  190loPI   C4A 3034  13.915  17.832   8.322  0.2343  0.4565 -0.0019
  190loPI   C5A 3035  14.107  17.661   7.884 -0.1376 -0.1109 -0.1976
  190loPI   C6A 3036  14.536  17.767   7.740 -0.0632 -0.2366 -0.3697
  190loPI   C1B 3037  13.379  17.945   9.427  0.0070 -0.0039  0.2077
  190loPI   C2B 3038  13.425  17.829   9.045  0.1159 -0.1069 -0.0715
  190loPI   C3B 3039  13.424  17.992   8.527 -0.0140 -0.0647 -0.0417
  190loPI   C4B 3040  13.499  18.213   8.117  0.0750 -0.0291 -0.1351
  191loPI    C1 3041   3.216  15.557  10.235  0.1004  0.0766 -0.1864
  191loPI    C2 3042   3.442  15.256  10.370  0.0243  0.0671 -0.0793
  191loPI    C3 3043   3.064  15.295  10.496  0.0446  0.2273 -0.0661
  191loPI   PO4 3044   3.256  15.585  10.014 -0.1893 -0.3021 -0.1896
  191loPI   GL1 3045   3.352  15.332   9.657  0.2437 -0.0294  0.2890
  191loPI   GL2 3046   3.223  15.054   9.673 -0.1729 -0.3765  0.1939
  191loPI   C1A 3047   3.379  15.508   9.273  0.0611 -0.1272  0.0671
  191loPI   C2A 3048   3.316  15.505   8.809  0.0972  0.0833 -0.1705
  191loPI   C3A 3049   3.299  15.343   8.409  0.1661  0.1382  0.2720
  191loPI   C4A 3050   3.629  15.485   8.046 -0.0089 -0.0666 -0.3022
  191loPI   C5A 3051   4.045  15.386   7.931  0.1333  0.1128 -0.1460
  191loPI   C6A 3052   4.331  15.104   7.924 -0.2683  0.0400  0.1639
  191loPI   C1B 3053   2.934  15.149   9.315  0.1764 -0.0570  0.1475
  191loPI   C2B 3054   2.918  15.215   8.929  0.0113 -0.1346 -0.3272
  191loPI   C3B 3055   2.805  15.316   8.499  0.0825 -0.0076  0.3787
  191loPI   C4B 3056   2.567  15.219   8.094 -0.1196 -0.1882 -0.1626
  192loPI    C1 3057   2.847  14.057  10.676 -0.1167 -0.0004  0.0012
  192loPI    C2 3058   2.563  14.204  10.916 -0.0057 -0.0795  0.1831
  192loPI    C3 3059   2.915  14.391  10.884  0.0037 -0.1056  0.1331
  192loPI   PO4 3060   2.738  14.021  10.425  0.1848  0.0126 -0.3208
  192loPI   GL1 3061   2.854  13.862  10.036 -0.1888 -0.0204 -0.3143
  192loPI   GL2 3062   3.154  13.921  10.019  0.1282 -0.0391 -0.0686
  192loPI   C1A 3063   2.870  13.579   9.655 -0.0452  0.1837  0.1344
  192loPI   C2A 3064   2.787  13.479   9.277  0.2125  0.0660 -0.1117
  192loPI   C3A 3065   2.719  13.481   8.899 -0.1169 -0.0107 -0.1235
  192loPI   C4A 3066   2.426  13.567   8.578 -0.0524  0.0331 -0.0582
  192loPI   C5A 3067   2.214  13.381   8.272  0.2727 -0.1670  0.1513
  192loPI   C6A 3068   1.941  12.968   8.146 -0.0551 -0.3131 -0.0339
  192loPI   C1B 3069   3.111  14.090   9.557 -0.1059 -0.2532  0.1220
  192loPI   C2B 3070   3.103  13.937   9.084  0.2277  0.0796 -0.1187
  192loPI   C3B 3071   3.120  13.851   8.714  0.0401 -0.1739 -0.0085
  192loPI   C4B 3072   3.234  14.020   8.381  0.0091 -0.1190 -0.0897
  193loPI    C1 3073  14.727   1.276  10.608  0.3150  0.0277  0.1568
  193loPI    C2 3074  14.521   1.581  10.765  0.3686  0.0437  0.1964
  193loPI    C3 3075  14.612   1.264  10.991  0.2016 -0.0598  0.1203
  193loPI   PO4 3076  14.944   1.400  10.354 -0.1882 -0.1408 -0.0407
  193loPI   GL1 3077  14.863   1.461   9.825  0.0470  0.0958  0.0038
  193loPI   GL2 3078  15.054   1.243   9.753  0.3556 -0.2307 -0.0073
  193loPI   C1A 3079  14.795   1.724   9.574  0.2444  0.3578 -0.0220
  193loPI   C2A 3080  14.608   1.791   9.157  0.0451  0.1706  0.1422
  193loPI   C3A 3081  14.544   1.539   8.759  0.0150  0.3416 -0.0155
  193loPI   C4A 3082  14.565   1.601   8.402  0.1368 -0.0381  0.0755
  193loPI   C5A 3083  14.528   1.869   8.075  0.1353  0.1172  0.1308
  193loPI   C6A 3084  14.577   1.993   7.627  0.0931  0.1165 -0.1121
  193loPI   C1B 3085  15.293   1.555   9.390 -0.1313 -0.2318  0.1727
  193loPI   C2B 3086  15.709   1.515   9.080  0.3341 -0.0278 -0.3550
  193loPI   C3B 3087  15.831   1.327   8.758 -0.1564  0.0228 -0.0997
  193loPI   C4B 3088  15.858   1.325   8.231  0.2156  0.1590 -0.1766
  194loPI    C1 3089  11.778  12.446  10.660  0.0522 -0.1924  0.3471
  194loPI    C2 3090  11.496  12.719  10.735  0.0039 -0.1494  0.0210
  194loPI    C3 3091  11.829  12.711  10.956 -0.0543  0.0854  0.1207
  194loPI   PO4 3092  11.754  12.444  10.403  0.2683  0.1589  0.3208
  194loPI   GL1 3093  11.547  12.469  10.013 -0.0742 -0.0759  0.0674
  194loPI   GL2 3094  11.502  12.179  10.031  0.2241 -0.0112 -0.0020
  194loPI   C1A 3095  11.754  12.336   9.612 -0.2975 -0.0835  0.1452
  194loPI   C2A 3096  12.134  12.625   9.448 -0.0192  0.0317  0.0583
  194loPI   C3A 3097  12.300  12.558   9.004  0.2363  0.0565 -0.1870
  194loPI   C4A 3098  12.529  12.398   8.796  0.3027  0.1847  0.0731
  194loPI   C5A 3099  12.630  12.250   8.366 -0.1367  0.1255  0.0501
  194loPI   C6A 3100  12.583  11.838   8.179 -0.3223  0.1601 -0.1594
  194loPI   C1B 3101  11.366  11.963   9.620 -0.0996  0.0556  0.3097
  194loPI   C2B 3102  11.402  11.919   9.145 -0.1719 -0.1130  0.0191
  194loPI   C3B 3103  11.271  11.839   8.678  0.1724 -0.2011  0.0106
  194loPI   C4B 3104  11.123  11.978   8.300  0.0848 -0.2611 -0.3254
  195loPI    C1 3105  10.363   8.808  11.178 -0.0240  0.2215  0.3703
  195loPI    C2 3106  10.020   9.001  11.248 -0.2347 -0.0168  0.0233
  195loPI    C3 3107  10.064   8.622  11.368 -0.0180  0.0731  0.2365
  195loPI   PO4 3108  10.451   8.804  10.886  0.0435  0.0576  0.1656
  195loPI   GL1 3109  10.583   8.731  10.410  0.0456 -0.0141 -0.4014
  195loPI   GL2 3110  10.416   8.490  10.496 -0.1100 -0.4978 -0.0280
  195loPI   C1A 3111  10.780   8.769   9.944  0.0879 -0.1826  0.0643
  195loPI   C2A 3112  10.492   8.790   9.635  0.0309 -0.0067 -0.1300
  195loPI   C3A 3113  10.567   8.813   9.175  0.0664 -0.0454  0.0339
  195loPI   C4A 3114  10.598   8.793   8.759 -0.1638 -0.0576  0.0198
  195loPI   C5A 3115  10.365   8.652   8.425  0.1364  0.0821  0.1790
  195loPI   C6A 3116   9.952   8.441   8.225 -0.0607  0.0204 -0.1492
  195loPI   C1B 3117  10.222   8.792  10.100  0.2210 -0.0033  0.0587
  195loPI   C2B 3118   9.990   8.795   9.670 -0.1072  0.1124 -0.2272
  195loPI   C3B 3119  10.092   8.691   9.323 -0.0218 -0.3281  0.1297
  195loPI   C4B 3120  10.044   8.637   8.836  0.1389  0.1824  0.0314
  196loPI    C1 3121   5.281  17.031  10.309 -0.0297 -0.0560 -0.0829
  196loPI    C2 3122   5.141  16.906  10.663 -0.1366  0.3232  0.0129
  196loPI    C3 3123   5.532  16.883  10.584 -0.1224  0.1655  0.1248
  196loPI   PO4 3124   4.912  17.053  10.231  0.1724  0.2644  0.0437
  196loPI   GL1 3125   4.674  16.904   9.921 -0.0925  0.1235  0.0782
  196loPI   GL2 3126   4.535  16.673   9.716  0.3358  0.5033  0.1053
  196loPI   C1A 3127   4.895  17.068   9.550 -0.0478 -0.1125  0.1682
  196loPI   C2A 3128   4.911  17.275   9.135  0.2983  0.3403 -0.3081
  196loPI   C3A 3129   5.311  17.359   8.844 -0.4527  0.1492  0.0769
  196loPI   C4A 3130   5.519  17.325   8.540 -0.1769 -0.0517 -0.0486
  196loPI   C5A 3131   5.776  17.067   8.246 -0.0426 -0.0208 -0.4525
  196loPI   C6A 3132   5.824  16.686   8.098 -0.3430 -0.1228  0.2869
  196loPI   C1B 3133   4.491  16.811   9.273 -0.1656 -0.0248 -0.0432
  196loPI   C2B 3134   4.536  17.025   8.778  0.3283 -0.2339 -0.2365
  196loPI   C3B 3135   4.841  17.245   8.610 -0.1440  0.2420  0.0434
  196loPI   C4B 3136   5.023  17.217   8.146  0.1102 -0.0409 -0.1613
  197loPI    C1 3137  15.041  11.990  10.399 -0.0975 -0.0091 -0.1516
  197loPI    C2 3138  14.736  11.745  10.316  0.0209 -0.2111  0.0012
  197loPI    C3 3139  14.719  11.985  10.636 -0.1091  0.0083 -0.1670
  197loPI   PO4 3140  15.032  12.091  10.057 -0.0338  0.1261 -0.0206
  197loPI   GL1 3141  15.355  12.093   9.729 -0.1777 -0.1366  0.0582
  197loPI   GL2 3142  15.364  12.441   9.641  0.1010 -0.0287 -0.1934
  197loPI   C1A 3143  15.202  12.062   9.266 -0.1635 -0.0188  0.2163
  197loPI   C2A 3144  15.267  12.100   8.830 -0.0897 -0.0098  0.0882
  197loPI   C3A 3145  15.451  12.201   8.511 -0.2643 -0.1623 -0.3613
  197loPI   C4A 3146  15.602  12.203   8.103 -0.1154 -0.0082  0.1396
  197loPI   C5A 3147  15.676  12.126   7.676  0.1719  0.0805  0.0523
  197loPI   C6A 3148  16.054  12.116   7.585  0.2713 -0.5794  0.0698
  197loPI   C1B 3149  15.356  12.611   9.286 -0.1378  0.3320 -0.1833
  197loPI   C2B 3150  15.530  12.579   8.832  0.3116 -0.0696  0.1149
  197loPI   C3B 3151  15.772  12.542   8.465  0.0187 -0.0170 -0.4785
  197loPI   C4B 3152  16.060  12.407   8.059  0.0893  0.0530 -0.0045
  198loPI    C1 3153  17.405  16.906  10.491  0.2096 -0.2677  0.0263
  198loPI    C2 3154  17.714  16.818  10.729  0.1832 -0.0033  0.1620
  198loPI    C3 3155  17.340  16.755  10.855  0.1750 -0.0895  0.0953
  198loPI   PO4 3156  17.432  16.846  10.244  0.1055 -0.0885 -0.1515
  198loPI   GL1 3157  17.714  16.912   9.898 -0.0162  0.0108  0.1486
  198loPI   GL2 3158  17.587  17.231   9.952  0.1690 -0.1984  0.1257
  198loPI   C1A 3159  17.762  16.883   9.439  0.3943  0.0353 -0.0319
  198loPI   C2A 3160  18.007  16.819   9.081 -0.3417 -0.2834 -0.0696
  198loPI   C3A 3161  18.157  16.955   8.680 -0.0900  0.1360 -0.0775
  198loPI   C4A 3162  18.359  17.451   8.519  0.2925  0.3300 -0.2676
  198loPI   C5A 3163  18.669  17.512   8.776 -0.3275 -0.2883 -0.1771
  198loPI   C6A 3164  18.601  17.680   9.153  0.0024 -0.0267 -0.1427
  198loPI   C1B 3165  17.316  17.273   9.571  0.1575  0.1005 -0.0897
  198loPI   C2B 3166  17.223  17.138   9.164 -0.0794  0.1461 -0.2934
  198loPI   C3B 3167  17.326  17.273   8.738  0.0354  0.4776  0.0689
  198loPI   C4B 3168  17.375  17.439   8.397 -0.2300 -0.0571 -0.1955
  199loPI    C1 3169   4.251   5.079  10.258 -0.1546  0.0183 -0.1007
  199loPI    C2 3170   4.393   5.258  10.586 -0.1921  0.0208 -0.0857
  199loPI    C3 3171   4.049   5.054  10.603 -0.0118 -0.2857 -0.0351
  199loPI   PO4 3172   4.273   5.334  10.071 -0.0612 -0.3640  0.1255
  199loPI   GL1 3173   4.080   5.413   9.688  0.0262 -0.0684  0.1272
  199loPI   GL2 3174   4.123   5.764   9.606  0.0660  0.0757  0.1103
  199loPI   C1A 3175   4.232   5.284   9.248  0.0403  0.3496 -0.1681
  199loPI   C2A 3176   4.400   5.265   8.869 -0.0486  0.2938  0.3188
  199loPI   C3A 3177   4.635   4.921   8.689  0.1959 -0.4930  0.1481
  199loPI   C4A 3178   4.727   4.801   8.233 -0.0447 -0.0272 -0.2720
  199loPI   C5A 3179   4.969   4.719   7.914 -0.1051  0.2349  0.2383
  199loPI   C6A 3180   5.120   4.425   7.598  0.1314 -0.1449  0.3786
  199loPI   C1B 3181   4.399   5.759   9.175 -0.0205  0.1267 -0.0905
  199loPI   C2B 3182   4.295   5.725   8.757  0.1332 -0.3381  0.0467
  199loPI   C3B 3183   4.334   5.827   8.328  0.2531  0.3775 -0.0686
  199loPI   C4B 3184   4.224   5.826   7.905  0.2019 -0.2409 -0.0156
  200loPI    C1 3185  10.744  13.846  10.534 -0.0932 -0.0554  0.0306
  200loPI    C2 3186  10.922  13.768  10.883  0.1639  0.0710 -0.0696
  200loPI    C3 3187  10.527  13.825  10.869  0.1064 -0.2442  0.1510
  200loPI   PO4 3188  10.909  13.754  10.351  0.0103 -0.1017 -0.1414
  200loPI   GL1 3189  11.055  13.715   9.970 -0.0654  0.1654 -0.1454
  200loPI   GL2 3190  10.858  13.551   9.889 -0.1906  0.0226 -0.0815
  200loPI   C1A 3191  11.300  13.704   9.614  0.1098  0.1137 -0.3198
  200loPI   C2A 3192  11.457  13.428   9.309 -0.1437 -0.0541  0.1296
  200loPI   C3A 3193  11.731  13.136   9.166  0.2309  0.0198  0.1300
  200loPI   C4A 3194  12.032  13.039   8.903 -0.1256 -0.3148 -0.1140
  200loPI   C5A 3195  12.319  13.072   8.601 -0.0513 -0.2516 -0.0436
  200loPI   C6A 3196  12.335  13.138   8.124  0.1274 -0.2650  0.0007
  200loPI   C1B 3197  10.933  13.398   9.461  0.2186 -0.0291  0.1769
  200loPI   C2B 3198  10.802  13.343   9.007 -0.0505 -0.3621 -0.2136
  200loPI   C3B 3199  10.824  13.362   8.602 -0.2521  0.3724 -0.1721
  200loPI   C4B 3200  10.793  13.339   8.197 -0.2318  0.0225  0.0860
  201loPI    C1 3201   1.264   7.827  10.609 -0.2409  0.1375  0.0470
  201loPI    C2 3202   1.627   7.707  10.726 -0.1411  0.3004 -0.0911
  201loPI    C3 3203   1.367   7.849  10.995 -0.1221  0.1359  0.0157
  201loPI   PO4 3204   1.319   7.884  10.377  0.2681  0.1219  0.2909
  201loPI   GL1 3205   1.652   7.917  10.039 -0.1723 -0.2088  0.1810
  201loPI   GL2 3206   1.551   7.703   9.911 -0.3092 -0.0996  0.0674
  201loPI   C1A 3207   1.484   8.210   9.657  0.0302 -0.0039  0.1509
  201loPI   C2A 3208   1.356   8.166   9.236  0.1740  0.0958 -0.0921
  201loPI   C3A 3209   1.370   8.089   8.817 -0.0456  0.1507 -0.0557
  201loPI   C4A 3210   1.374   8.240   8.340  0.1818  0.1092 -0.1016
  201loPI   C5A 3211   1.610   8.277   7.951 -0.1398 -0.1008 -0.0124
  201loPI   C6A 3212   1.576   8.148   7.543 -0.3582 -0.0642  0.0613
  201loPI   C1B 3213   1.600   7.679   9.480 -0.1090 -0.1799  0.0606
  201loPI   C2B 3214   1.419   7.640   9.103 -0.2778 -0.0369  0.2132
  201loPI   C3B 3215   1.404   7.629   8.648 -0.0553  0.1608 -0.0291
  201loPI   C4B 3216   1.426   7.770   8.185 -0.0632  0.1794  0.1283
  202loPI    C1 3217  15.440  17.035  10.645 -0.1888 -0.0114  0.1924
  202loPI    C2 3218  15.434  16.719  10.889  0.1301 -0.1194  0.0651
  202loPI    C3 3219  15.254  17.059  10.998 -0.1448 -0.3163  0.2385
  202loPI   PO4 3220  15.445  17.008  10.354 -0.0059  0.2503 -0.3692
  202loPI   GL1 3221  15.277  16.833   9.978  0.0806 -0.1085  0.1759
  202loPI   GL2 3222  14.898  16.739  10.029 -0.2725 -0.0058 -0.2452
  202loPI   C1A 3223  15.476  16.941   9.643 -0.0284  0.3896  0.2001
  202loPI   C2A 3224  15.423  16.941   9.197 -0.3051 -0.0905  0.3162
  202loPI   C3A 3225  15.717  17.016   8.774 -0.1551  0.0066  0.1594
  202loPI   C4A 3226  15.787  16.955   8.374 -0.1270 -0.2451  0.1289
  202loPI   C5A 3227  15.693  17.097   7.996  0.1378 -0.0362 -0.0972
  202loPI   C6A 3228  15.669  17.107   7.588  0.1533  0.0240  0.1572
  202loPI   C1B 3229  14.738  16.508   9.671 -0.3853  0.0335 -0.2325
  202loPI   C2B 3230  14.722  16.435   9.269 -0.2080 -0.1578 -0.3460
  202loPI   C3B 3231  14.781  16.273   8.889  0.0736 -0.1945 -0.1072
  202loPI   C4B 3232  14.872  15.964   8.546  0.2801 -0.0836 -0.1759
  203loPI    C1 3233  12.094  18.171  10.607 -0.0845  0.3139 -0.2290
  203loPI    C2 3234  11.820  18.141  10.896 -0.0141 -0.0563 -0.1960
  203loPI    C3 3235  12.199  18.229  10.988 -0.0443  0.0855 -0.2044
  203loPI   PO4 3236  11.897  18.210  10.426  0.1802 -0.0180 -0.0286
  203loPI   GL1 3237  11.665  18.075   9.976 -0.1448 -0.1606 -0.0232
  203loPI   GL2 3238  11.474  18.128   9.675  0.1113  0.0678  0.2840
  203loPI   C1A 3239  11.901  17.928   9.591  0.0772  0.2076 -0.0472
  203loPI   C2A 3240  12.037  17.961   9.160 -0.1000 -0.0143  0.1033
  203loPI   C3A 3241  12.016  17.846   8.755  0.1635 -0.0094  0.3840
  203loPI   C4A 3242  11.990  17.759   8.274 -0.1329  0.0828 -0.2956
  203loPI   C5A 3243  11.574  17.788   7.948 -0.1178 -0.1296  0.0028
  203loPI   C6A 3244  11.572  18.131   7.711  0.1164  0.1594 -0.0885
  203loPI   C1B 3245  11.560  18.130   9.201  0.2931 -0.2093 -0.1342
  203loPI   C2B 3246  11.624  18.132   8.751 -0.0086  0.2376 -0.1021
  203loPI   C3B 3247  11.877  18.246   8.341  0.0701  0.3417  0.0129
  203loPI   C4B 3248  11.920  18.566   8.002  0.1877 -0.2304  0.0330
  204loPI    C1 3249  18.112   8.280  10.435  0.1868 -0.0560  0.1112
  204loPI    C2 3250  18.101   8.397  10.817  0.1318 -0.0250  0.1003
  204loPI    C3 3251  18.060   8.666  10.524 -0.2285 -0.0996  0.0777
  204loPI   PO4 3252  17.937   8.091  10.411  0.0946 -0.2141  0.0983
  204loPI   GL1 3253  17.708   7.973  10.035 -0.1926 -0.0550 -0.0080
  204loPI   GL2 3254  17.568   7.702  10.001  0.1721 -0.0327  0.2507
  204loPI   C1A 3255  17.735   8.075   9.495 -0.2786  0.0666 -0.0199
  204loPI   C2A 3256  18.029   8.029   9.123 -0.0028 -0.1075  0.0797
  204loPI   C3A 3257  18.079   8.007   8.687 -0.1396 -0.0044 -0.3198
  204loPI   C4A 3258  17.880   8.148   8.330  0.1246 -0.0116 -0.1167
  204loPI   C5A 3259  17.894   8.217   7.904 -0.1394  0.0173  0.3848
  204loPI   C6A 3260  17.951   8.425   7.523  0.1488 -0.1023  0.3174
  204loPI   C1B 3261  17.495   7.625   9.611 -0.0899  0.0873  0.0697
  204loPI   C2B 3262  17.604   7.759   9.123  0.1003  0.1558  0.1799
  204loPI   C3B 3263  17.594   7.825   8.676 -0.0472  0.0488 -0.3463
  204loPI   C4B 3264  17.504   7.849   8.303  0.0096 -0.2495 -0.0052
  205loPI    C1 3265  12.944  14.423  10.332 -0.0118  0.1499 -0.0988
  205loPI    C2 3266  13.155  14.760  10.375  0.1250  0.0382  0.1227
  205loPI    C3 3267  13.082  14.528  10.693 -0.1600 -0.0284  0.0116
  205loPI   PO4 3268  12.756  14.497  10.203  0.4008 -0.1526 -0.0175
  205loPI   GL1 3269  12.531  14.684   9.901 -0.2685 -0.0102 -0.1694
  205loPI   GL2 3270  12.586  14.966   9.685  0.2335 -0.2196 -0.2775
  205loPI   C1A 3271  12.770  14.428   9.519  0.0843  0.1004 -0.2506
  205loPI   C2A 3272  12.898  14.208   9.212  0.1697 -0.1049 -0.1315
  205loPI   C3A 3273  12.915  14.367   8.896  0.0535 -0.1488  0.1541
  205loPI   C4A 3274  12.993  14.654   8.528 -0.3211 -0.1773  0.1296
  205loPI   C5A 3275  13.294  14.735   8.260  0.2072  0.0563 -0.0842
  205loPI   C6A 3276  13.635  14.485   8.168  0.0852 -0.0981 -0.0998
  205loPI   C1B 3277  12.670  14.883   9.247 -0.1359  0.2049  0.1837
  205loPI   C2B 3278  12.846  14.956   8.908  0.2393  0.0317  0.0140
  205loPI   C3B 3279  12.637  15.007   8.520 -0.0976 -0.2002  0.3521
  205loPI   C4B 3280  12.241  15.125   8.494 -0.1433  0.0355  0.0865
  206loPI    C1 3281   7.209   3.197  10.285 -0.1735 -0.2425 -0.3216
  206loPI    C2 3282   6.962   3.186  10.600  0.3437  0.2345  0.1234
  206loPI    C3 3283   7.176   2.862  10.501  0.2178  0.0971  0.2947
  206loPI   PO4 3284   7.092   3.261  10.084  0.2944  0.0168 -0.0966
  206loPI   GL1 3285   7.114   3.243   9.715  0.0195  0.0757  0.0125
  206loPI   GL2 3286   6.817   3.251   9.667  0.1731 -0.0137  0.2020
  206loPI   C1A 3287   7.443   3.585   9.576 -0.0592 -0.0789  0.0532
  206loPI   C2A 3288   7.453   3.729   9.151  0.0655  0.0462  0.0706
  206loPI   C3A 3289   7.466   3.861   8.739 -0.0200  0.2549  0.1237
  206loPI   C4A 3290   7.439   3.711   8.298 -0.1879 -0.2620 -0.0447
  206loPI   C5A 3291   7.502   4.000   8.045  0.2279 -0.2576  0.2293
  206loPI   C6A 3292   7.526   4.186   7.704  0.1048 -0.0038 -0.2527
  206loPI   C1B 3293   6.988   3.604   9.335  0.0610 -0.1187 -0.0473
  206loPI   C2B 3294   6.993   3.660   8.906 -0.1801 -0.2320  0.0929
  206loPI   C3B 3295   6.873   3.643   8.440 -0.0860 -0.1547 -0.0150
  206loPI   C4B 3296   6.890   3.225   8.150 -0.0763 -0.3738  0.0578
  207loPI    C1 3297  17.740   2.800  10.379  0.0381 -0.2419 -0.1415
  207loPI    C2 3298  17.554   2.735  10.727 -0.0526  0.0009 -0.1426
  207loPI    C3 3299  17.952   2.701  10.703 -0.0376  0.0626  0.0055
  207loPI   PO4 3300  17.608   2.632  10.194 -0.0267 -0.3111  0.2604
  207loPI   GL1 3301  17.333   2.327   9.973  0.0031 -0.2661  0.0291
  207loPI   GL2 3302  17.127   2.094   9.982  0.0576  0.2010  0.0696
  207loPI   C1A 3303  17.469   2.463   9.569 -0.1207 -0.1183 -0.1794
  207loPI   C2A 3304  17.389   2.447   9.149  0.2195 -0.0878 -0.0103
  207loPI   C3A 3305  17.374   2.407   8.815  0.2006  0.2826  0.2166
  207loPI   C4A 3306  17.379   2.446   8.347  0.0895 -0.0101  0.3506
  207loPI   C5A 3307  17.326   2.481   7.913  0.0159 -0.2586  0.2353
  207loPI   C6A 3308  17.561   2.853   7.699  0.0377 -0.0185  0.0081
  207loPI   C1B 3309  17.089   2.153   9.463 -0.0051 -0.2121  0.1276
  207loPI   C2B 3310  17.237   1.987   9.080  0.0732  0.0832  0.2429
  207loPI   C3B 3311  17.175   1.964   8.644  0.0682 -0.1067 -0.3447
  207loPI   C4B 3312  17.096   1.965   8.259 -0.2142  0.1830 -0.0247
  208loPI    C1 3313  12.819  15.951  10.435  0.0229 -0.0542  0.0157
  208loPI    C2 3314  12.799  16.245  10.706 -0.0359 -0.0552  0.0128
  208loPI    C3 3315  12.943  15.886  10.810  0.1094 -0.0025 -0.0037
  208loPI   PO4 3316  12.881  16.029  10.215 -0.0530  0.0363  0.3128
  208loPI   GL1 3317  13.214  15.901  10.045  0.4759 -0.0671  0.0704
  208loPI   GL2 3318  13.248  15.661   9.771 -0.0998 -0.1352 -0.0154
  208loPI   C1A 3319  12.926  15.969   9.557  0.1967  0.1490 -0.2892
  208loPI   C2A 3320  12.925  15.948   9.157 -0.1719  0.4067 -0.1641
  208loPI   C3A 3321  12.836  15.965   8.653  0.1688 -0.0604 -0.1346
  208loPI   C4A 3322  12.738  16.323   8.449  0.0057  0.2042 -0.1085
  208loPI   C5A 3323  12.593  16.362   8.083  0.1563  0.0214 -0.0458
  208loPI   C6A 3324  12.430  16.730   7.850  0.0648  0.3498  0.0490
  208loPI   C1B 3325  13.270  15.664   9.430 -0.3077  0.3302  0.0812
  208loPI   C2B 3326  13.584  15.556   9.188  0.2623 -0.1121  0.2068
  208loPI   C3B 3327  13.613  15.396   8.749  0.0547  0.4233  0.0702
  208loPI   C4B 3328  13.346  15.089   8.598  0.0300 -0.0196  0.2192
  209loPI    C1 3329  14.823   9.599  10.242 -0.0117  0.1537 -0.1460
  209loPI    C2 3330  14.989   9.914  10.060  0.3416  0.1190  0.1039
  209loPI    C3 3331  15.133   9.788  10.411 -0.1235 -0.0113  0.2556
  209loPI   PO4 3332  14.763   9.419  10.045 -0.1204  0.1775 -0.0952
  209loPI   GL1 3333  14.786   9.449   9.639  0.0545  0.1348 -0.1647
  209loPI   GL2 3334  14.955   9.087   9.617 -0.2622 -0.0042  0.2016
  209loPI   C1A 3335  14.954   9.370   9.213 -0.0141 -0.1609 -0.1581
  209loPI   C2A 3336  15.004   9.067   8.933  0.1412 -0.2109 -0.0476
  209loPI   C3A 3337  15.339   8.832   8.680 -0.2413 -0.0771  0.1656
  209loPI   C4A 3338  15.526   8.639   8.322 -0.2250  0.1810  0.1058
  209loPI   C5A 3339  15.575   8.269   8.150  0.0962  0.0511  0.0874
  209loPI   C6A 3340  15.359   8.030   7.833  0.1500  0.0580 -0.1663
  209loPI   C1B 3341  15.086   8.756   9.303  0.2469  0.0249  0.1132
  209loPI   C2B 3342  15.381   8.603   9.154 -0.2866  0.0249 -0.1318
  209loPI   C3B 3343  15.613   8.249   9.155  0.1037  0.2000 -0.2941
  209loPI   C4B 3344  15.795   7.946   8.958  0.1041  0.3727 -0.0035
  210loPI    C1 3345  15.551   9.761  10.198  0.1390  0.0845 -0.0268
  210loPI    C2 3346  15.920   9.610  10.235  0.0677 -0.1036 -0.0725
  210loPI    C3 3347  15.624   9.474  10.467  0.0298  0.0580 -0.0251
  210loPI   PO4 3348  15.540   9.774  10.005  0.1116  0.1443  0.1444
  210loPI   GL1 3349  15.244   9.629   9.662 -0.1408 -0.1540  0.0460
  210loPI   GL2 3350  15.493   9.685   9.529  0.0775 -0.0295 -0.3346
  210loPI   C1A 3351  15.010   9.962   9.540  0.0440  0.2475 -0.1831
  210loPI   C2A 3352  14.734  10.193   9.346  0.1460 -0.3104  0.0698
  210loPI   C3A 3353  14.538  10.157   8.947 -0.1690 -0.0857  0.0799
  210loPI   C4A 3354  14.446   9.963   8.526  0.3849 -0.0421  0.2446
  210loPI   C5A 3355  14.053   9.780   8.352 -0.0320  0.0478 -0.0055
  210loPI   C6A 3356  13.652   9.793   8.235  0.4878 -0.3129  0.1301
  210loPI   C1B 3357  15.440   9.673   9.167 -0.0011  0.0481 -0.0629
  210loPI   C2B 3358  15.271   9.583   8.772 -0.3495 -0.4465  0.0519
  210loPI   C3B 3359  15.029   9.378   8.526  0.0873 -0.1020 -0.0630
  210loPI   C4B 3360  14.894   8.985   8.486  0.0927  0.1231 -0.3174
  211loPI    C1 3361   9.298   1.099  10.035 -0.1025  0.0269  0.1870
  211loPI    C2 3362   9.131   0.880  10.325  0.1696 -0.5212 -0.0547
  211loPI    C3 3363   9.513   0.818  10.222  0.2660  0.1022 -0.1109
  211loPI   PO4 3364   9.178   1.266   9.967 -0.1797 -0.0570  0.1125
  211loPI   GL1 3365   9.022   1.246   9.574  0.0070 -0.0816  0.0517
  211loPI   GL2 3366   9.419   1.326   9.541  0.2913  0.0304 -0.2407
  211loPI   C1A 3367   8.868   1.564   9.196 -0.1559  0.3077  0.0219
  211loPI   C2A 3368   9.037   1.543   8.847 -0.0983  0.2098  0.3879
  211loPI   C3A 3369   9.004   1.432   8.341 -0.1813 -0.0886 -0.1495
  211loPI   C4A 3370   9.060   1.361   7.975  0.1763 -0.2682 -0.4305
  211loPI   C5A 3371   8.993   1.558   7.596  0.2014 -0.6068 -0.0072
  211loPI   C6A 3372   9.155   1.914   7.304  0.0680  0.2202 -0.0129
  211loPI   C1B 3373   9.373   1.134   9.168  0.0131  0.0950  0.0919
  211loPI   C2B 3374   9.258   1.098   8.733  0.3535 -0.2686  0.0868
  211loPI   C3B 3375   8.915   0.872   8.486 -0.2956  0.1583 -0.1771
  211loPI   C4B 3376   8.686   1.047   8.306 -0.0214 -0.0276 -0.2142
  212loPI    C1 3377   0.499  10.426  10.696 -0.0411 -0.0995  0.0759
  212loPI    C2 3378   0.351  10.274  11.035 -0.2262 -0.1832 -0.0406
  212loPI    C3 3379   0.265  10.650  10.932  0.0215 -0.0800  0.1195
  212loPI   PO4 3380   0.402  10.228  10.508 -0.1325  0.2272  0.0106
  212loPI   GL1 3381   0.659  10.148  10.124  0.1300 -0.1211  0.1384
  212loPI   GL2 3382   0.468   9.902   9.995 -0.2169 -0.0076  0.1884
  212loPI   C1A 3383   0.822  10.455   9.905  0.0421 -0.1094 -0.1805
  212loPI   C2A 3384   0.830  10.548   9.519 -0.1674  0.1479  0.2664
  212loPI   C3A 3385   0.831  10.554   9.067  0.1147 -0.0728 -0.0307
  212loPI   C4A 3386   0.964  10.593   8.613 -0.0220  0.2266  0.0663
  212loPI   C5A 3387   1.109  10.780   8.216  0.3613 -0.0847 -0.0055
  212loPI   C6A 3388   0.797  10.765   7.861  0.1101 -0.0546 -0.0009
  212loPI   C1B 3389   0.314   9.850   9.537  0.2668 -0.1283  0.3007
  212loPI   C2B 3390   0.321   9.721   9.056 -0.0408 -0.0161  0.1370
  212loPI   C3B 3391   0.287   9.711   8.583 -0.0569 -0.0010  0.1357
  212loPI   C4B 3392   0.234   9.733   8.120 -0.0667 -0.0637 -0.0835
  213loPI    C1 3393  14.744   2.095  10.609 -0.1632 -0.1400  0.0358
  213loPI    C2 3394  14.957   2.307  10.345  0.0265 -0.2264  0.1176
  213loPI    C3 3395  14.629   2.465  10.509  0.1571 -0.0009  0.1664
  213loPI   PO4 3396  14.768   1.894  10.455  0.3367 -0.1129 -0.0750
  213loPI   GL1 3397  14.986   1.934   9.976 -0.0330  0.0994 -0.0672
  213loPI   GL2 3398  14.775   2.138   9.875  0.1054 -0.0634  0.0488
  213loPI   C1A 3399  15.185   2.003   9.573 -0.0209 -0.0549 -0.2853
  213loPI   C2A 3400  15.116   1.977   9.077  0.0177  0.1352  0.0080
  213loPI   C3A 3401  15.129   1.994   8.576 -0.1205 -0.1370 -0.1765
  213loPI   C4A 3402  15.093   1.820   8.201 -0.1070 -0.0537  0.4687
  213loPI   C5A 3403  15.006   1.552   7.909 -0.1653  0.0176 -0.0933
  213loPI   C6A 3404  15.075   1.263   7.644  0.4132 -0.3173 -0.2139
  213loPI   C1B 3405  14.718   2.222   9.410 -0.0832 -0.0841 -0.1149
  213loPI   C2B 3406  14.758   2.261   8.915 -0.1092 -0.0759 -0.3179
  213loPI   C3B 3407  14.695   2.190   8.486  0.0974  0.2341  0.2457
  213loPI   C4B 3408  14.318   2.291   8.189 -0.0089 -0.1412  0.0790
  214loPI    C1 3409   3.361  17.173  10.448 -0.1598 -0.2429 -0.0210
  214loPI    C2 3410   3.364  16.960  10.786 -0.0950 -0.0859  0.0786
  214loPI    C3 3411   3.225  17.335  10.788 -0.2760 -0.1505 -0.1107
  214loPI   PO4 3412   3.344  17.003  10.299 -0.1499 -0.0518 -0.0398
  214loPI   GL1 3413   3.057  16.938  10.104 -0.0354  0.1204 -0.1040
  214loPI   GL2 3414   2.857  17.302  10.039 -0.0902 -0.1965  0.0749
  214loPI   C1A 3415   2.988  16.689   9.807 -0.1422 -0.0261 -0.1354
  214loPI   C2A 3416   2.961  16.572   9.411 -0.1558  0.2980  0.1844
  214loPI   C3A 3417   3.080  16.566   8.975 -0.1718 -0.0385 -0.3679
  214loPI   C4A 3418   3.215  16.446   8.585 -0.1939 -0.3495 -0.1800
  214loPI   C5A 3419   3.280  16.595   8.155 -0.0757 -0.0248 -0.1429
  214loPI   C6A 3420   3.206  16.455   7.726 -0.3267 -0.0563  0.1440
  214loPI   C1B 3421   3.078  17.192   9.687 -0.0653  0.1887 -0.1755
  214loPI   C2B 3422   3.285  17.314   9.310 -0.0483 -0.1458  0.2141
  214loPI   C3B 3423   3.184  17.470   8.866  0.0081 -0.1630 -0.1295
  214loPI   C4B 3424   3.362  17.416   8.456  0.1116  0.3164  0.3279
  215loPI    C1 3425   2.440   4.286  10.474  0.1615 -0.0700 -0.1240
  215loPI    C2 3426   2.246   4.539  10.716  0.0526 -0.2393 -0.0322
  215loPI    C3 3427   2.616   4.417  10.809  0.0486 -0.2279 -0.0013
  215loPI   PO4 3428   2.301   4.129  10.396  0.2134 -0.0337  0.0036
  215loPI   GL1 3429   2.220   4.079  10.030 -0.2794 -0.1706  0.0869
  215loPI   GL2 3430   2.075   4.275   9.785  0.1036 -0.0325 -0.0035
  215loPI   C1A 3431   2.366   3.848   9.612 -0.0581 -0.0161 -0.0381
  215loPI   C2A 3432   2.315   3.620   9.194 -0.0571 -0.0168 -0.0969
  215loPI   C3A 3433   2.261   3.468   8.788 -0.0390 -0.0296 -0.1478
  215loPI   C4A 3434   2.487   3.555   8.363  0.2269  0.2607 -0.1457
  215loPI   C5A 3435   2.611   3.945   8.212 -0.0735 -0.0302 -0.0409
  215loPI   C6A 3436   2.263   4.135   8.034  0.1615 -0.0517  0.1493
  215loPI   C1B 3437   1.959   4.235   9.426 -0.2806 -0.0379 -0.1961
  215loPI   C2B 3438   1.804   4.324   9.019  0.1498 -0.2612 -0.3750
  215loPI   C3B 3439   1.974   4.381   8.658  0.1133 -0.0223  0.0077
  215loPI   C4B 3440   1.986   4.576   8.301 -0.1966 -0.1397  0.0122
  216loPI    C1 3441   3.950  12.764  10.598  0.2473  0.2301  0.1240
  216loPI    C2 3442   3.900  12.626  10.970 -0.0609  0.1354  0.0498
  216loPI    C3 3443   3.584  12.751  10.759  0.1161  0.2173 -0.1697
  216loPI   PO4 3444   4.250  12.782  10.612  0.3628 -0.2139 -0.1507
  216loPI   GL1 3445   4.340  12.699  10.170  0.0349 -0.1338 -0.1068
  216loPI   GL2 3446   4.470  12.881   9.910  0.0219 -0.0129  0.1283
  216loPI   C1A 3447   4.367  12.487   9.736  0.0405  0.1716 -0.2193
  216loPI   C2A 3448   4.244  12.513   9.310 -0.4025  0.0075 -0.0154
  216loPI   C3A 3449   4.291  12.358   9.055 -0.0960 -0.3448  0.0439
  216loPI   C4A 3450   4.252  12.504   8.662  0.1905 -0.0725  0.3446
  216loPI   C5A 3451   4.072  12.278   8.396 -0.3658 -0.1629  0.0742
  216loPI   C6A 3452   4.273  11.864   8.271  0.0755  0.0023 -0.1736
  216loPI   C1B 3453   4.443  12.937   9.479  0.2683  0.1464 -0.3199
  216loPI   C2B 3454   4.441  12.878   8.964 -0.2497 -0.1109  0.2803
  216loPI   C3B 3455   4.441  12.964   8.534 -0.4917  0.0268  0.1612
  216loPI   C4B 3456   4.394  13.112   8.143  0.0306 -0.2512 -0.1373
  217loPI    C1 3457   0.319   6.608  10.625 -0.2052 -0.0047 -0.0622
  217loPI    C2 3458   0.390   6.446  10.984 -0.0732 -0.0706 -0.1175
  217loPI    C3 3459   0.532   6.810  10.897  0.0589 -0.1335 -0.1690
  217loPI   PO4 3460   0.069   6.496  10.511 -0.1655 -0.1049 -0.0194
  217loPI   GL1 3461  -0.035   6.305  10.183 -0.2136 -0.3329 -0.1463
  217loPI   GL2 3462   0.097   6.029   9.986 -0.0622  0.1252  0.0889
  217loPI   C1A 3463  -0.221   6.401   9.809  0.0550 -0.2039  0.0712
  217loPI   C2A 3464  -0.144   6.485   9.340 -0.0031  0.1647 -0.2121
  217loPI   C3A 3465  -0.204   6.438   8.812  0.0490 -0.0145 -0.0262
  217loPI   C4A 3466  -0.309   6.549   8.380 -0.1544  0.0231  0.0452
  217loPI   C5A 3467  -0.545   6.541   8.049 -0.1794 -0.2538 -0.0194
  217loPI   C6A 3468  -0.514   6.406   7.629  0.2301  0.0202 -0.1349
  217loPI   C1B 3469  -0.040   5.946   9.548  0.2751 -0.2419 -0.2311
  217loPI   C2B 3470  -0.119   6.011   9.151  0.0504  0.0795 -0.1441
  217loPI   C3B 3471  -0.052   5.915   8.820  0.2330  0.5083  0.1175
  217loPI   C4B 3472   0.305   5.851   8.423 -0.2136 -0.3403 -0.0373
  218loPI    C1 3473  15.318   3.059  10.393  0.1172 -0.1623 -0.0614
  218loPI    C2 3474  15.018   2.794  10.416  0.0772 -0.1075  0.0587
  218loPI    C3 3475  15.345   2.747  10.642  0.2523 -0.2827 -0.2247
  218loPI   PO4 3476  15.289   3.112  10.087 -0.0374 -0.0056 -0.0233
  218loPI   GL1 3477  15.172   3.048   9.644 -0.1807 -0.0865  0.0312
  218loPI   GL2 3478  15.565   3.014   9.665  0.0761  0.3902 -0.0734
  218loPI   C1A 3479  15.185   3.041   9.247  0.1955  0.0520  0.0736
  218loPI   C2A 3480  15.092   2.991   8.851 -0.0898 -0.0012 -0.0670
  218loPI   C3A 3481  15.241   3.084   8.443  0.2425 -0.1694  0.0137
  218loPI   C4A 3482  15.589   3.139   8.161  0.0621 -0.2562  0.1858
  218loPI   C5A 3483  15.901   2.983   7.894 -0.1060  0.0367 -0.0686
  218loPI   C6A 3484  16.339   2.733   7.750 -0.0520 -0.0225 -0.1684
  218loPI   C1B 3485  15.649   2.751   9.361  0.0004  0.1852 -0.2078
  218loPI   C2B 3486  15.887   2.568   9.042 -0.2091  0.1868  0.0682
  218loPI   C3B 3487  16.039   2.398   8.703 -0.1420 -0.0452  0.0374
  218loPI   C4B 3488  16.440   2.097   8.622 -0.2447 -0.0807  0.0056
  219loPI    C1 3489  14.103  10.816  10.566  0.2954  0.1755  0.0756
  219loPI    C2 3490  13.979  10.916  10.933  0.1642  0.0832  0.0574
  219loPI    C3 3491  14.229  10.608  10.883  0.1841  0.0973  0.0693
  219loPI   PO4 3492  14.186  11.031  10.456 -0.3763 -0.0816  0.0916
  219loPI   GL1 3493  14.054  11.142   9.984 -0.0677  0.1058 -0.1810
  219loPI   GL2 3494  14.379  11.081   9.925 -0.2472 -0.2193  0.0747
  219loPI   C1A 3495  13.853  11.145   9.623  0.1357 -0.1037  0.1305
  219loPI   C2A 3496  13.794  11.162   9.217  0.1461 -0.2007 -0.0468
  219loPI   C3A 3497  13.891  11.252   8.856 -0.0233  0.0336 -0.0856
  219loPI   C4A 3498  13.811  11.458   8.460  0.0023 -0.0982  0.0590
  219loPI   C5A 3499  13.770  11.903   8.314 -0.0400 -0.2138  0.2972
  219loPI   C6A 3500  13.653  12.263   8.561  0.3122  0.0074  0.0042
  219loPI   C1B 3501  14.280  10.943   9.475  0.1713  0.2042  0.2459
  219loPI   C2B 3502  14.328  11.040   9.099 -0.2048  0.1345 -0.2324
  219loPI   C3B 3503  14.264  11.022   8.620 -0.1361 -0.2906 -0.2584
  219loPI   C4B 3504  14.079  11.005   8.317  0.2763  0.0146  0.0743
  220loPI    C1 3505  11.435  15.866  10.765  0.0189  0.4344 -0.1130
  220loPI    C2 3506  11.206  15.713  11.055  0.0743  0.2849 -0.1472
  220loPI    C3 3507  11.550  15.896  11.147  0.1032  0.2174 -0.1202
  220loPI   PO4 3508  11.286  15.908  10.612 -0.1782  0.3421 -0.2237
  220loPI   GL1 3509  11.341  16.148  10.227  0.0239  0.0950 -0.3720
  220loPI   GL2 3510  11.070  16.236  10.075 -0.1807  0.0727  0.2873
  220loPI   C1A 3511  11.449  16.003   9.882  0.1188  0.0257 -0.3627
  220loPI   C2A 3512  11.450  16.173   9.385  0.1077 -0.0739 -0.1604
  220loPI   C3A 3513  11.580  16.433   9.013 -0.0568  0.0254 -0.0763
  220loPI   C4A 3514  11.566  16.592   8.671  0.1808  0.3558  0.3953
  220loPI   C5A 3515  11.610  16.443   8.250 -0.1660  0.1599 -0.3119
  220loPI   C6A 3516  11.361  16.141   7.917 -0.2888 -0.2838 -0.1161
  220loPI   C1B 3517  10.974  16.329   9.596  0.0412 -0.2570  0.1218
  220loPI   C2B 3518  10.980  16.436   9.179  0.0157  0.0388 -0.0209
  220loPI   C3B 3519  11.048  16.508   8.803 -0.1380 -0.0023  0.4239
  220loPI   C4B 3520  11.126  16.780   8.532  0.3436 -0.3226  0.0670
  221loPI    C1 3521  16.385  17.252  10.513  0.1158  0.1291 -0.1328
  221loPI    C2 3522  16.156  17.016  10.742  0.1434  0.2006 -0.0308
  221loPI    C3 3523  16.510  17.143  10.877  0.3564 -0.1104 -0.2839
  221loPI   PO4 3524  16.306  17.088  10.281 -0.2053  0.1205 -0.0580
  221loPI   GL1 3525  16.371  16.982   9.893 -0.1009 -0.1098  0.1827
  221loPI   GL2 3526  16.273  16.665   9.791  0.0809  0.0271  0.1391
  221loPI   C1A 3527  16.570  17.109   9.665 -0.0579 -0.1594  0.3838
  221loPI   C2A 3528  16.784  17.023   9.330  0.1089 -0.0196 -0.1446
  221loPI   C3A 3529  16.801  17.140   8.904  0.0396 -0.2088  0.1301
  221loPI   C4A 3530  16.905  17.320   8.453 -0.2843  0.3232  0.1306
  221loPI   C5A 3531  16.977  17.708   8.353 -0.2633 -0.1042 -0.0138
  221loPI   C6A 3532  17.021  18.118   8.223  0.2114  0.0405 -0.3786
  221loPI   C1B 3533  16.381  16.745   9.332  0.1778 -0.0123  0.0501
  221loPI   C2B 3534  16.503  16.725   8.897  0.1427  0.0964 -0.1008
  221loPI   C3B 3535  16.295  16.727   8.530 -0.0597 -0.2196  0.2180
  221loPI   C4B 3536  16.221  16.860   8.144 -0.0275  0.1102  0.0051
  222loPI    C1 3537   6.650  13.554  10.374 -0.0658 -0.0464  0.1295
  222loPI    C2 3538   6.652  13.166  10.277 -0.0469 -0.0052 -0.0377
  222loPI    C3 3539   6.993  13.348  10.383 -0.0562 -0.0348  0.0433
  222loPI   PO4 3540   6.583  13.675  10.165  0.5016  0.1728 -0.1849
  222loPI   GL1 3541   6.792  13.786   9.629  0.0218  0.1156 -0.0291
  222loPI   GL2 3542   6.660  13.749   9.417  0.1160 -0.1239  0.0784
  222loPI   C1A 3543   7.175  13.946   9.519  0.2172 -0.0375  0.0358
  222loPI   C2A 3544   7.221  13.814   9.160 -0.1988 -0.3115 -0.0621
  222loPI   C3A 3545   6.980  13.759   8.735  0.0385  0.3314 -0.2752
  222loPI   C4A 3546   6.918  13.806   8.265 -0.0728  0.1120  0.3946
  222loPI   C5A 3547   6.751  13.554   8.007 -0.2414  0.0838  0.2719
  222loPI   C6A 3548   6.560  13.660   7.573 -0.0586  0.1063 -0.2078
  222loPI   C1B 3549   6.581  13.710   9.069  0.1353  0.0832  0.1676
  222loPI   C2B 3550   6.483  13.635   8.769 -0.1827 -0.2715 -0.0240
  222loPI   C3B 3551   6.439  13.579   8.409 -0.0188 -0.1031 -0.2441
  222loPI   C4B 3552   6.301  13.682   8.017  0.0596 -0.3197 -0.2680
  223loPI    C1 3553   0.381  14.328  10.821 -0.0214  0.0136  0.1419
  223loPI    C2 3554   0.014  14.221  10.940 -0.0021 -0.2447 -0.0244
  223loPI    C3 3555   0.336  14.072  11.126  0.0210 -0.2068 -0.0343
  223loPI   PO4 3556   0.420  14.227  10.599  0.2160 -0.2282  0.4597
  223loPI   GL1 3557   0.396  14.298  10.180  0.1971 -0.3520 -0.0278
  223loPI   GL2 3558   0.504  14.545  10.022 -0.0075 -0.0140  0.1471
  223loPI   C1A 3559   0.137  14.143   9.909  0.0213 -0.1411  0.0432
  223loPI   C2A 3560  -0.020  14.115   9.459  0.0670  0.0862 -0.1430
  223loPI   C3A 3561  -0.045  13.939   9.079 -0.2861 -0.2993 -0.1750
  223loPI   C4A 3562   0.078  14.007   8.645  0.1230 -0.1328  0.1028
  223loPI   C5A 3563   0.127  14.127   8.143  0.3402 -0.5970 -0.0109
  223loPI   C6A 3564   0.344  14.400   7.960 -0.4044 -0.1181 -0.1657
  223loPI   C1B 3565   0.330  14.461   9.638  0.0661 -0.3346 -0.0616
  223loPI   C2B 3566   0.325  14.328   9.145 -0.1106  0.0815 -0.1986
  223loPI   C3B 3567   0.462  14.373   8.702  0.2250  0.0396  0.0285
  223loPI   C4B 3568   0.495  14.023   8.428  0.2930 -0.0302 -0.1231
  224loPI    C1 3569   9.324   7.607  11.079  0.2337 -0.0324 -0.0958
  224loPI    C2 3570   9.158   7.894  11.304  0.1380  0.0513 -0.2713
  224loPI    C3 3571   9.554   7.841  11.308  0.1205 -0.0767  0.0651
  224loPI   PO4 3572   9.070   7.714  10.810 -0.2130 -0.1054  0.0214
  224loPI   GL1 3573   8.866   7.772  10.497 -0.0158 -0.0971 -0.0787
  224loPI   GL2 3574   8.860   7.447  10.384  0.1192 -0.2549 -0.1816
  224loPI   C1A 3575   8.715   8.011  10.098  0.0374 -0.0096 -0.1398
  224loPI   C2A 3576   8.726   8.212   9.686  0.0143  0.1956  0.1096
  224loPI   C3A 3577   8.600   8.463   9.374  0.2783  0.0071 -0.3208
  224loPI   C4A 3578   8.477   8.540   9.027 -0.3138 -0.0221  0.1417
  224loPI   C5A 3579   8.464   8.410   8.584 -0.4599 -0.1539 -0.1420
  224loPI   C6A 3580   8.516   8.041   8.181  0.0608  0.1530 -0.0012
  224loPI   C1B 3581   8.826   7.534   9.955  0.2483  0.0211 -0.1474
  224loPI   C2B 3582   8.886   7.774   9.606  0.3020 -0.0422  0.1658
  224loPI   C3B 3583   8.832   7.993   9.270  0.1877  0.1418 -0.0342
  224loPI   C4B 3584   8.861   7.985   8.784  0.2951  0.1439 -0.1473
  225loPI    C1 3585   3.815  10.780  10.763 -0.1229  0.0626  0.0207
  225loPI    C2 3586   4.068  10.815  11.071 -0.0698  0.1840 -0.0363
  225loPI    C3 3587   3.863  11.134  10.943 -0.2089  0.0991 -0.0272
  225loPI   PO4 3588   3.973  10.638  10.592  0.0554 -0.1821 -0.0034
  225loPI   GL1 3589   4.058  10.587  10.124 -0.0227 -0.0521 -0.1837
  225loPI   GL2 3590   3.889  10.829  10.056  0.1817 -0.0785  0.0686
  225loPI   C1A 3591   3.756  10.311   9.796 -0.0564 -0.0501  0.0586
  225loPI   C2A 3592   3.903  10.182   9.360  0.1356 -0.0798 -0.0238
  225loPI   C3A 3593   4.162  10.258   8.974  0.0768  0.0946  0.2267
  225loPI   C4A 3594   4.241  10.482   8.641 -0.0524 -0.0425  0.1495
  225loPI   C5A 3595   4.540  10.773   8.586 -0.1883 -0.4814  0.0214
  225loPI   C6A 3596   4.898  10.803   8.358  0.0665  0.0342 -0.3518
  225loPI   C1B 3597   3.728  10.777   9.685  0.3205 -0.2429 -0.1671
  225loPI   C2B 3598   3.778  10.682   9.231 -0.1026  0.0888 -0.3296
  225loPI   C3B 3599   3.682  10.640   8.826  0.4655  0.3402  0.1956
  225loPI   C4B 3600   3.708  10.736   8.368 -0.1075 -0.0939  0.1134
  226loPI    C1 3601   1.003   0.965  10.698 -0.0573  0.1854 -0.0374
  226loPI    C2 3602   0.941   1.273  10.946  0.0265  0.1238  0.0606
  226loPI    C3 3603   0.652   1.004  10.885  0.0002  0.1478  0.0793
  226loPI   PO4 3604   1.125   1.108  10.485 -0.1898  0.1140 -0.2063
  226loPI   GL1 3605   1.358   1.079  10.138 -0.1028 -0.2836 -0.1905
  226loPI   GL2 3606   1.302   1.308  10.040 -0.2502 -0.0438 -0.1602
  226loPI   C1A 3607   1.513   1.000   9.728  0.0435  0.1616  0.1306
  226loPI   C2A 3608   1.556   0.942   9.320 -0.0098 -0.1817  0.1361
  226loPI   C3A 3609   1.441   0.765   8.982  0.1261  0.1318  0.0044
  226loPI   C4A 3610   1.327   0.831   8.660 -0.1608  0.0314  0.1852
  226loPI   C5A 3611   1.302   0.964   8.252 -0.2286 -0.1255 -0.2163
  226loPI   C6A 3612   1.368   0.839   7.829 -0.3243 -0.1060 -0.0616
  226loPI   C1B 3613   1.290   1.424   9.677 -0.1108  0.0510 -0.0087
  226loPI   C2B 3614   1.316   1.338   9.262  0.0604 -0.0463  0.0063
  226loPI   C3B 3615   1.341   1.306   8.870 -0.0582 -0.1159  0.1524
  226loPI   C4B 3616   1.548   1.349   8.434  0.1695 -0.2078 -0.0522
  227loPI    C1 3617  16.959  14.869  10.337  0.0438 -0.1139  0.1519
  227loPI    C2 3618  17.357  14.891  10.304  0.0468  0.0359  0.2747
  227loPI    C3 3619  17.147  15.214  10.413 -0.1039 -0.0554  0.2578
  227loPI   PO4 3620  16.936  14.616  10.339 -0.3061 -0.0769  0.0893
  227loPI   GL1 3621  17.202  14.292  10.066 -0.0270 -0.1402 -0.1296
  227loPI   GL2 3622  17.193  14.581   9.881  0.0429 -0.2277 -0.2670
  227loPI   C1A 3623  17.346  14.212   9.580  0.1868  0.1474 -0.3213
  227loPI   C2A 3624  17.567  14.191   9.143  0.1276  0.0875  0.2764
  227loPI   C3A 3625  17.504  14.270   8.730 -0.0033  0.0503 -0.0203
  227loPI   C4A 3626  17.179  14.078   8.439 -0.0018 -0.2339 -0.2041
  227loPI   C5A 3627  16.829  14.381   8.300 -0.0505 -0.2559 -0.0021
  227loPI   C6A 3628  16.622  14.269   7.871  0.0189 -0.0895 -0.0057
  227loPI   C1B 3629  17.068  14.672   9.442 -0.0119 -0.0260  0.0296
  227loPI   C2B 3630  17.261  14.580   9.094 -0.0048 -0.0091 -0.1528
  227loPI   C3B 3631  17.244  14.848   8.804  0.0156  0.1386 -0.1389
  227loPI   C4B 3632  17.198  15.026   8.494 -0.1605 -0.1175 -0.1359
  228loPI    C1 3633  11.688  16.248  10.611 -0.0530 -0.0466 -0.0193
  228loPI    C2 3634  11.774  16.375  10.980 -0.0976 -0.0645 -0.0026
  228loPI    C3 3635  11.911  16.021  10.853  0.0766  0.0255 -0.0696
  228loPI   PO4 3636  11.764  16.428  10.450 -0.0061  0.1925 -0.1405
  228loPI   GL1 3637  11.721  16.527  10.043  0.1395 -0.1850 -0.2620
  228loPI   GL2 3638  11.903  16.407   9.755 -0.2778  0.1562 -0.1978
  228loPI   C1A 3639  11.375  16.572   9.694 -0.2565  0.0043 -0.0572
  228loPI   C2A 3640  11.281  16.800   9.329 -0.2335  0.4189  0.3365
  228loPI   C3A 3641  10.923  16.985   9.136  0.1834 -0.1839  0.1044
  228loPI   C4A 3642  10.853  17.090   8.757 -0.1098 -0.0921 -0.2768
  228loPI   C5A 3643  10.773  17.184   8.343 -0.0609  0.2492 -0.0885
  228loPI   C6A 3644  10.770  17.175   7.819 -0.0167  0.5019  0.2477
  228loPI   C1B 3645  11.899  16.109   9.452 -0.1367  0.0552  0.4205
  228loPI   C2B 3646  11.862  16.050   9.016 -0.2475 -0.2993  0.2939
  228loPI   C3B 3647  11.785  16.125   8.632 -0.2119 -0.0394  0.0123
  228loPI   C4B 3648  11.889  16.027   8.149  0.1698  0.1850  0.1991
  229loPI    C1 3649   2.934   3.216  10.586 -0.0102  0.1571  0.1211
  229loPI    C2 3650   3.232   2.966  10.682 -0.1394 -0.0387  0.0197
  229loPI    C3 3651   3.245   3.348  10.801  0.0439 -0.1009  0.2057
  229loPI   PO4 3652   2.898   3.265  10.348 -0.2066  0.0200 -0.3165
  229loPI   GL1 3653   2.788   3.546  10.002  0.1533 -0.0014 -0.0521
  229loPI   GL2 3654   3.157   3.512   9.909 -0.0930  0.0835  0.0639
  229loPI   C1A 3655   2.577   3.384   9.635 -0.4343 -0.0012 -0.0333
  229loPI   C2A 3656   2.735   3.228   9.163  0.1780  0.1151 -0.1950
  229loPI   C3A 3657   2.694   3.254   8.818 -0.0187  0.0637 -0.0243
  229loPI   C4A 3658   2.873   3.296   8.441  0.3273  0.0700  0.1339
  229loPI   C5A 3659   2.829   3.417   8.029  0.2134 -0.2594  0.2055
  229loPI   C6A 3660   2.627   3.206   7.648  0.3356 -0.1033  0.2202
  229loPI   C1B 3661   3.102   3.429   9.433 -0.1560 -0.1663 -0.1631
  229loPI   C2B 3662   3.125   3.377   8.908 -0.1635 -0.2901 -0.0884
  229loPI   C3B 3663   3.311   3.491   8.483 -0.2510 -0.3677  0.1689
  229loPI   C4B 3664   3.369   3.440   8.064  0.0101  0.0035 -0.0705
  230loPI    C1 3665   9.063   4.531  10.619 -0.0818 -0.0505 -0.0781
  230loPI    C2 3666   9.174   4.146  10.627  0.0130 -0.0211  0.0532
  230loPI    C3 3667   9.227   4.377  10.950  0.0032  0.1157 -0.0422
  230loPI   PO4 3668   9.157   4.641  10.408 -0.1443  0.0141 -0.1197
  230loPI   GL1 3669   9.395   4.787  10.022 -0.2162 -0.1537  0.0618
  230loPI   GL2 3670   9.258   5.110   9.792  0.0374  0.2404 -0.0694
  230loPI   C1A 3671   9.599   4.759   9.653  0.1153 -0.1055  0.0723
  230loPI   C2A 3672   9.491   5.054   9.314 -0.0626  0.0560  0.0040
  230loPI   C3A 3673   9.799   5.184   9.085  0.1132  0.0114 -0.2798
  230loPI   C4A 3674   9.939   5.172   8.626 -0.1284 -0.0326  0.0181
  230loPI   C5A 3675   9.835   5.031   8.197  0.1100 -0.1560  0.5196
  230loPI   C6A 3676   9.734   5.037   7.749 -0.0395  0.0661  0.2058
  230loPI   C1B 3677   9.024   5.264   9.412 -0.1561 -0.0827  0.1176
  230loPI   C2B 3678   8.777   5.545   9.209  0.1265 -0.1557 -0.1803
  230loPI   C3B 3679   8.941   5.776   8.882 -0.1872 -0.0278  0.1485
  230loPI   C4B 3680   9.381   5.929   8.788 -0.0628  0.2232 -0.1947
  231loPI    C1 3681  16.164   7.139  10.548  0.0923  0.2299 -0.0094
  231loPI    C2 3682  16.344   7.045  10.892  0.0055  0.0388 -0.0148
  231loPI    C3 3683  15.980   7.209  10.896 -0.1319 -0.2590 -0.0202
  231loPI   PO4 3684  15.993   6.985  10.401 -0.0115 -0.0901 -0.0316
  231loPI   GL1 3685  16.181   6.722   9.994  0.3987  0.0307 -0.1991
  231loPI   GL2 3686  15.964   6.968   9.842  0.0393  0.1517 -0.0057
  231loPI   C1A 3687  16.274   6.684   9.581 -0.1085 -0.2318  0.1874
  231loPI   C2A 3688  16.445   6.820   9.211 -0.0698 -0.0663  0.4769
  231loPI   C3A 3689  16.451   6.641   8.803 -0.1677 -0.1443 -0.2568
  231loPI   C4A 3690  16.425   6.432   8.492  0.0247 -0.0320  0.4225
  231loPI   C5A 3691  16.269   6.184   8.222  0.0671 -0.0073  0.1649
  231loPI   C6A 3692  15.929   6.034   7.862 -0.3106  0.1572  0.3531
  231loPI   C1B 3693  15.957   7.032   9.385  0.0863 -0.0075 -0.3042
  231loPI   C2B 3694  16.050   6.898   8.927  0.3285  0.3916 -0.1356
  231loPI   C3B 3695  16.028   6.866   8.558 -0.0399  0.1263 -0.0314
  231loPI   C4B 3696  16.264   6.822   8.168 -0.2403  0.1577  0.0380
  232loPI    C1 3697  17.945   1.375  10.570 -0.0219  0.2234 -0.0865
  232loPI    C2 3698  17.845   1.746  10.680  0.0276  0.2254 -0.0478
  232loPI    C3 3699  17.846   1.451  10.950 -0.2131  0.1547 -0.1215
  232loPI   PO4 3700  18.148   1.401  10.415  0.0436  0.0075 -0.0643
  232loPI   GL1 3701  18.458   1.133  10.140 -0.1283  0.2438 -0.0770
  232loPI   GL2 3702  18.269   1.367   9.947  0.0138 -0.1540 -0.0628
  232loPI   C1A 3703  18.791   1.153   9.764 -0.1926 -0.0451 -0.1196
  232loPI   C2A 3704  18.881   1.102   9.292  0.1656 -0.2017  0.1404
  232loPI   C3A 3705  18.797   1.087   8.826 -0.0219 -0.4013 -0.0016
  232loPI   C4A 3706  18.814   1.236   8.403  0.1278 -0.1413 -0.4377
  232loPI   C5A 3707  18.921   1.292   7.982 -0.1884  0.0954 -0.0368
  232loPI   C6A 3708  18.839   0.902   7.674  0.2043 -0.2614 -0.1212
  232loPI   C1B 3709  18.491   1.466   9.510 -0.0883 -0.2678 -0.1631
  232loPI   C2B 3710  18.663   1.533   9.144 -0.2136  0.0190 -0.0205
  232loPI   C3B 3711  18.891   1.715   8.751 -0.1040 -0.1119 -0.0639
  232loPI   C4B 3712  18.849   1.740   8.320  0.1094  0.0393 -0.0344
  233loPI    C1 3713  16.953   4.607  10.483 -0.0541  0.2021 -0.1972
  233loPI    C2 3714  16.555   4.640  10.489 -0.0531  0.1849  0.0857
  233loPI    C3 3715  16.768   4.732  10.815  0.1566 -0.0278  0.0110
  233loPI   PO4 3716  17.039   4.401  10.363  0.0095 -0.0222 -0.2113
  233loPI   GL1 3717  17.218   4.398  10.036  0.0290  0.0805  0.0977
  233loPI   GL2 3718  17.109   4.148   9.884 -0.0317  0.3626 -0.1452
  233loPI   C1A 3719  17.327   4.665   9.636 -0.1770 -0.0003 -0.3319
  233loPI   C2A 3720  17.659   4.966   9.491  0.3000  0.2564  0.0932
  233loPI   C3A 3721  17.949   5.015   9.052 -0.1277  0.2261 -0.1070
  233loPI   C4A 3722  17.966   5.052   8.572  0.0618 -0.2101 -0.2443
  233loPI   C5A 3723  18.086   4.800   8.224 -0.0128 -0.4952  0.0566
  233loPI   C6A 3724  18.334   4.776   7.958  0.0347 -0.1444 -0.1057
  233loPI   C1B 3725  16.994   4.031   9.423 -0.2167 -0.0072 -0.4115
  233loPI   C2B 3726  17.016   4.142   8.977 -0.0337  0.1371  0.1913
  233loPI   C3B 3727  16.951   4.251   8.604  0.3622  0.0947 -0.1901
  233loPI   C4B 3728  17.074   4.223   8.119 -0.2025  0.4434  0.1907
  234loPI    C1 3729  11.472  10.539  10.740 -0.1069  0.1637 -0.1310
  234loPI    C2 3730  11.365  10.809  11.015 -0.1119 -0.0740  0.1037
  234loPI    C3 3731  11.742  10.796  10.884 -0.0439 -0.1336  0.3008
  234loPI   PO4 3732  11.365  10.571  10.535  0.0217 -0.0464  0.1945
  234loPI   GL1 3733  11.138  10.364  10.262 -0.1425 -0.0986  0.0071
  234loPI   GL2 3734  10.866  10.677  10.273  0.2390 -0.5191  0.1984
  234loPI   C1A 3735  11.092  10.372   9.840 -0.2379  0.3287 -0.1256
  234loPI   C2A 3736  10.953  10.607   9.556  0.5039 -0.1832  0.2231
  234loPI   C3A 3737  10.959  10.730   9.169 -0.0019  0.0306  0.3629
  234loPI   C4A 3738  11.077  10.790   8.742 -0.0224  0.1367  0.2192
  234loPI   C5A 3739  10.991  11.040   8.360 -0.0906  0.0190 -0.1129
  234loPI   C6A 3740  10.919  11.123   7.954 -0.1379  0.2092 -0.1943
  234loPI   C1B 3741  10.539  10.658   9.812 -0.0912  0.1640 -0.3079
  234loPI   C2B 3742  10.473  10.646   9.356 -0.2380 -0.0836  0.0884
  234loPI   C3B 3743  10.459  10.619   8.922 -0.0700  0.1518 -0.0873
  234loPI   C4B 3744  10.253  10.656   8.512 -0.0308  0.1250 -0.0593
  235loPI    C1 3745   8.873  18.207  10.312  0.0422  0.1793 -0.1692
  235loPI    C2 3746   8.746  18.379  10.650  0.3507 -0.1845  0.1414
  235loPI    C3 3747   8.483  18.212  10.399  0.0969  0.2952  0.0775
  235loPI   PO4 3748   9.013  18.452  10.101  0.2315 -0.1391 -0.0175
  235loPI   GL1 3749   8.961  18.740   9.818  0.1019  0.0241 -0.2140
  235loPI   GL2 3750   8.993  19.058   9.810  0.0448  0.0010 -0.1039
  235loPI   C1A 3751   9.254  18.694   9.448  0.0899 -0.1660 -0.0485
  235loPI   C2A 3752   9.077  18.753   9.098 -0.2034  0.0342 -0.1745
  235loPI   C3A 3753   9.113  18.837   8.661  0.1360 -0.2618 -0.1928
  235loPI   C4A 3754   9.062  18.655   8.185  0.0390 -0.0933  0.0191
  235loPI   C5A 3755   9.289  18.429   7.938 -0.1302 -0.0882  0.2463
  235loPI   C6A 3756   9.195  18.305   7.591 -0.0257  0.0171 -0.1069
  235loPI   C1B 3757   8.963  19.205   9.249  0.0603  0.1207  0.0604
  235loPI   C2B 3758   8.769  19.421   8.943 -0.1151 -0.1424 -0.0940
  235loPI   C3B 3759   8.499  19.713   8.639  0.0146 -0.0449 -0.1454
  235loPI   C4B 3760   8.223  19.805   8.235 -0.1834 -0.1521  0.0317
  236loPI    C1 3761   0.560  11.937  10.850  0.0020  0.0367 -0.1362
  236loPI    C2 3762   0.231  12.135  10.964 -0.0259 -0.1518  0.1183
  236loPI    C3 3763   0.535  12.086  11.220  0.1129 -0.1642 -0.0467
  236loPI   PO4 3764   0.700  12.002  10.706  0.1559 -0.2976  0.2877
  236loPI   GL1 3765   0.740  12.065  10.166 -0.0231 -0.1320 -0.0372
  236loPI   GL2 3766   0.495  12.164  10.045  0.3390 -0.2856 -0.0662
  236loPI   C1A 3767   1.004  11.891   9.829 -0.0861  0.3629  0.1238
  236loPI   C2A 3768   1.035  11.847   9.367  0.2730 -0.4786  0.1201
  236loPI   C3A 3769   0.886  12.109   9.082 -0.4938 -0.2865  0.0761
  236loPI   C4A 3770   0.779  12.125   8.629  0.2945 -0.2106  0.1060
  236loPI   C5A 3771   0.508  12.367   8.314 -0.0529  0.0160  0.1973
  236loPI   C6A 3772   0.312  12.025   8.037  0.1780 -0.0941 -0.0712
  236loPI   C1B 3773   0.518  12.044   9.628  0.0048 -0.2809 -0.1669
  236loPI   C2B 3774   0.371  11.856   9.298  0.1539 -0.0389  0.0573
  236loPI   C3B 3775   0.417  11.918   8.888 -0.3661 -0.1225 -0.1959
  236loPI   C4B 3776   0.426  11.850   8.471  0.4426 -0.1007 -0.0511
  237loPI    C1 3777  16.232   6.222  10.342 -0.0079  0.2371  0.0155
  237loPI    C2 3778  16.064   6.313  10.693  0.2027 -0.0583  0.1976
  237loPI    C3 3779  16.411   6.113  10.683  0.3717  0.2410 -0.1763
  237loPI   PO4 3780  15.949   6.138  10.168 -0.2100 -0.2400  0.3269
  237loPI   GL1 3781  15.783   6.403   9.889 -0.0511 -0.2175  0.3838
  237loPI   GL2 3782  15.519   6.372   9.965  0.1232 -0.0599 -0.0973
  237loPI   C1A 3783  15.675   6.653   9.538 -0.2352 -0.1967  0.0686
  237loPI   C2A 3784  15.758   6.386   9.157  0.5704  0.0738 -0.1095
  237loPI   C3A 3785  15.889   6.305   8.653  0.3754  0.0802  0.2578
  237loPI   C4A 3786  15.749   6.035   8.299 -0.1519  0.0512 -0.3041
  237loPI   C5A 3787  15.483   5.772   7.996 -0.2340  0.0269 -0.0395
  237loPI   C6A 3788  15.337   5.365   7.787 -0.0105 -0.0718 -0.0963
  237loPI   C1B 3789  15.482   6.180   9.523  0.2722 -0.0481  0.2094
  237loPI   C2B 3790  15.495   5.941   9.199  0.0462  0.0269  0.0669
  237loPI   C3B 3791  15.603   5.856   8.775 -0.0034  0.0074 -0.0475
  237loPI   C4B 3792  15.749   5.549   8.428  0.1730  0.0704 -0.0423
  238loPI    C1 3793   8.027   6.755  10.976  0.2956 -0.0889 -0.0655
  238loPI    C2 3794   7.846   6.487  11.211  0.0084  0.0554 -0.1174
  238loPI    C3 3795   8.174   6.677  11.339  0.0028 -0.0543  0.0632
  238loPI   PO4 3796   7.875   6.817  10.786  0.2322  0.1183  0.2308
  238loPI   GL1 3797   7.635   6.679  10.396  0.0189  0.0147 -0.1060
  238loPI   GL2 3798   7.407   6.560  10.248  0.0682  0.1550  0.2805
  238loPI   C1A 3799   7.636   6.901   9.890  0.0081 -0.0282 -0.1109
  238loPI   C2A 3800   7.711   7.051   9.409  0.1633  0.2097  0.3233
  238loPI   C3A 3801   7.797   7.000   9.023  0.0812  0.1195  0.1345
  238loPI   C4A 3802   7.895   6.880   8.665 -0.1195  0.0404  0.3974
  238loPI   C5A 3803   8.073   6.842   8.239  0.0729 -0.0450  0.1372
  238loPI   C6A 3804   8.224   6.507   7.966  0.2375 -0.1054  0.1160
  238loPI   C1B 3805   7.273   6.538   9.809 -0.1755 -0.0941 -0.1972
  238loPI   C2B 3806   7.409   6.650   9.522 -0.2799  0.1692  0.0605
  238loPI   C3B 3807   7.470   6.466   9.077 -0.1070  0.1459 -0.0517
  238loPI   C4B 3808   7.746   6.448   8.792 -0.1513 -0.2270  0.0850
  239loPI    C1 3809  11.834   4.475  10.523 -0.0190 -0.0138  0.0668
  239loPI    C2 3810  11.800   4.869  10.464  0.0171 -0.0129  0.0513
  239loPI    C3 3811  11.655   4.703  10.798  0.0284  0.0179  0.0715
  239loPI   PO4 3812  12.113   4.515  10.331 -0.1129 -0.1594  0.0618
  239loPI   GL1 3813  12.249   4.266   9.933  0.0543 -0.0281 -0.1477
  239loPI   GL2 3814  12.401   4.521   9.923 -0.0068 -0.1377 -0.0613
  239loPI   C1A 3815  12.034   4.260   9.503  0.2086  0.0300 -0.2235
  239loPI   C2A 3816  12.023   4.000   9.062 -0.1435  0.0907 -0.3846
  239loPI   C3A 3817  12.044   4.015   8.609  0.0213  0.3035 -0.1754
  239loPI   C4A 3818  12.107   4.037   8.123 -0.1136  0.2642  0.1864
  239loPI   C5A 3819  12.162   4.120   7.675  0.0071 -0.0220 -0.1888
  239loPI   C6A 3820  12.210   4.060   7.239 -0.5047 -0.1797  0.3054
  239loPI   C1B 3821  12.403   4.624   9.510 -0.3315  0.1805 -0.1686
  239loPI   C2B 3822  12.545   4.548   9.116 -0.1095 -0.0086  0.2737
  239loPI   C3B 3823  12.878   4.763   8.826 -0.0072  0.2085 -0.1099
  239loPI   C4B 3824  13.105   5.046   8.580  0.1354  0.0107  0.1449
  240loPI    C1 3825   7.208  10.497  10.900  0.0649  0.3517  0.1078
  240loPI    C2 3826   6.838  10.630  10.823 -0.0445 -0.0085 -0.0070
  240loPI    C3 3827   7.042  10.773  11.137 -0.2941  0.1663  0.0780
  240loPI   PO4 3828   7.295  10.389  10.613  0.3305 -0.2909  0.1990
  240loPI   GL1 3829   7.040  10.325  10.289 -0.0418  0.1279  0.0119
  240loPI   GL2 3830   6.811  10.092  10.275  0.0601 -0.2151 -0.2617
  240loPI   C1A 3831   7.254  10.071   9.964  0.1087 -0.0930 -0.1377
  240loPI   C2A 3832   7.448   9.786   9.782 -0.3930 -0.0407  0.0088
  240loPI   C3A 3833   7.555   9.646   9.332  0.1568  0.2082 -0.1365
  240loPI   C4A 3834   7.522   9.316   9.119  0.1206  0.0265  0.3053
  240loPI   C5A 3835   7.543   8.999   8.855  0.1515 -0.0858 -0.0899
  240loPI   C6A 3836   7.342   8.727   8.543  0.1549  0.0834 -0.0083
  240loPI   C1B 3837   6.753  10.315   9.861 -0.1278 -0.2483 -0.1016
  240loPI   C2B 3838   6.734  10.320   9.416  0.2057  0.4042  0.0138
  240loPI   C3B 3839   6.593  10.364   9.042  0.1344 -0.1839  0.0320
  240loPI   C4B 3840   6.542  10.277   8.637 -0.0181  0.1319 -0.0740
  241loPI    C1 3841  14.358   8.579  10.310  0.0221 -0.1170 -0.1760
  241loPI    C2 3842  14.253   8.593  10.696  0.0096 -0.1015 -0.1800
  241loPI    C3 3843  14.621   8.475  10.593  0.1080  0.1706 -0.1476
  241loPI   PO4 3844  14.152   8.503  10.184  0.0374 -0.0845  0.0965
  241loPI   GL1 3845  14.136   8.407   9.817 -0.1951  0.0989  0.1267
  241loPI   GL2 3846  14.497   8.410   9.781 -0.1483 -0.1518 -0.1943
  241loPI   C1A 3847  14.151   8.459   9.259 -0.2335 -0.2320  0.0155
  241loPI   C2A 3848  14.223   8.561   8.877  0.0912 -0.3246  0.0876
  241loPI   C3A 3849  14.225   8.583   8.516  0.0462 -0.1201  0.1433
  241loPI   C4A 3850  14.106   8.654   8.097  0.2331 -0.0852 -0.1741
  241loPI   C5A 3851  13.982   8.815   7.668  0.0736 -0.1371 -0.2499
  241loPI   C6A 3852  14.109   9.233   7.567 -0.0641  0.0081  0.3161
  241loPI   C1B 3853  14.647   8.536   9.296  0.1644  0.0476  0.1762
  241loPI   C2B 3854  14.815   8.620   8.847  0.2275 -0.1628 -0.0498
  241loPI   C3B 3855  15.027   8.496   8.481  0.1848 -0.3736 -0.1950
  241loPI   C4B 3856  15.010   8.198   8.151  0.2887 -0.1437 -0.2003
  242loPI    C1 3857  14.330   1.016  10.664 -0.0096 -0.0031 -0.0353
  242loPI    C2 3858  14.100   1.296  10.494 -0.0919 -0.0876 -0.0645
  242loPI    C3 3859  13.942   1.040  10.758  0.0341  0.0394  0.1372
  242loPI   PO4 3860  14.400   0.880  10.379 -0.1756  0.0612  0.2606
  242loPI   GL1 3861  14.303   0.876  10.002  0.0702 -0.0572  0.1194
  242loPI   GL2 3862  14.589   1.078   9.783 -0.2895 -0.1599 -0.0821
  242loPI   C1A 3863  14.142   1.042   9.572 -0.0687  0.1263  0.1694
  242loPI   C2A 3864  13.835   1.123   9.216  0.0615 -0.1626 -0.0746
  242loPI   C3A 3865  13.764   1.062   8.724  0.1023 -0.3336  0.1176
  242loPI   C4A 3866  13.676   0.952   8.353  0.0822 -0.0267 -0.2060
  242loPI   C5A 3867  13.434   0.880   8.011 -0.1368  0.1341 -0.1601
  242loPI   C6A 3868  13.228   0.506   7.713  0.1511  0.0164 -0.3178
  242loPI   C1B 3869  14.737   1.136   9.391 -0.0572  0.1266 -0.0119
  242loPI   C2B 3870  14.974   1.328   9.025 -0.1021 -0.3274 -0.2151
  242loPI   C3B 3871  15.158   1.495   8.604  0.1430 -0.3578  0.1876
  242loPI   C4B 3872  15.333   1.325   8.243  0.2427  0.2712  0.1677
  243loPI    C1 3873   3.396   6.856  10.034 -0.1465 -0.0769 -0.1346
  243loPI    C2 3874   3.415   6.595  10.337 -0.1731  0.0751 -0.0007
  243loPI    C3 3875   3.478   6.985  10.404  0.0293  0.0837 -0.2276
  243loPI   PO4 3876   3.338   6.599   9.846 -0.0440  0.0663  0.0195
  243loPI   GL1 3877   3.267   6.376   9.461 -0.0221 -0.0485  0.0740
  243loPI   GL2 3878   3.123   6.054   9.503 -0.2291 -0.0921 -0.4334
  243loPI   C1A 3879   3.344   6.491   8.976 -0.1887 -0.1300  0.2386
  243loPI   C2A 3880   3.745   6.425   8.696 -0.2425 -0.3013 -0.2077
  243loPI   C3A 3881   4.030   6.751   8.446 -0.0714 -0.0808 -0.2456
  243loPI   C4A 3882   4.210   7.081   8.236  0.2572  0.1761 -0.0919
  243loPI   C5A 3883   4.126   7.442   8.103 -0.0695  0.4106  0.1199
  243loPI   C6A 3884   4.253   7.623   7.693  0.1297 -0.0948 -0.2618
  243loPI   C1B 3885   3.128   6.035   9.016 -0.0223  0.1473  0.1833
  243loPI   C2B 3886   3.175   6.093   8.673 -0.0797  0.0429  0.1278
  243loPI   C3B 3887   2.928   6.272   8.412 -0.0054  0.2853 -0.1462
  243loPI   C4B 3888   3.057   6.565   8.090  0.3551  0.0307  0.2476
  244loPI    C1 3889   0.818  14.556  10.538 -0.1000  0.0045  0.1814
  244loPI    C2 3890   1.050  14.589  10.862  0.1209 -0.0710  0.0338
  244loPI    C3 3891   0.700  14.782  10.846  0.2338  0.1529  0.2052
  244loPI   PO4 3892   0.950  14.569  10.292  0.1736  0.1025  0.2874
  244loPI   GL1 3893   1.090  14.328  10.081 -0.3373 -0.0382 -0.1124
  244loPI   GL2 3894   1.360  14.307   9.886  0.0380 -0.3505 -0.0006
  244loPI   C1A 3895   0.857  14.378   9.591 -0.0708 -0.2159 -0.3607
  244loPI   C2A 3896   0.898  14.225   9.113  0.1179 -0.3611  0.0636
  244loPI   C3A 3897   1.267  14.196   8.925 -0.0897  0.0555  0.0458
  244loPI   C4A 3898   1.551  13.850   8.684  0.0928 -0.1848 -0.0724
  244loPI   C5A 3899   1.652  13.727   8.181 -0.2626 -0.0302 -0.3426
  244loPI   C6A 3900   1.818  13.426   7.934  0.0429  0.1404  0.1336
  244loPI   C1B 3901   1.315  14.138   9.471 -0.0712  0.0723  0.2173
  244loPI   C2B 3902   1.397  13.803   9.189 -0.2055  0.3390  0.2850
  244loPI   C3B 3903   1.421  13.450   8.951 -0.0358  0.1776 -0.0246
  244loPI   C4B 3904   1.244  12.995   8.737  0.0898 -0.1550 -0.1180
  245loPI    C1 3905  12.735  17.768  10.679 -0.2980  0.1056 -0.2531
  245loPI    C2 3906  12.347  17.744  10.774 -0.2456  0.0177 -0.0549
  245loPI    C3 3907  12.607  17.902  11.034 -0.1063 -0.1789 -0.0724
  245loPI   PO4 3908  12.680  17.614  10.435 -0.0609 -0.1602  0.1947
  245loPI   GL1 3909  12.800  17.552  10.034 -0.2271 -0.0102 -0.2011
  245loPI   GL2 3910  12.523  17.842   9.917 -0.2705  0.1685  0.2157
  245loPI   C1A 3911  13.010  17.431   9.568 -0.0320  0.0221  0.1497
  245loPI   C2A 3912  13.255  17.445   9.269  0.1098  0.2749  0.0028
  245loPI   C3A 3913  13.207  17.524   8.741 -0.2159 -0.0012  0.0706
  245loPI   C4A 3914  13.301  17.545   8.302 -0.0294  0.0587  0.2647
  245loPI   C5A 3915  13.356  17.183   7.987 -0.1393  0.2490 -0.1235
  245loPI   C6A 3916  13.430  16.736   7.902  0.0576  0.0373 -0.1172
  245loPI   C1B 3917  12.397  17.689   9.475 -0.1010 -0.1132  0.0554
  245loPI   C2B 3918  12.327  17.580   8.978  0.0950 -0.1895 -0.0588
  245loPI   C3B 3919  12.422  17.517   8.586 -0.1418  0.2167  0.2795
  245loPI   C4B 3920  12.248  17.293   8.200 -0.2509 -0.0252 -0.0922
  246loPI    C1 3921  12.324  17.310  10.593  0.0929  0.1789 -0.0427
  246loPI    C2 3922  12.329  16.974  10.810  0.0240  0.0359 -0.2589
  246loPI    C3 3923  12.600  17.261  10.879  0.1444 -0.1048 -0.1381
  246loPI   PO4 3924  12.036  17.344  10.498 -0.4935  0.2167  0.1089
  246loPI   GL1 3925  11.876  17.313  10.132  0.1645  0.0624  0.0197
  246loPI   GL2 3926  11.834  17.487   9.891  0.0103  0.0883 -0.2357
  246loPI   C1A 3927  11.896  16.954   9.829 -0.2249  0.0003 -0.3650
  246loPI   C2A 3928  11.730  16.702   9.406  0.0311 -0.3945  0.1028
  246loPI   C3A 3929  11.830  16.894   8.989 -0.0180  0.0035  0.0259
  246loPI   C4A 3930  11.896  16.880   8.526  0.1355 -0.0823 -0.0028
  246loPI   C5A 3931  11.964  16.903   8.055 -0.2209  0.0759  0.0082
  246loPI   C6A 3932  12.110  17.042   7.700 -0.2062  0.1142 -0.0317
  246loPI   C1B 3933  11.965  17.455   9.467  0.0618  0.1471 -0.0821
  246loPI   C2B 3934  11.800  17.481   8.991 -0.0852  0.0524 -0.1937
  246loPI   C3B 3935  11.915  17.379   8.617  0.0001  0.0475  0.0346
  246loPI   C4B 3936  11.679  17.347   8.170  0.0580 -0.0990  0.0277
  247loPI    C1 3937  17.218  11.441  10.751 -0.0061 -0.0236 -0.2184
  247loPI    C2 3938  17.295  11.661  11.076 -0.4156 -0.0639 -0.0879
  247loPI    C3 3939  17.427  11.283  11.053  0.0409  0.0947 -0.1888
  247loPI   PO4 3940  17.209  11.602  10.565 -0.1327  0.0818  0.3414
  247loPI   GL1 3941  17.017  11.702  10.149 -0.0766 -0.2721  0.2011
  247loPI   GL2 3942  16.616  11.676   9.919  0.0236 -0.0007 -0.1569
  247loPI   C1A 3943  17.164  11.727   9.711 -0.0218 -0.0627  0.2763
  247loPI   C2A 3944  17.426  11.778   9.341  0.0144  0.1105  0.1967
  247loPI   C3A 3945  17.422  11.692   8.946 -0.0724 -0.2687 -0.1069
  247loPI   C4A 3946  17.369  11.430   8.575 -0.1154  0.1478 -0.0155
  247loPI   C5A 3947  17.393  11.441   8.146 -0.2400  0.0755  0.0989
  247loPI   C6A 3948  17.335  11.331   7.649 -0.2559  0.1749  0.0567
  247loPI   C1B 3949  16.599  11.908   9.577 -0.0769 -0.2524  0.2511
  247loPI   C2B 3950  16.640  12.097   9.161  0.2995  0.0906 -0.0907
  247loPI   C3B 3951  16.555  12.045   8.699 -0.0994 -0.1448 -0.0561
  247loPI   C4B 3952  16.533  11.931   8.332  0.0659  0.1138  0.0004
  248loPI    C1 3953  14.699  15.695  10.687  0.0683 -0.1395  0.1209
  248loPI    C2 3954  14.481  15.402  10.850  0.0051 -0.1507  0.0171
  248loPI    C3 3955  14.444  15.776  10.985 -0.2376 -0.1150 -0.1416
  248loPI   PO4 3956  14.739  15.661  10.476 -0.3422 -0.0355  0.2578
  248loPI   GL1 3957  14.882  15.580  10.086 -0.1658  0.2056 -0.3478
  248loPI   GL2 3958  14.950  15.302  10.086 -0.0213  0.1300  0.0986
  248loPI   C1A 3959  14.719  15.544   9.629 -0.0266  0.1280  0.1272
  248loPI   C2A 3960  14.777  15.349   9.264 -0.1779  0.1996 -0.2676
  248loPI   C3A 3961  14.952  15.259   8.889 -0.2037  0.0119  0.0614
  248loPI   C4A 3962  14.916  15.432   8.448  0.2639 -0.3308 -0.1112
  248loPI   C5A 3963  14.627  15.639   8.210 -0.0206  0.0318  0.0522
  248loPI   C6A 3964  14.276  15.440   7.945 -0.2146 -0.2905 -0.1337
  248loPI   C1B 3965  15.153  15.324   9.618 -0.1967  0.0112 -0.1393
  248loPI   C2B 3966  15.288  15.206   9.240  0.2405  0.2002 -0.0931
  248loPI   C3B 3967  15.369  14.995   8.769 -0.0882  0.1683 -0.0658
  248loPI   C4B 3968  15.210  15.061   8.309  0.2207 -0.1512 -0.1929
  249loPI    C1 3969  15.333  11.497  10.521  0.2118  0.0050  0.1062
  249loPI    C2 3970  15.456  11.119  10.473 -0.0298 -0.0680  0.0480
  249loPI    C3 3971  15.436  11.278  10.840  0.1692 -0.0771  0.0640
  249loPI   PO4 3972  15.151  11.434  10.258 -0.2331  0.0539  0.1880
  249loPI   GL1 3973  15.168  11.624   9.928 -0.6701  0.0759 -0.2233
  249loPI   GL2 3974  15.501  11.635   9.744  0.2906 -0.3499  0.2016
  249loPI   C1A 3975  15.071  11.710   9.551 -0.2378  0.0173 -0.1745
  249loPI   C2A 3976  15.078  11.609   9.144  0.0202  0.0469  0.1254
  249loPI   C3A 3977  14.979  11.684   8.685 -0.0108 -0.1346 -0.0421
  249loPI   C4A 3978  15.081  11.916   8.391 -0.0943 -0.1226 -0.0923
  249loPI   C5A 3979  15.258  11.879   7.946  0.3730 -0.1560 -0.0229
  249loPI   C6A 3980  15.556  11.614   7.683  0.0546  0.1261  0.0172
  249loPI   C1B 3981  15.561  11.762   9.422  0.0173  0.2119 -0.0780
  249loPI   C2B 3982  15.642  11.775   9.003  0.0248 -0.1387  0.1704
  249loPI   C3B 3983  15.601  11.723   8.590 -0.0348 -0.0039 -0.0289
  249loPI   C4B 3984  15.605  11.541   8.246  0.1872  0.2124 -0.1672
  250loPI    C1 3985  16.533  10.334  10.586 -0.2600 -0.1946  0.0369
  250loPI    C2 3986  16.147  10.436  10.605 -0.1783  0.0722  0.3404
  250loPI    C3 3987  16.422  10.657  10.793  0.1336 -0.0687  0.0590
  250loPI   PO4 3988  16.579  10.161  10.312  0.0075  0.0469  0.0198
  250loPI   GL1 3989  16.487  10.211   9.869 -0.2388  0.2527 -0.0552
  250loPI   GL2 3990  16.702  10.478   9.918 -0.2968  0.0196  0.1945
  250loPI   C1A 3991  16.333  10.113   9.420  0.1533  0.1442 -0.1125
  250loPI   C2A 3992  16.328  10.140   8.951  0.1408 -0.0600 -0.1370
  250loPI   C3A 3993  16.036  10.335   8.678 -0.0174  0.0587 -0.1390
  250loPI   C4A 3994  15.799  10.452   8.338 -0.1813 -0.1089  0.2378
  250loPI   C5A 3995  15.686  10.332   7.935 -0.1293  0.3083  0.3082
  250loPI   C6A 3996  15.786  10.136   7.527 -0.0501  0.1231  0.2268
  250loPI   C1B 3997  16.676  10.540   9.478 -0.1086 -0.0438 -0.2464
  250loPI   C2B 3998  16.566  10.542   9.096  0.1320  0.2814 -0.1424
  250loPI   C3B 3999  16.492  10.618   8.683  0.2671  0.0750  0.1223
  250loPI   C4B 4000  16.357  10.418   8.277  0.1018 -0.0049  0.2864
  251loPI    C1 4001   1.534   8.324  10.321  0.1134 -0.0119  0.0819
  251loPI    C2 4002   1.679   8.597  10.575  0.0627 -0.1107  0.2178
  251loPI    C3 4003   1.580   8.232  10.707  0.0281 -0.1602  0.0575
  251loPI   PO4 4004   1.398   8.554  10.171 -0.0618  0.1970 -0.0065
  251loPI   GL1 4005   1.353   8.783   9.836 -0.0165  0.0311 -0.1123
  251loPI   GL2 4006   1.582   9.000   9.916  0.2469  0.0918  0.1739
  251loPI   C1A 4007   1.341   8.728   9.392  0.2158 -0.0733  0.1270
  251loPI   C2A 4008   1.316   8.839   8.972 -0.1388 -0.0637 -0.3829
  251loPI   C3A 4009   1.395   8.741   8.591 -0.0797  0.0545  0.0912
  251loPI   C4A 4010   1.353   8.681   8.120 -0.0672  0.2355 -0.1042
  251loPI   C5A 4011   1.356   9.056   7.947 -0.1324 -0.2891  0.0257
  251loPI   C6A 4012   1.257   9.441   8.024 -0.2038  0.2233 -0.0063
  251loPI   C1B 4013   1.504   9.148   9.550  0.0592 -0.2348  0.0074
  251loPI   C2B 4014   1.236   9.255   9.247  0.1757  0.2480  0.1991
  251loPI   C3B 4015   1.172   9.360   8.890  0.1221 -0.0109  0.2486
  251loPI   C4B 4016   1.247   9.281   8.495 -0.1777  0.1338 -0.0613
  252loPI    C1 4017   7.661  16.480   9.730  0.1344 -0.1641  0.0810
  252loPI    C2 4018   7.528  16.499  10.107  0.0568  0.2250  0.0380
  252loPI    C3 4019   7.383  16.222   9.857  0.1643 -0.0849  0.3124
  252loPI   PO4 4020   7.716  16.781   9.696  0.0982 -0.1365  0.0762
  252loPI   GL1 4021   7.679  16.993   9.344  0.0588 -0.1955  0.0860
  252loPI   GL2 4022   7.366  16.970   9.392  0.0802  0.0756  0.0800
  252loPI   C1A 4023   7.763  17.126   9.029 -0.2597 -0.1495  0.0475
  252loPI   C2A 4024   7.860  17.244   8.651  0.2258 -0.0606  0.0887
  252loPI   C3A 4025   7.725  17.403   8.286  0.1799  0.1546  0.0840
  252loPI   C4A 4026   7.523  17.490   7.868  0.0312  0.0583 -0.1648
  252loPI   C5A 4027   7.426  17.287   7.473  0.0863 -0.0679 -0.2450
  252loPI   C6A 4028   7.296  17.004   7.305 -0.0296 -0.0881  0.3951
  252loPI   C1B 4029   7.316  16.937   8.959  0.2203  0.3204 -0.1394
  252loPI   C2B 4030   7.344  17.052   8.570  0.0448  0.0529  0.1474
  252loPI   C3B 4031   7.295  17.257   8.270  0.0422 -0.0517 -0.2156
  252loPI   C4B 4032   7.067  17.678   8.035  0.0124  0.1368 -0.0290
  253loPI    C1 4033   9.337  17.828  10.583 -0.0324  0.0541 -0.0819
  253loPI    C2 4034   9.012  17.909  10.803 -0.1078 -0.2382 -0.0829
  253loPI    C3 4035   9.230  17.582  10.880  0.2730  0.0315  0.0127
  253loPI   PO4 4036   9.205  17.848  10.366 -0.1026 -0.2807 -0.0697
  253loPI   GL1 4037   9.106  17.903   9.869  0.1710 -0.1699  0.1030
  253loPI   GL2 4038   8.754  17.977   9.847 -0.1016 -0.1227 -0.2002
  253loPI   C1A 4039   9.278  18.188   9.477  0.0088  0.1371 -0.1485
  253loPI   C2A 4040   9.315  18.296   9.054 -0.0530 -0.1662 -0.1821
  253loPI   C3A 4041   9.396  18.431   8.585  0.0018  0.2707  0.1810
  253loPI   C4A 4042   9.678  18.561   8.302 -0.2564 -0.0238  0.3245
  253loPI   C5A 4043   9.744  18.650   7.837  0.0049  0.0015  0.0678
  253loPI   C6A 4044   9.502  18.781   7.442 -0.0879  0.0020  0.1083
  253loPI   C1B 4045   8.817  17.890   9.470 -0.0972 -0.0352  0.1343
  253loPI   C2B 4046   8.616  17.792   9.093  0.0198  0.3760  0.1482
  253loPI   C3B 4047   8.616  17.668   8.658 -0.0905  0.0412  0.2112
  253loPI   C4B 4048   8.527  17.959   8.376  0.3103 -0.0748  0.1203
  254loPI    C1 4049   9.541  16.441  10.883 -0.3428  0.0967  0.2563
  254loPI    C2 4050   9.774  16.367  11.200 -0.0424  0.1175  0.0444
  254loPI    C3 4051   9.543  16.693  11.194  0.1848  0.2826  0.1135
  254loPI   PO4 4052   9.629  16.377  10.650 -0.0055  0.1129 -0.1162
  254loPI   GL1 4053   9.664  16.521  10.171 -0.0216  0.0273  0.1242
  254loPI   GL2 4054   9.803  16.719   9.991  0.0932 -0.0921 -0.1245
  254loPI   C1A 4055   9.830  16.257   9.803  0.0515  0.0819  0.3337
  254loPI   C2A 4056   9.994  16.055   9.433  0.2807  0.1380  0.1267
  254loPI   C3A 4057  10.083  15.977   8.991  0.1885  0.2237  0.2793
  254loPI   C4A 4058   9.924  15.816   8.616 -0.2961 -0.1134 -0.0764
  254loPI   C5A 4059  10.054  15.352   8.597 -0.1587  0.0017  0.0990
  254loPI   C6A 4060   9.795  15.112   8.330 -0.2074  0.1692 -0.1034
  254loPI   C1B 4061   9.675  16.678   9.544 -0.3186 -0.0960 -0.1758
  254loPI   C2B 4062   9.553  16.445   9.371  0.1403  0.1101  0.0602
  254loPI   C3B 4063   9.659  16.353   8.931 -0.4019 -0.1622 -0.1835
  254loPI   C4B 4064   9.706  16.302   8.458 -0.5125 -0.1455 -0.0736
  255loPI    C1 4065  17.899  10.686  10.534  0.0673 -0.0885  0.1668
  255loPI    C2 4066  17.761  10.436  10.814 -0.0358 -0.0040  0.1925
  255loPI    C3 4067  17.719  10.831  10.860 -0.0963  0.0087  0.0350
  255loPI   PO4 4068  17.793  10.701  10.297  0.0798  0.4066 -0.0686
  255loPI   GL1 4069  17.689  10.477   9.892 -0.0519 -0.1149 -0.0582
  255loPI   GL2 4070  17.765  10.819   9.717  0.0642  0.1565 -0.0317
  255loPI   C1A 4071  17.828  10.284   9.483  0.1500 -0.2232  0.0393
  255loPI   C2A 4072  17.657  10.188   9.062  0.0245  0.0746 -0.1400
  255loPI   C3A 4073  17.666  10.091   8.684 -0.2471 -0.1684  0.0907
  255loPI   C4A 4074  17.680  10.054   8.227  0.1610 -0.1567 -0.2362
  255loPI   C5A 4075  18.030  10.248   7.987  0.1057 -0.2371  0.1483
  255loPI   C6A 4076  18.451  10.127   7.891  0.0120  0.0246 -0.3071
  255loPI   C1B 4077  17.809  10.855   9.338  0.0037  0.2224  0.2961
  255loPI   C2B 4078  17.636  10.723   9.040  0.1232 -0.4277  0.0500
  255loPI   C3B 4079  17.642  10.591   8.665  0.1900 -0.1589 -0.0990
  255loPI   C4B 4080  17.447  10.507   8.244  0.4698  0.0580 -0.1400
  256loPI    C1 4081   1.568   1.125  10.656 -0.1965  0.0164 -0.0224
  256loPI    C2 4082   1.404   0.988  10.995 -0.0744 -0.0407  0.0141
  256loPI    C3 4083   1.561   1.356  10.983 -0.0294 -0.0592  0.0355
  256loPI   PO4 4084   1.770   0.906  10.554 -0.0110  0.1302  0.1604
  256loPI   GL1 4085   1.731   0.708  10.186 -0.1618 -0.0278  0.2577
  256loPI   GL2 4086   2.096   0.796  10.184 -0.0829  0.1837 -0.1024
  256loPI   C1A 4087   1.883   0.607   9.718  0.0696 -0.1930 -0.0068
  256loPI   C2A 4088   1.810   0.530   9.242 -0.0803  0.0433  0.1867
  256loPI   C3A 4089   1.735   0.524   8.700 -0.0207  0.4462  0.0621
  256loPI   C4A 4090   1.525   0.475   8.353 -0.1555 -0.3515  0.0477
  256loPI   C5A 4091   1.168   0.488   8.162  0.1318  0.2234 -0.1119
  256loPI   C6A 4092   0.777   0.804   8.118  0.3649  0.4424  0.3088
  256loPI   C1B 4093   2.004   1.040   9.824  0.1108  0.0351  0.5622
  256loPI   C2B 4094   2.059   0.973   9.404  0.0837 -0.0254  0.0450
  256loPI   C3B 4095   1.977   0.922   8.977  0.1020  0.0509 -0.2838
  256loPI   C4B 4096   1.813   0.952   8.560 -0.0643  0.1062  0.0035
  257loPI    C1 4097  12.366  14.349  10.963  0.1031 -0.0946 -0.1972
  257loPI    C2 4098  12.561  14.680  11.074 -0.0910 -0.0104 -0.1038
  257loPI    C3 4099  12.503  14.385  11.338  0.0572 -0.1077 -0.1792
  257loPI   PO4 4100  12.456  14.395  10.629 -0.1861 -0.0882 -0.3526
  257loPI   GL1 4101  12.318  14.191  10.282  0.0196 -0.0875 -0.2058
  257loPI   GL2 4102  12.278  13.858  10.214 -0.0357  0.0425 -0.0210
  257loPI   C1A 4103  12.326  14.200   9.846 -0.1481 -0.2132  0.0102
  257loPI   C2A 4104  12.371  14.071   9.434 -0.1075 -0.3232  0.1256
  257loPI   C3A 4105  12.385  13.892   9.037  0.2700 -0.1939 -0.2001
  257loPI   C4A 4106  12.565  13.980   8.719  0.2586  0.1129 -0.1014
  257loPI   C5A 4107  12.705  14.242   8.391  0.1770  0.1234  0.1751
  257loPI   C6A 4108  13.009  14.353   8.123  0.4575 -0.1508 -0.1484
  257loPI   C1B 4109  12.326  13.604   9.794  0.0021 -0.1970 -0.0232
  257loPI   C2B 4110  12.248  13.604   9.406 -0.1153  0.0507 -0.3479
  257loPI   C3B 4111  12.244  13.456   9.042  0.3469  0.1580  0.0625
  257loPI   C4B 4112  12.060  13.626   8.678  0.1209 -0.0690 -0.1841
  258loPI    C1 4113   2.912   2.412  10.970 -0.0492  0.0121 -0.0382
  258loPI    C2 4114   2.620   2.176  11.107  0.1451 -0.2635 -0.0904
  258loPI    C3 4115   2.648   2.554  11.235  0.1531 -0.4279  0.4159
  258loPI   PO4 4116   2.927   2.457  10.632 -0.2172  0.1577 -0.0282
  258loPI   GL1 4117   3.084   2.437  10.273 -0.0679 -0.2128  0.1063
  258loPI   GL2 4118   2.919   2.164  10.121 -0.0084 -0.0112  0.0841
  258loPI   C1A 4119   3.169   2.553   9.816 -0.2194 -0.2683 -0.0062
  258loPI   C2A 4120   3.390   2.549   9.427 -0.5204 -0.2522 -0.0727
  258loPI   C3A 4121   3.470   2.626   8.963  0.1347  0.2671 -0.0205
  258loPI   C4A 4122   3.532   2.593   8.610 -0.1089  0.1457  0.4557
  258loPI   C5A 4123   3.486   2.490   8.203 -0.0503 -0.0884 -0.1806
  258loPI   C6A 4124   3.752   2.181   7.994  0.0657  0.0186 -0.1486
  258loPI   C1B 4125   2.778   2.195   9.697  0.2173  0.2588 -0.1574
  258loPI   C2B 4126   2.850   2.435   9.349  0.0404 -0.2329  0.1912
  258loPI   C3B 4127   2.681   2.735   8.984  0.0893  0.0500 -0.0863
  258loPI   C4B 4128   2.680   2.865   8.482 -0.2285 -0.1350  0.0788
  259loPI    C1 4129   5.689   3.909  10.490  0.3799 -0.6559  0.0747
  259loPI    C2 4130   5.635   3.880  10.885 -0.0612  0.0649  0.0852
  259loPI    C3 4131   5.921   4.119  10.739  0.0201 -0.1047 -0.0369
  259loPI   PO4 4132   5.670   3.637  10.378 -0.1526  0.3622 -0.2019
  259loPI   GL1 4133   5.793   3.236   9.930  0.0461  0.1873  0.1707
  259loPI   GL2 4134   5.498   3.363   9.895  0.0426 -0.2305  0.1662
  259loPI   C1A 4135   5.755   3.278   9.482 -0.2981 -0.0574 -0.0127
  259loPI   C2A 4136   5.701   3.119   9.042  0.1219 -0.0249  0.4379
  259loPI   C3A 4137   5.659   2.859   8.732 -0.1353  0.1771 -0.1815
  259loPI   C4A 4138   5.512   2.909   8.282  0.3187 -0.3230  0.0152
  259loPI   C5A 4139   5.389   3.055   7.921  0.1474  0.3398  0.1110
  259loPI   C6A 4140   5.512   2.978   7.508  0.1068 -0.2282 -0.0343
  259loPI   C1B 4141   5.185   3.267   9.555 -0.1304  0.0862  0.0194
  259loPI   C2B 4142   5.207   3.175   9.179  0.3190 -0.0542  0.0389
  259loPI   C3B 4143   5.048   3.200   8.678  0.0483  0.0600 -0.3456
  259loPI   C4B 4144   4.940   2.838   8.293 -0.1451  0.0568  0.0289
  260loPI    C1 4145   9.124   3.206  10.323  0.1069  0.0554 -0.0340
  260loPI    C2 4146   8.805   3.426  10.420  0.1056 -0.0480  0.2042
  260loPI    C3 4147   8.965   3.177  10.689  0.3296 -0.0678  0.0554
  260loPI   PO4 4148   9.211   3.360  10.093 -0.0341  0.4345 -0.1469
  260loPI   GL1 4149   9.250   3.526   9.723  0.1356  0.2001  0.1035
  260loPI   GL2 4150   9.245   3.879   9.598 -0.1262  0.0233 -0.1574
  260loPI   C1A 4151   9.151   3.459   9.241 -0.0320 -0.0855  0.2870
  260loPI   C2A 4152   9.024   3.352   8.833  0.2272 -0.1280 -0.1903
  260loPI   C3A 4153   8.852   3.314   8.340 -0.0867  0.1434 -0.0413
  260loPI   C4A 4154   8.782   3.492   7.959  0.1271  0.2118 -0.0944
  260loPI   C5A 4155   8.862   3.516   7.460 -0.0166  0.0523 -0.0679
  260loPI   C6A 4156   8.976   3.602   6.989 -0.0836 -0.0857  0.2086
  260loPI   C1B 4157   9.312   3.909   9.112  0.0388 -0.1589 -0.2433
  260loPI   C2B 4158   9.289   3.831   8.664 -0.1193 -0.1446  0.3856
  260loPI   C3B 4159   9.356   4.086   8.471 -0.1877  0.2378 -0.2496
  260loPI   C4B 4160   9.293   4.190   8.113  0.0343 -0.1446 -0.2041
  261loPI    C1 4161   5.946   1.449  10.512 -0.0997  0.1627 -0.1583
  261loPI    C2 4162   5.695   1.597  10.786  0.1029 -0.1588  0.2116
  261loPI    C3 4163   6.032   1.415  10.901  0.2528 -0.1940 -0.2603
  261loPI   PO4 4164   5.812   1.281  10.325  0.1377  0.0175 -0.1763
  261loPI   GL1 4165   5.542   1.118  10.078  0.0215  0.2539 -0.3966
  261loPI   GL2 4166   5.551   0.801   9.965 -0.0995  0.0490 -0.1946
  261loPI   C1A 4167   5.483   1.294   9.673  0.2676 -0.0947 -0.2399
  261loPI   C2A 4168   5.667   1.376   9.185  0.0175  0.0346  0.1178
  261loPI   C3A 4169   5.866   1.282   8.816  0.1050  0.1883  0.1626
  261loPI   C4A 4170   6.092   1.320   8.484 -0.1398 -0.0213  0.0504
  261loPI   C5A 4171   6.100   1.000   8.150 -0.1921  0.0178 -0.0572
  261loPI   C6A 4172   6.027   0.692   7.918 -0.1101  0.1980 -0.2138
  261loPI   C1B 4173   5.681   0.757   9.540 -0.0789  0.0624  0.0413
  261loPI   C2B 4174   5.780   0.783   9.062  0.1102 -0.0963 -0.0162
  261loPI   C3B 4175   5.715   0.841   8.602 -0.1634  0.2476 -0.0603
  261loPI   C4B 4176   5.624   0.613   8.200  0.0754  0.1997 -0.3387
  262loPI    C1 4177   9.734   1.629  10.165  0.0536  0.0712 -0.1083
  262loPI    C2 4178   9.992   1.934  10.154  0.0782  0.0536 -0.0241
  262loPI    C3 4179  10.126   1.560  10.202  0.0403  0.0401 -0.0228
  262loPI   PO4 4180   9.550   1.745   9.877 -0.0408 -0.1117 -0.1431
  262loPI   GL1 4181   9.691   2.155   9.771  0.1887 -0.0420  0.0981
  262loPI   GL2 4182   9.964   1.913   9.668  0.0267 -0.0158  0.2562
  262loPI   C1A 4183   9.406   2.169   9.347  0.0637  0.1629 -0.1517
  262loPI   C2A 4184   9.163   2.028   9.022 -0.0391 -0.0810 -0.1914
  262loPI   C3A 4185   9.156   1.969   8.678 -0.0448  0.5031 -0.0640
  262loPI   C4A 4186   9.175   1.888   8.265 -0.1633  0.1365  0.2305
  262loPI   C5A 4187   9.382   1.700   7.932 -0.1215 -0.2946  0.2166
  262loPI   C6A 4188   9.545   1.415   7.580  0.0036  0.1166  0.0899
  262loPI   C1B 4189   9.972   2.003   9.179 -0.1306  0.1229  0.0578
  262loPI   C2B 4190  10.141   1.982   8.756  0.0684 -0.1039 -0.1223
  262loPI   C3B 4191  10.356   1.712   8.389 -0.0002 -0.1955 -0.0217
  262loPI   C4B 4192  10.528   1.976   8.106 -0.2026 -0.0734 -0.2063
  263loPI    C1 4193   2.869   1.029  10.704  0.1214 -0.2256 -0.2662
  263loPI    C2 4194   2.641   0.732  10.845  0.0821 -0.0716 -0.0002
  263loPI    C3 4195   2.941   0.878  11.067 -0.0647  0.2642 -0.0166
  263loPI   PO4 4196   2.847   1.028  10.455  0.3255 -0.0204  0.0304
  263loPI   GL1 4197   3.028   1.050  10.015  0.1097 -0.0711 -0.1014
  263loPI   GL2 4198   2.862   0.726  10.030  0.0512 -0.1892 -0.0576
  263loPI   C1A 4199   3.042   1.037   9.649  0.1109  0.0020 -0.1996
  263loPI   C2A 4200   3.133   1.092   9.188 -0.2888 -0.1228 -0.1532
  263loPI   C3A 4201   3.032   1.164   8.847  0.1222 -0.3537 -0.1612
  263loPI   C4A 4202   2.718   0.911   8.517 -0.1707  0.1233 -0.2262
  263loPI   C5A 4203   2.602   0.699   8.182 -0.1190 -0.0994  0.3525
  263loPI   C6A 4204   2.321   0.883   7.881  0.0542 -0.1702  0.0115
  263loPI   C1B 4205   2.819   0.590   9.568 -0.0211 -0.0342 -0.1326
  263loPI   C2B 4206   2.737   0.553   9.047  0.4627 -0.1416  0.0404
  263loPI   C3B 4207   2.889   0.470   8.521 -0.3420  0.0418 -0.3547
  263loPI   C4B 4208   3.063   0.377   8.122  0.2815 -0.1629 -0.1417
  264loPI    C1 4209   0.194  15.881  10.407 -0.0347  0.0159  0.2942
  264loPI    C2 4210   0.332  16.253  10.351  0.0223 -0.0308  0.1184
  264loPI    C3 4211   0.242  16.126  10.720 -0.0357  0.1705  0.1748
  264loPI   PO4 4212   0.349  15.677  10.270 -0.0990  0.1011  0.2948
  264loPI   GL1 4213   0.662  15.569  10.126  0.0722 -0.1768 -0.1359
  264loPI   GL2 4214   0.926  15.403  10.155 -0.2522  0.0877  0.0230
  264loPI   C1A 4215   0.538  15.415   9.695  0.0745  0.1409  0.1257
  264loPI   C2A 4216   0.457  15.195   9.278 -0.0374 -0.1044 -0.1670
  264loPI   C3A 4217   0.621  15.117   8.857 -0.3552 -0.0215  0.3174
  264loPI   C4A 4218   0.578  14.805   8.525 -0.2141 -0.0190 -0.2156
  264loPI   C5A 4219   0.764  14.728   8.059 -0.1270  0.0570  0.0391
  264loPI   C6A 4220   1.120  14.501   8.077  0.0382  0.0836 -0.3082
  264loPI   C1B 4221   1.010  15.281   9.771 -0.0554  0.0074  0.0452
  264loPI   C2B 4222   0.952  15.218   9.363 -0.1523 -0.0400  0.0478
  264loPI   C3B 4223   1.144  15.149   8.979  0.1727  0.0368  0.1649
  264loPI   C4B 4224   1.035  15.049   8.589  0.0007  0.0499  0.2167
  265loPI    C1 4225   2.311  11.238  10.881 -0.0983 -0.2963 -0.3398
  265loPI    C2 4226   2.191  10.864  10.955 -0.0351 -0.2540 -0.0076
  265loPI    C3 4227   2.554  10.984  11.072 -0.0861 -0.0646 -0.0395
  265loPI   PO4 4228   2.049  11.302  10.705 -0.1643 -0.1352 -0.2349
  265loPI   GL1 4229   1.967  11.498  10.331 -0.1624  0.1735  0.0273
  265loPI   GL2 4230   2.239  11.239  10.286  0.3454  0.0375 -0.0133
  265loPI   C1A 4231   1.883  11.537   9.936  0.0256  0.0183  0.0145
  265loPI   C2A 4232   2.032  11.485   9.486 -0.2583 -0.0728 -0.1417
  265loPI   C3A 4233   2.115  11.650   9.070 -0.0416  0.0066  0.0365
  265loPI   C4A 4234   2.226  11.774   8.654 -0.1331 -0.0354 -0.0629
  265loPI   C5A 4235   2.233  11.903   8.212 -0.4179 -0.1283 -0.1186
  265loPI   C6A 4236   2.456  12.272   8.084 -0.1341 -0.4146  0.0835
  265loPI   C1B 4237   2.196  11.042   9.816  0.3264  0.1290 -0.0927
  265loPI   C2B 4238   2.506  10.964   9.479 -0.1063 -0.4519 -0.2896
  265loPI   C3B 4239   2.627  10.746   9.130  0.1632  0.1586 -0.0566
  265loPI   C4B 4240   2.750  10.692   8.686 -0.2120 -0.0721  0.0290
  266loPI    C1 4241   9.551   2.193  10.239 -0.1499 -0.1097 -0.1506
  266loPI    C2 4242   9.514   2.297  10.624  0.1312 -0.0418 -0.1395
  266loPI    C3 4243   9.423   1.925  10.508  0.0808 -0.0733 -0.0011
  266loPI   PO4 4244   9.498   2.420  10.126 -0.4263 -0.0299  0.0656
  266loPI   GL1 4245   9.620   2.658   9.832 -0.3257  0.0058  0.1517
  266loPI   GL2 4246   9.855   2.636   9.629 -0.0679 -0.3117 -0.1598
  266loPI   C1A 4247   9.377   2.614   9.499 -0.0160 -0.0511 -0.1387
  266loPI   C2A 4248   9.331   2.672   9.147 -0.1399 -0.1229  0.2525
  266loPI   C3A 4249   9.301   2.495   8.801  0.1033  0.1830 -0.1126
  266loPI   C4A 4250   9.274   2.392   8.417 -0.1047  0.1748  0.2420
  266loPI   C5A 4251   9.541   2.535   8.002  0.0591  0.3377  0.1144
  266loPI   C6A 4252   9.457   2.761   7.715 -0.2101  0.3350 -0.0655
  266loPI   C1B 4253   9.837   2.717   9.305  0.0319 -0.2096 -0.0583
  266loPI   C2B 4254   9.749   2.448   9.057  0.2083  0.0569  0.2239
  266loPI   C3B 4255   9.625   2.117   8.719  0.2603 -0.3488 -0.1965
  266loPI   C4B 4256   9.652   2.002   8.258 -0.2002  0.0049 -0.3917
  267loPI    C1 4257   0.157   1.209  10.632 -0.0007 -0.1969 -0.0968
  267loPI    C2 4258  -0.079   1.296  10.944 -0.0478  0.1531 -0.2253
  267loPI    C3 4259   0.313   1.377  10.960 -0.0106 -0.0315 -0.1757
  267loPI   PO4 4260   0.153   0.998  10.595 -0.0806  0.2838 -0.0768
  267loPI   GL1 4261   0.297   0.577  10.241  0.0638  0.1015  0.1569
  267loPI   GL2 4262   0.012   0.430  10.331 -0.1866  0.0442 -0.3118
  267loPI   C1A 4263   0.415   0.699   9.829  0.1893 -0.1419 -0.0543
  267loPI   C2A 4264   0.648   0.685   9.474 -0.2279 -0.2141  0.0165
  267loPI   C3A 4265   0.529   0.641   9.015  0.2076  0.0542 -0.2444
  267loPI   C4A 4266   0.399   0.636   8.526  0.0515 -0.1275  0.0097
  267loPI   C5A 4267   0.281   0.644   8.140 -0.0908 -0.0288 -0.0457
  267loPI   C6A 4268   0.086   0.608   7.807  0.3091  0.0323 -0.2525
  267loPI   C1B 4269  -0.165   0.374   9.959  0.0612 -0.1007 -0.1026
  267loPI   C2B 4270  -0.151   0.320   9.577 -0.0773 -0.1917  0.1209
  267loPI   C3B 4271  -0.365   0.505   9.256 -0.2652  0.0633 -0.3284
  267loPI   C4B 4272  -0.584   0.337   8.992  0.1689  0.1021  0.0639
  268loPI    C1 4273  13.610  11.061  10.692 -0.1109  0.2283 -0.0537
  268loPI    C2 4274  13.497  11.445  10.695 -0.0449  0.2474  0.1002
  268loPI    C3 4275  13.636  11.275  11.030 -0.1414  0.0689  0.0507
  268loPI   PO4 4276  13.526  10.929  10.508 -0.0733  0.0067  0.0699
  268loPI   GL1 4277  13.578  10.916  10.150 -0.1294 -0.2892  0.0087
  268loPI   GL2 4278  13.805  10.724  10.204 -0.4536  0.0877 -0.0913
  268loPI   C1A 4279  13.329  10.688   9.831  0.1815 -0.2582  0.1728
  268loPI   C2A 4280  13.081  10.832   9.448 -0.0440  0.1025  0.0699
  268loPI   C3A 4281  12.934  10.983   9.085  0.2177 -0.0170  0.0486
  268loPI   C4A 4282  12.908  11.288   8.739 -0.1104 -0.0612  0.0117
  268loPI   C5A 4283  12.975  11.639   8.462  0.2397  0.0081 -0.0539
  268loPI   C6A 4284  13.060  12.038   8.262  0.0971 -0.0393  0.0130
  268loPI   C1B 4285  13.951  10.653   9.836  0.3980  0.0554 -0.0693
  268loPI   C2B 4286  13.659  10.745   9.438 -0.0681  0.0816 -0.0307
  268loPI   C3B 4287  13.475  10.792   9.054  0.2144 -0.3358 -0.1154
  268loPI   C4B 4288  13.242  10.760   8.633 -0.3644 -0.1406  0.0538
  269loPI    C1 4289  16.069  15.218  10.626  0.1648 -0.1405  0.0365
  269loPI    C2 4290  15.680  15.313  10.628  0.1828 -0.0600 -0.1091
  269loPI    C3 4291  15.943  15.545  10.819  0.1734 -0.0521 -0.1058
  269loPI   PO4 4292  16.137  15.152  10.393 -0.0690 -0.0473 -0.0152
  269loPI   GL1 4293  16.319  15.287  10.073  0.0105 -0.0053  0.1826
  269loPI   GL2 4294  16.655  15.249  10.107  0.0614 -0.0020  0.2631
  269loPI   C1A 4295  16.143  15.370   9.607 -0.1575  0.0853  0.0567
  269loPI   C2A 4296  16.106  15.339   9.148  0.0323 -0.0590 -0.0658
  269loPI   C3A 4297  16.292  15.238   8.862 -0.1586 -0.4578  0.2031
  269loPI   C4A 4298  16.436  14.913   8.610 -0.0681 -0.0994  0.0816
  269loPI   C5A 4299  16.751  14.864   8.316 -0.0525 -0.0614 -0.2079
  269loPI   C6A 4300  16.809  14.706   7.873 -0.1579  0.1940 -0.2983
  269loPI   C1B 4301  16.633  15.257   9.610 -0.5447  0.2016 -0.1510
  269loPI   C2B 4302  16.589  15.352   9.215 -0.1343  0.0138  0.1382
  269loPI   C3B 4303  16.615  15.782   9.034 -0.1013 -0.0374 -0.0307
  269loPI   C4B 4304  16.560  15.848   8.650 -0.2918 -0.1291  0.1945
  270loPI    C1 4305   7.562  18.064  10.602  0.1073  0.0084  0.0191
  270loPI    C2 4306   7.909  18.227  10.717 -0.0092  0.2183  0.0780
  270loPI    C3 4307   7.563  18.388  10.838 -0.1298  0.1755 -0.2041
  270loPI   PO4 4308   7.447  18.089  10.428  0.2029  0.0020  0.0751
  270loPI   GL1 4309   7.265  17.884  10.028 -0.1867 -0.4302  0.0885
  270loPI   GL2 4310   7.225  18.190  10.005 -0.0300  0.1000 -0.0088
  270loPI   C1A 4311   7.225  17.823   9.585  0.1113 -0.0862 -0.2830
  270loPI   C2A 4312   7.168  17.940   9.240  0.0676 -0.2257 -0.1746
  270loPI   C3A 4313   7.380  18.056   8.804 -0.0006 -0.3499 -0.0334
  270loPI   C4A 4314   7.536  18.289   8.368  0.0580 -0.0643 -0.0391
  270loPI   C5A 4315   7.309  18.368   8.002  0.3981 -0.1176  0.0694
  270loPI   C6A 4316   6.931  18.656   7.807  0.3726  0.2052 -0.1077
  270loPI   C1B 4317   7.351  18.338   9.670  0.0462  0.0694  0.1918
  270loPI   C2B 4318   7.442  18.715   9.427  0.1433 -0.0158  0.1290
  270loPI   C3B 4319   7.640  18.804   9.006 -0.1871  0.0620 -0.1206
  270loPI   C4B 4320   7.663  18.762   8.516 -0.2486 -0.0153  0.0585
  271loPI    C1 4321   8.678   2.924  10.269  0.0826  0.0076 -0.0181
  271loPI    C2 4322   8.771   2.698  10.586 -0.0305  0.1364  0.1084
  271loPI    C3 4323   8.484   2.975  10.615 -0.4108 -0.2055 -0.2535
  271loPI   PO4 4324   8.625   2.821  10.037  0.1911 -0.1384  0.2972
  271loPI   GL1 4325   8.737   2.631   9.615  0.0725 -0.2695  0.1032
  271loPI   GL2 4326   8.902   2.486   9.483  0.1103  0.3520  0.1062
  271loPI   C1A 4327   8.523   2.733   9.193  0.3240  0.2609 -0.2573
  271loPI   C2A 4328   8.493   2.702   8.744  0.3019 -0.1246  0.1155
  271loPI   C3A 4329   8.352   2.955   8.367  0.3855  0.2194 -0.0375
  271loPI   C4A 4330   8.270   3.223   7.959  0.1751  0.3450 -0.2640
  271loPI   C5A 4331   8.518   3.060   7.661 -0.1812  0.0332 -0.3953
  271loPI   C6A 4332   8.618   3.154   7.227 -0.1752 -0.0608  0.0033
  271loPI   C1B 4333   8.867   2.391   9.102 -0.2256 -0.1210 -0.0821
  271loPI   C2B 4334   8.817   2.345   8.631 -0.0181 -0.1020 -0.0271
  271loPI   C3B 4335   8.841   2.288   8.216 -0.0408  0.1231  0.0445
  271loPI   C4B 4336   8.960   2.016   7.776  0.4551 -0.1428 -0.2940
  272loPI    C1 4337   5.814   8.713  10.441 -0.0737  0.0831  0.0267
  272loPI    C2 4338   6.015   8.370  10.394 -0.0444  0.0881  0.1139
  272loPI    C3 4339   5.914   8.495  10.761 -0.0388  0.1819  0.0838
  272loPI   PO4 4340   5.938   8.917  10.362  0.1453  0.0263  0.2356
  272loPI   GL1 4341   6.257   8.996  10.044  0.3072  0.1195  0.0978
  272loPI   GL2 4342   6.558   9.099  10.153  0.0192 -0.0554 -0.0009
  272loPI   C1A 4343   6.376   8.880   9.678  0.0613 -0.0449  0.0987
  272loPI   C2A 4344   6.587   8.893   9.361  0.1017 -0.0744 -0.1125
  272loPI   C3A 4345   6.647   8.796   8.888  0.0545 -0.2294 -0.2308
  272loPI   C4A 4346   6.826   8.862   8.423  0.1294 -0.2714 -0.0780
  272loPI   C5A 4347   6.975   8.511   8.260 -0.2628  0.1415 -0.2084
  272loPI   C6A 4348   7.283   8.199   8.339  0.0672  0.0828  0.3236
  272loPI   C1B 4349   6.824   9.064   9.743  0.2561  0.0197  0.1173
  272loPI   C2B 4350   7.127   9.093   9.657 -0.0511 -0.1772 -0.0008
  272loPI   C3B 4351   7.516   9.302   9.625  0.0945 -0.1216 -0.0523
  272loPI   C4B 4352   7.924   9.319   9.452 -0.1516 -0.2151  0.1832
  273loPI    C1 4353   6.375   1.632  10.293  0.0279  0.1962 -0.0556
  273loPI    C2 4354   6.453   1.490  10.659 -0.0933 -0.0617 -0.1270
  273loPI    C3 4355   6.234   1.822  10.615  0.2199  0.1724  0.0435
  273loPI   PO4 4356   6.326   1.315  10.159 -0.1538 -0.0306  0.3378
  273loPI   GL1 4357   6.298   1.018   9.761  0.0701 -0.1762  0.1638
  273loPI   GL2 4358   5.986   1.079   9.776 -0.1980 -0.0221  0.1638
  273loPI   C1A 4359   6.638   0.993   9.410  0.1481  0.1801 -0.2037
  273loPI   C2A 4360   6.773   0.920   9.051  0.0357  0.3012 -0.0354
  273loPI   C3A 4361   6.932   1.103   8.679 -0.4722  0.0731 -0.0315
  273loPI   C4A 4362   6.946   1.282   8.259 -0.1377  0.0877  0.1268
  273loPI   C5A 4363   7.283   1.509   7.986  0.2057  0.0898 -0.4978
  273loPI   C6A 4364   7.467   1.947   7.981  0.0531 -0.1682  0.0443
  273loPI   C1B 4365   6.096   1.115   9.248 -0.1569 -0.0723 -0.0559
  273loPI   C2B 4366   6.388   1.107   8.797 -0.0078 -0.2422 -0.3194
  273loPI   C3B 4367   6.514   1.047   8.419 -0.3433  0.0646 -0.2375
  273loPI   C4B 4368   6.537   0.835   8.081 -0.2244 -0.2176 -0.1787
  274loPI    C1 4369  17.207  13.040  10.671 -0.1307 -0.0748 -0.1759
  274loPI    C2 4370  16.860  13.069  10.867  0.0338  0.0548  0.1013
  274loPI    C3 4371  17.155  12.843  11.015  0.1464  0.1237 -0.0160
  274loPI   PO4 4372  17.106  13.083  10.383 -0.1273 -0.0172  0.1406
  274loPI   GL1 4373  17.122  13.033   9.897  0.3064  0.2536  0.2327
  274loPI   GL2 4374  17.151  12.648   9.771  0.1659  0.1423 -0.0451
  274loPI   C1A 4375  17.301  13.262   9.593 -0.1541  0.0197 -0.0162
  274loPI   C2A 4376  17.377  13.316   9.143 -0.0797  0.1735 -0.0053
  274loPI   C3A 4377  17.498  13.176   8.764 -0.1857 -0.2375  0.2504
  274loPI   C4A 4378  17.545  12.949   8.342 -0.3774  0.1067  0.1495
  274loPI   C5A 4379  17.980  12.663   8.115 -0.2815 -0.3526 -0.2188
  274loPI   C6A 4380  18.320  12.426   7.927 -0.2352  0.1316  0.1730
  274loPI   C1B 4381  17.299  12.765   9.352  0.0346 -0.0408  0.1000
  274loPI   C2B 4382  17.570  12.767   9.156  0.2048 -0.4119 -0.0858
  274loPI   C3B 4383  17.754  12.730   8.848 -0.1149  0.0084  0.2325
  274loPI   C4B 4384  18.120  12.972   8.579 -0.3404 -0.0783 -0.0328
  275loPI    C1 4385  12.451   8.064  10.972 -0.0343  0.0669  0.0193
  275loPI    C2 4386  12.379   7.786  10.694  0.1813 -0.0836  0.1105
  275loPI    C3 4387  12.251   7.731  11.069 -0.0337  0.0792  0.0631
  275loPI   PO4 4388  12.680   8.233  10.734  0.0966 -0.0225  0.0739
  275loPI   GL1 4389  12.717   8.295  10.333 -0.1629  0.1672  0.0575
  275loPI   GL2 4390  12.408   8.593  10.328  0.5123 -0.0335 -0.1006
  275loPI   C1A 4391  12.660   8.423   9.899  0.2980 -0.1216  0.2526
  275loPI   C2A 4392  12.647   8.246   9.459 -0.1702 -0.1041 -0.1104
  275loPI   C3A 4393  12.720   8.259   9.084  0.0166 -0.0182 -0.0839
  275loPI   C4A 4394  12.860   8.191   8.780  0.2723  0.0614 -0.1598
  275loPI   C5A 4395  13.067   7.972   8.492  0.1096 -0.0829  0.1077
  275loPI   C6A 4396  13.327   7.921   8.159  0.0759 -0.5234  0.0586
  275loPI   C1B 4397  12.190   8.249  10.049  0.2201  0.1484 -0.3080
  275loPI   C2B 4398  12.158   8.192   9.582  0.0674 -0.2756 -0.2986
  275loPI   C3B 4399  12.148   8.197   9.155  0.0519  0.1130 -0.1942
  275loPI   C4B 4400  12.336   8.225   8.731  0.2320 -0.2264  0.0492
  276loPI    C1 4401   4.093  10.169  10.488  0.0619  0.1186 -0.0225
  276loPI    C2 4402   3.785  10.147  10.234  0.1805 -0.1151 -0.1494
  276loPI    C3 4403   3.719  10.161  10.629  0.0004  0.1024 -0.1850
  276loPI   PO4 4404   4.295  10.064  10.204  0.1155 -0.1001  0.1493
  276loPI   GL1 4405   4.191  10.057   9.884 -0.3693  0.0359  0.1667
  276loPI   GL2 4406   4.219  10.391   9.707  0.1260 -0.0208 -0.1243
  276loPI   C1A 4407   4.452  10.002   9.459 -0.0353 -0.3749  0.2267
  276loPI   C2A 4408   4.619   9.690   9.334 -0.2230  0.1350  0.0952
  276loPI   C3A 4409   4.585   9.434   8.932  0.3401  0.3486  0.0448
  276loPI   C4A 4410   4.710   9.288   8.575  0.1520  0.0605 -0.0944
  276loPI   C5A 4411   4.598   9.151   8.148 -0.0869 -0.1245  0.0502
  276loPI   C6A 4412   4.619   8.950   7.926  0.4714 -0.0712  0.1575
  276loPI   C1B 4413   4.276  10.589   9.361 -0.0989 -0.1417  0.2161
  276loPI   C2B 4414   4.226  10.855   9.062 -0.1727 -0.2686 -0.1987
  276loPI   C3B 4415   4.124  10.969   8.572 -0.0804 -0.0664 -0.0748
  276loPI   C4B 4416   3.996  11.042   8.114 -0.0580  0.0632  0.0159
  277loPI    C1 4417  17.151   3.111  10.732 -0.2063  0.1315 -0.1721
  277loPI    C2 4418  16.903   3.171  11.040 -0.0144  0.0533 -0.0000
  277loPI    C3 4419  17.293   3.108  11.106  0.0566  0.1930 -0.2689
  277loPI   PO4 4420  17.017   3.007  10.485 -0.0596  0.0824  0.2592
  277loPI   GL1 4421  16.992   3.067  10.027 -0.3135 -0.0860 -0.0216
  277loPI   GL2 4422  17.286   2.921   9.910  0.1388  0.4158  0.0644
  277loPI   C1A 4423  16.852   3.007   9.663 -0.2699  0.0566 -0.0136
  277loPI   C2A 4424  16.663   3.072   9.357  0.1672 -0.3896  0.2027
  277loPI   C3A 4425  16.623   3.065   8.990 -0.0608 -0.0048  0.3118
  277loPI   C4A 4426  16.767   3.208   8.621 -0.2605  0.3771 -0.1124
  277loPI   C5A 4427  16.765   3.239   8.179 -0.1323 -0.2778 -0.0845
  277loPI   C6A 4428  16.904   3.683   7.939  0.0768 -0.2998 -0.0353
  277loPI   C1B 4429  17.319   2.907   9.441  0.3798 -0.0089  0.1971
  277loPI   C2B 4430  17.172   3.111   9.147 -0.1379 -0.0340 -0.2176
  277loPI   C3B 4431  17.248   3.235   8.782  0.1412  0.2948 -0.1616
  277loPI   C4B 4432  17.242   3.321   8.409 -0.2262 -0.0199 -0.2744
  278loPI    C1 4433  10.395   0.575  10.300 -0.1506 -0.1495  0.0187
  278loPI    C2 4434  10.751   0.626  10.124 -0.2230 -0.2402 -0.1570
  278loPI    C3 4435  10.706   0.707  10.514  0.0352 -0.3999 -0.0920
  278loPI   PO4 4436  10.330   0.282  10.195 -0.1691 -0.3476  0.0322
  278loPI   GL1 4437  10.021   0.171   9.863 -0.3425  0.1635  0.1521
  278loPI   GL2 4438   9.706   0.009   9.783 -0.3169 -0.2245 -0.3141
  278loPI   C1A 4439  10.200   0.127   9.377  0.1690  0.1005 -0.0057
  278loPI   C2A 4440  10.185  -0.039   8.990 -0.1305  0.3122  0.1449
  278loPI   C3A 4441  10.543   0.052   8.650  0.2135  0.0725 -0.1054
  278loPI   C4A 4442  10.675   0.090   8.297 -0.0262 -0.0857 -0.2297
  278loPI   C5A 4443  10.561   0.231   7.953 -0.0243  0.3549  0.1293
  278loPI   C6A 4444  10.249   0.411   7.770  0.0337 -0.1997  0.0559
  278loPI   C1B 4445   9.725   0.106   9.348 -0.1581  0.0340  0.1191
  278loPI   C2B 4446   9.738   0.188   8.935 -0.0636  0.0900  0.2492
  278loPI   C3B 4447   9.930  -0.111   8.597  0.2408  0.1567  0.0665
  278loPI   C4B 4448  10.178  -0.389   8.473 -0.1934  0.1517  0.0756
  279loPI    C1 4449  11.272  14.926  10.521 -0.1781 -0.0040 -0.0680
  279loPI    C2 4450  11.399  14.563  10.410 -0.1524 -0.0242  0.0266
  279loPI    C3 4451  11.202  14.609  10.755  0.1040  0.0979  0.1597
  279loPI   PO4 4452  11.222  15.057  10.232 -0.0989 -0.0332  0.0919
  279loPI   GL1 4453  11.191  15.069   9.764  0.3667 -0.0109 -0.0408
  279loPI   GL2 4454  11.021  15.318   9.862 -0.1505  0.2826 -0.1072
  279loPI   C1A 4455  11.306  15.073   9.267 -0.2073  0.3700 -0.1419
  279loPI   C2A 4456  11.249  15.244   8.855  0.0037 -0.1723  0.0758
  279loPI   C3A 4457  11.277  15.224   8.364  0.1031  0.0289  0.0235
  279loPI   C4A 4458  11.464  15.348   7.959 -0.0470 -0.2076  0.1679
  279loPI   C5A 4459  11.728  15.596   7.825 -0.1684 -0.0916  0.0035
  279loPI   C6A 4460  11.763  16.020   7.623  0.1139 -0.1281  0.2017
  279loPI   C1B 4461  10.954  15.404   9.392 -0.1235  0.2552 -0.1027
  279loPI   C2B 4462  10.846  15.520   8.984 -0.1704  0.0520 -0.0790
  279loPI   C3B 4463  11.067  15.636   8.563  0.0494  0.2614  0.0247
  279loPI   C4B 4464  11.157  15.710   8.107 -0.2538  0.0398 -0.1445
  280loPI    C1 4465   3.628   5.194  10.414  0.1200  0.0061  0.0995
  280loPI    C2 4466   3.358   5.403  10.622  0.1265  0.0438  0.0700
  280loPI    C3 4467   3.499   5.058  10.767  0.2379  0.1412  0.1959
  280loPI   PO4 4468   3.599   5.232  10.159 -0.2485 -0.0916  0.0839
  280loPI   GL1 4469   3.360   5.163   9.874  0.1121  0.3490 -0.0501
  280loPI   GL2 4470   3.421   4.844   9.873 -0.0008  0.0834  0.0414
  280loPI   C1A 4471   3.206   5.109   9.433  0.2736  0.1097  0.0718
  280loPI   C2A 4472   3.133   5.143   8.999  0.0246 -0.0112  0.0668
  280loPI   C3A 4473   3.353   5.046   8.684  0.1026 -0.0098  0.2043
  280loPI   C4A 4474   3.566   4.991   8.323  0.1141  0.1750  0.2451
  280loPI   C5A 4475   3.445   4.762   7.980  0.1765 -0.1145 -0.4002
  280loPI   C6A 4476   3.195   4.627   7.675 -0.2227 -0.0747  0.1738
  280loPI   C1B 4477   3.517   4.628   9.538  0.2614  0.3957 -0.3880
  280loPI   C2B 4478   3.351   4.722   9.193  0.1871 -0.1461 -0.1600
  280loPI   C3B 4479   3.167   4.601   8.769 -0.0417 -0.0424 -0.0697
  280loPI   C4B 4480   3.134   4.728   8.362 -0.2838 -0.1683 -0.0640
  281loPI    C1 4481  10.091   9.487  11.176  0.1565  0.0608 -0.1983
  281loPI    C2 4482  10.228   9.242  10.892 -0.3267 -0.3947 -0.0542
  281loPI    C3 4483  10.452   9.320  11.214 -0.1136 -0.5393 -0.1648
  281loPI   PO4 4484   9.979   9.714  10.973 -0.0345 -0.0813  0.1575
  281loPI   GL1 4485   9.916   9.581  10.591 -0.2582 -0.0767  0.1841
  281loPI   GL2 4486   9.697   9.414  10.419 -0.0521 -0.1219  0.1701
  281loPI   C1A 4487  10.035   9.464  10.070 -0.1409  0.1258  0.1592
  281loPI   C2A 4488  10.367   9.243   9.798 -0.3733  0.1538 -0.2178
  281loPI   C3A 4489  10.363   9.176   9.377  0.3324  0.1388  0.0452
  281loPI   C4A 4490  10.141   9.080   9.036 -0.0244  0.0296  0.0207
  281loPI   C5A 4491  10.263   9.234   8.683 -0.1288  0.2304  0.0940
  281loPI   C6A 4492  10.455   9.481   8.414  0.0573  0.4235  0.0814
  281loPI   C1B 4493   9.589   9.119  10.031 -0.3307  0.2103 -0.2478
  281loPI   C2B 4494   9.737   9.262   9.628  0.0145  0.0646 -0.0343
  281loPI   C3B 4495   9.739   9.190   9.261  0.3255  0.0300  0.1571
  281loPI   C4B 4496   9.581   9.203   8.807 -0.1228 -0.3138  0.0322
  282loPI    C1 4497  12.784   0.015  10.362 -0.0939  0.0907 -0.0193
  282loPI    C2 4498  12.519  -0.285  10.351  0.1714 -0.1522  0.0664
  282loPI    C3 4499  12.612  -0.112  10.700  0.0483  0.0063  0.0223
  282loPI   PO4 4500  12.710   0.117  10.168  0.0455  0.2045  0.2831
  282loPI   GL1 4501  12.694  -0.106   9.848  0.2200  0.1205 -0.0582
  282loPI   GL2 4502  12.938  -0.203   9.869  0.3839  0.2386 -0.1360
  282loPI   C1A 4503  12.436  -0.174   9.466 -0.0124 -0.0399  0.1665
  282loPI   C2A 4504  12.501  -0.339   9.061 -0.0208 -0.3736  0.2063
  282loPI   C3A 4505  12.412  -0.320   8.698  0.0901  0.2145 -0.0246
  282loPI   C4A 4506  12.493  -0.230   8.252 -0.0292  0.0907  0.0286
  282loPI   C5A 4507  12.455  -0.017   7.782  0.0313 -0.3360  0.0014
  282loPI   C6A 4508  12.583   0.406   7.790  0.0791 -0.0654 -0.2157
  282loPI   C1B 4509  12.843  -0.502   9.507  0.0054 -0.0196  0.1624
  282loPI   C2B 4510  12.801  -0.813   9.162  0.0563  0.3847 -0.1178
  282loPI   C3B 4511  12.735  -1.135   8.856  0.0217  0.1721  0.1217
  282loPI   C4B 4512  12.899  -1.143   8.455 -0.0401 -0.3154  0.2611
  283loPI    C1 4513  10.420   9.797  10.827 -0.0093  0.2117  0.0023
  283loPI    C2 4514  10.719   9.712  11.079  0.0042  0.1901 -0.0210
  283loPI    C3 4515  10.381   9.877  11.217 -0.0995 -0.0794  0.0557
  283loPI   PO4 4516  10.431   9.723  10.678 -0.1305 -0.1884 -0.1517
  283loPI   GL1 4517  10.255   9.871  10.327 -0.0094  0.0616 -0.0796
  283loPI   GL2 4518  10.198  10.118  10.508 -0.1220 -0.3842  0.0090
  283loPI   C1A 4519  10.399   9.813   9.885 -0.2176  0.0318  0.0145
  283loPI   C2A 4520  10.583   9.597   9.479  0.0919  0.2821  0.0249
  283loPI   C3A 4521  10.848   9.764   9.157  0.0312 -0.0095 -0.0111
  283loPI   C4A 4522  10.824   9.813   8.705  0.0755  0.2993  0.1077
  283loPI   C5A 4523  10.952   9.677   8.335 -0.2468 -0.0171  0.0391
  283loPI   C6A 4524  11.044   9.502   8.006  0.0210  0.1265 -0.2208
  283loPI   C1B 4525  10.185  10.312  10.100  0.1190  0.0108  0.1247
  283loPI   C2B 4526  10.180  10.243   9.703 -0.0711 -0.1912  0.0187
  283loPI   C3B 4527  10.333  10.078   9.282 -0.0121 -0.0437 -0.1060
  283loPI   C4B 4528  10.388   9.758   8.997 -0.0643  0.0798  0.2983
  284loPI    C1 4529   9.476  16.976  10.265 -0.0929 -0.2417  0.0509
  284loPI    C2 4530   9.172  17.098  10.494  0.0174  0.0758  0.0324
  284loPI    C3 4531   9.499  16.942  10.663  0.0402  0.1782  0.0838
  284loPI   PO4 4532   9.371  17.027   9.984 -0.0342 -0.0466 -0.2375
  284loPI   GL1 4533   9.155  17.141   9.629 -0.3093  0.1737  0.5886
  284loPI   GL2 4534   8.953  17.442   9.629  0.1495  0.2869  0.0152
  284loPI   C1A 4535   9.219  16.808   9.389 -0.4273 -0.1863 -0.1036
  284loPI   C2A 4536   9.399  16.837   8.991 -0.2619 -0.0994  0.0878
  284loPI   C3A 4537   9.475  16.763   8.648 -0.0799  0.1403 -0.0289
  284loPI   C4A 4538   9.683  17.122   8.334 -0.0980 -0.1502  0.0441
  284loPI   C5A 4539   9.892  17.064   7.888  0.1015 -0.0546  0.0032
  284loPI   C6A 4540  10.323  16.889   7.622 -0.1370  0.1652 -0.2147
  284loPI   C1B 4541   8.954  17.405   9.222  0.1582 -0.0754 -0.0828
  284loPI   C2B 4542   9.065  17.394   8.782  0.2455 -0.1199  0.2532
  284loPI   C3B 4543   9.168  17.138   8.424 -0.0894  0.3589 -0.2977
  284loPI   C4B 4544   8.982  17.052   8.140 -0.0302  0.3110  0.1654
  285loPI    C1 4545  15.519  11.919  10.284  0.1211  0.2873 -0.0303
  285loPI    C2 4546  15.673  11.790  10.630 -0.1773 -0.0930 -0.0323
  285loPI    C3 4547  15.463  12.130  10.619  0.0642  0.0638  0.1032
  285loPI   PO4 4548  15.809  11.939  10.088 -0.0258  0.3064 -0.1927
  285loPI   GL1 4549  15.931  11.989   9.687  0.0299  0.1198 -0.1807
  285loPI   GL2 4550  15.863  12.246   9.673  0.0827 -0.1512 -0.0639
  285loPI   C1A 4551  16.165  11.950   9.247  0.1292  0.1429  0.3522
  285loPI   C2A 4552  16.156  11.784   8.770  0.3544  0.0467  0.1436
  285loPI   C3A 4553  16.106  11.541   8.448  0.1454  0.0111 -0.0988
  285loPI   C4A 4554  15.952  11.312   7.986 -0.0979 -0.0298 -0.1387
  285loPI   C5A 4555  15.980  10.997   7.594 -0.0037 -0.0328  0.2942
  285loPI   C6A 4556  15.922  10.628   7.414 -0.1907  0.0305  0.1196
  285loPI   C1B 4557  15.706  12.202   9.205  0.0538 -0.0097 -0.0056
  285loPI   C2B 4558  15.896  12.212   8.872  0.0991  0.0761  0.0333
  285loPI   C3B 4559  15.954  12.032   8.428  0.3757 -0.2319  0.0785
  285loPI   C4B 4560  15.991  11.883   8.019  0.0533  0.0107  0.0586
  286loPI    C1 4561   1.693   0.291  10.786  0.3414  0.1050 -0.1588
  286loPI    C2 4562   1.935   0.018  10.950  0.0401  0.2142  0.5000
  286loPI    C3 4563   1.538  -0.016  10.991 -0.0380  0.3598 -0.0535
  286loPI   PO4 4564   1.757   0.329  10.521 -0.0879 -0.0199 -0.0405
  286loPI   GL1 4565   2.127   0.311  10.326 -0.0577 -0.0380  0.3982
  286loPI   GL2 4566   1.961   0.191  10.035  0.0233 -0.0017  0.0464
  286loPI   C1A 4567   2.332   0.479   9.900 -0.5121 -0.1272 -0.1664
  286loPI   C2A 4568   2.359   0.518   9.407 -0.1106 -0.1685 -0.0621
  286loPI   C3A 4569   2.248   0.510   8.998  0.0872  0.2832 -0.0642
  286loPI   C4A 4570   2.252   0.499   8.559 -0.0293  0.2415 -0.0722
  286loPI   C5A 4571   2.066   0.572   8.162 -0.0309 -0.2306 -0.3339
  286loPI   C6A 4572   1.749   0.475   7.876  0.1249 -0.2372  0.0862
  286loPI   C1B 4573   2.165   0.111   9.608 -0.0789 -0.0982 -0.1718
  286loPI   C2B 4574   2.112   0.074   9.172  0.0385 -0.1125 -0.0118
  286loPI   C3B 4575   2.009   0.033   8.747 -0.1069  0.1300 -0.5065
  286loPI   C4B 4576   2.179   0.061   8.278  0.1960  0.0638 -0.0016
  287loPI    C1 4577  15.203  13.033  10.607 -0.2563 -0.1297  0.1737
  287loPI    C2 4578  15.361  13.391  10.693  0.1407 -0.2556 -0.0101
  287loPI    C3 4579  15.063  13.245  10.917 -0.0391  0.1947  0.0556
  287loPI   PO4 4580  15.296  13.006  10.349  0.0959  0.0833  0.0207
  287loPI   GL1 4581  15.441  13.202   9.939 -0.0590 -0.1828  0.1682
  287loPI   GL2 4582  15.545  12.959   9.823  0.3327 -0.0526  0.3562
  287loPI   C1A 4583  15.192  13.548   9.788 -0.0886  0.1155  0.1536
  287loPI   C2A 4584  14.981  13.911   9.614 -0.1966 -0.2362 -0.1502
  287loPI   C3A 4585  14.983  14.160   9.374 -0.2747 -0.1375 -0.1214
  287loPI   C4A 4586  14.921  14.265   8.909 -0.0944  0.2085 -0.1628
  287loPI   C5A 4587  14.664  14.446   8.561  0.1354  0.1041  0.1751
  287loPI   C6A 4588  14.259  14.692   8.472  0.3005 -0.0845 -0.1590
  287loPI   C1B 4589  15.627  13.095   9.436 -0.0335  0.1218  0.2495
  287loPI   C2B 4590  15.393  13.007   8.981  0.1980 -0.1091  0.1424
  287loPI   C3B 4591  15.361  12.905   8.459  0.1451 -0.1577 -0.1995
  287loPI   C4B 4592  15.483  12.704   8.063 -0.0630 -0.2242 -0.1629
  288loPI    C1 4593   1.204  17.012  10.328 -0.2498  0.1429 -0.1357
  288loPI    C2 4594   1.181  17.338  10.098 -0.2022  0.2020 -0.0570
  288loPI    C3 4595   1.099  17.363  10.489 -0.0873  0.1438 -0.0286
  288loPI   PO4 4596   1.112  16.864  10.201 -0.0987  0.0612  0.0640
  288loPI   GL1 4597   1.104  16.585   9.886 -0.1237  0.1160 -0.0500
  288loPI   GL2 4598   0.803  16.551   9.682 -0.1256  0.2307  0.2104
  288loPI   C1A 4599   1.299  16.627   9.475 -0.4190 -0.2247  0.3402
  288loPI   C2A 4600   1.520  16.567   9.261 -0.1290  0.3483 -0.1028
  288loPI   C3A 4601   1.501  16.610   8.868 -0.0344 -0.2466  0.0235
  288loPI   C4A 4602   1.716  16.547   8.507  0.1170  0.0449 -0.1606
  288loPI   C5A 4603   1.848  16.394   8.071  0.0157 -0.2982 -0.0045
  288loPI   C6A 4604   1.906  16.055   7.887  0.1550  0.0624 -0.2212
  288loPI   C1B 4605   0.913  16.327   9.282 -0.2887 -0.2820 -0.3505
  288loPI   C2B 4606   0.841  16.189   8.810  0.0055 -0.1969 -0.1454
  288loPI   C3B 4607   0.551  16.085   8.498 -0.0441  0.1896 -0.0893
  288loPI   C4B 4608   0.248  16.194   8.107  0.1989 -0.0592  0.1046
  289loPI    C1 4609  11.778   3.439  10.429 -0.2423 -0.0724 -0.1466
  289loPI    C2 4610  11.773   3.698  10.733  0.1020 -0.2646  0.0284
  289loPI    C3 4611  11.533   3.378  10.739 -0.0319 -0.1655  0.0035
  289loPI   PO4 4612  11.859   3.536  10.209 -0.0345 -0.1855  0.2848
  289loPI   GL1 4613  11.672   3.613   9.742  0.0610  0.2064  0.2217
  289loPI   GL2 4614  11.935   3.802   9.747 -0.2433  0.1873 -0.0811
  289loPI   C1A 4615  11.657   3.750   9.275 -0.1884 -0.0668 -0.3008
  289loPI   C2A 4616  11.635   3.694   8.861  0.2022 -0.0028 -0.1827
  289loPI   C3A 4617  11.453   3.943   8.561 -0.3096  0.2747  0.0900
  289loPI   C4A 4618  11.189   4.116   8.283  0.0774  0.0397 -0.0599
  289loPI   C5A 4619  11.280   4.117   7.756  0.1900  0.4468 -0.1570
  289loPI   C6A 4620  10.929   4.060   7.509  0.4605 -0.0657  0.0323
  289loPI   C1B 4621  12.298   3.768   9.553  0.0283 -0.0570 -0.1420
  289loPI   C2B 4622  12.485   3.984   9.279 -0.4514  0.0800 -0.1250
  289loPI   C3B 4623  12.532   4.074   8.861  0.1170 -0.0156  0.3461
  289loPI   C4B 4624  12.510   4.306   8.427 -0.2191  0.0716  0.0828
  290loPI    C1 4625   8.279   5.880  10.665  0.1007 -0.1884 -0.1528
  290loPI    C2 4626   8.164   5.657  10.977  0.1568  0.0674  0.0549
  290loPI    C3 4627   7.945   5.973  10.865 -0.0301 -0.2000 -0.3623
  290loPI   PO4 4628   8.369   5.695  10.426 -0.1441 -0.1346 -0.2187
  290loPI   GL1 4629   8.374   5.453   9.985  0.4883 -0.1141  0.2059
  290loPI   GL2 4630   8.096   5.512  10.042  0.1569  0.2073  0.0521
  290loPI   C1A 4631   8.290   5.528   9.601  0.0379 -0.1297 -0.0811
  290loPI   C2A 4632   8.263   5.539   9.115 -0.0193  0.0167  0.2439
  290loPI   C3A 4633   8.393   5.631   8.650 -0.0091 -0.1847 -0.3640
  290loPI   C4A 4634   8.773   5.519   8.482  0.0179  0.1724 -0.0391
  290loPI   C5A 4635   9.113   5.782   8.343 -0.2054  0.0191  0.0071
  290loPI   C6A 4636   9.441   6.070   8.258  0.1827  0.0191 -0.0822
  290loPI   C1B 4637   7.796   5.475   9.715  0.1238  0.0372 -0.2178
  290loPI   C2B 4638   7.765   5.468   9.241 -0.0405 -0.3928 -0.4638
  290loPI   C3B 4639   7.836   5.527   8.841  0.0002 -0.2913 -0.1283
  290loPI   C4B 4640   7.875   5.545   8.486  0.1357 -0.1609  0.1423
  291loPI    C1 4641  13.939   2.097  10.408 -0.0050 -0.1489 -0.0097
  291loPI    C2 4642  14.207   1.804  10.353  0.1184 -0.0464  0.0407
  291loPI    C3 4643  14.261   2.073  10.645 -0.0215 -0.0039  0.0284
  291loPI   PO4 4644  13.870   2.173  10.168 -0.1365  0.0869 -0.0789
  291loPI   GL1 4645  14.101   1.929   9.823 -0.0398 -0.3761 -0.2181
  291loPI   GL2 4646  14.390   1.747   9.844  0.4395 -0.1025 -0.1602
  291loPI   C1A 4647  14.218   2.042   9.387  0.1426  0.0139 -0.1527
  291loPI   C2A 4648  14.243   2.097   9.007 -0.1461 -0.0592 -0.4830
  291loPI   C3A 4649  14.214   2.318   8.656 -0.1187 -0.0754  0.1028
  291loPI   C4A 4650  14.546   2.634   8.530  0.0755 -0.1177  0.0103
  291loPI   C5A 4651  14.779   2.689   8.199  0.1164  0.1002  0.2703
  291loPI   C6A 4652  14.738   2.366   7.969  0.1696 -0.3627  0.0744
  291loPI   C1B 4653  14.252   1.481   9.403  0.1897  0.0055  0.2259
  291loPI   C2B 4654  14.281   1.176   9.048 -0.0137  0.0492  0.2820
  291loPI   C3B 4655  14.679   0.972   8.918  0.0329 -0.0451  0.2484
  291loPI   C4B 4656  14.990   0.902   8.656  0.0856 -0.1268  0.2484
  292loPI    C1 4657   0.325  13.400  10.686  0.1664 -0.1754  0.0200
  292loPI    C2 4658   0.122  13.723  10.807  0.0988 -0.2861  0.2054
  292loPI    C3 4659  -0.032  13.483  10.526  0.2760 -0.0043 -0.1397
  292loPI   PO4 4660   0.588  13.486  10.541 -0.0924  0.3229  0.1140
  292loPI   GL1 4661   1.030  13.303  10.348  0.2677  0.3161  0.2128
  292loPI   GL2 4662   1.306  13.006  10.258 -0.0826  0.2206  0.2053
  292loPI   C1A 4663   0.785  13.400   9.931  0.1838 -0.3518 -0.3043
  292loPI   C2A 4664   0.630  13.431   9.544  0.1101  0.1227  0.0414
  292loPI   C3A 4665   0.327  13.475   9.109 -0.0974 -0.0158 -0.0875
  292loPI   C4A 4666   0.355  13.533   8.568 -0.3425 -0.0251  0.4350
  292loPI   C5A 4667   0.785  13.631   8.321 -0.2523  0.2659 -0.1138
  292loPI   C6A 4668   1.241  13.434   8.510 -0.0053 -0.2990 -0.1394
  292loPI   C1B 4669   1.324  13.253   9.959 -0.0539  0.0203 -0.0526
  292loPI   C2B 4670   1.134  13.566   9.523  0.1216  0.1820  0.0747
  292loPI   C3B 4671   0.877  13.752   9.187 -0.2289 -0.2009 -0.4511
  292loPI   C4B 4672   0.890  13.711   8.788 -0.0725  0.0321 -0.0993
  293loPI    C1 4673  13.720   5.741  10.658 -0.2221  0.1834 -0.0922
  293loPI    C2 4674  13.764   5.888  11.028 -0.2265  0.2085 -0.1017
  293loPI    C3 4675  14.086   5.790  10.811 -0.2227  0.2284 -0.1051
  293loPI   PO4 4676  13.481   5.800  10.590 -0.0046 -0.0064 -0.1962
  293loPI   GL1 4677  13.159   5.849  10.289  0.0921  0.1778 -0.0808
  293loPI   GL2 4678  13.501   5.685  10.114 -0.1281 -0.0057  0.2682
  293loPI   C1A 4679  13.154   6.014   9.913 -0.1144  0.1382  0.3634
  293loPI   C2A 4680  13.217   6.055   9.526 -0.2460 -0.5079 -0.2332
  293loPI   C3A 4681  13.185   6.209   9.158  0.0128 -0.1250 -0.0694
  293loPI   C4A 4682  13.336   5.974   8.840 -0.0394 -0.2805 -0.1120
  293loPI   C5A 4683  13.434   5.940   8.443  0.0896  0.1370 -0.0201
  293loPI   C6A 4684  13.587   5.950   8.040 -0.2910  0.0210  0.0542
  293loPI   C1B 4685  13.641   5.802   9.694 -0.1306 -0.2486 -0.1725
  293loPI   C2B 4686  13.636   5.929   9.318  0.1778 -0.0403  0.1394
  293loPI   C3B 4687  13.839   5.949   8.972  0.1316  0.1064 -0.3089
  293loPI   C4B 4688  13.904   6.084   8.595  0.4118  0.1980  0.1761
  294loPI    C1 4689   9.525  10.615  11.039 -0.0900 -0.1299  0.0589
  294loPI    C2 4690   9.667  10.959  10.892 -0.1192 -0.1980 -0.1314
  294loPI    C3 4691   9.299  10.945  11.047 -0.0787 -0.1198 -0.0266
  294loPI   PO4 4692   9.522  10.438  10.917  0.2432 -0.1776 -0.1452
  294loPI   GL1 4693   9.466  10.298  10.485 -0.0407  0.0858  0.0658
  294loPI   GL2 4694   9.690  10.038  10.675 -0.0213  0.3226  0.1220
  294loPI   C1A 4695   9.720  10.441  10.073 -0.4818  0.0196 -0.4576
  294loPI   C2A 4696   9.677  10.251   9.746  0.0496  0.0659 -0.0219
  294loPI   C3A 4697   9.811  10.072   9.320 -0.3577 -0.2981 -0.3132
  294loPI   C4A 4698   9.537   9.996   8.973  0.1445  0.0789  0.1997
  294loPI   C5A 4699   9.586   9.793   8.631 -0.0393  0.0098 -0.0700
  294loPI   C6A 4700   9.300   9.535   8.437 -0.1449 -0.1535  0.0983
  294loPI   C1B 4701   9.792   9.953  10.171 -0.1814  0.1528 -0.2469
  294loPI   C2B 4702   9.943   9.820   9.789  0.0160  0.1660 -0.1431
  294loPI   C3B 4703  10.061   9.582   9.418  0.0507  0.0395 -0.0392
  294loPI   C4B 4704   9.887   9.585   8.969  0.2841  0.4179 -0.3810
  295loPI    C1 4705   5.682   0.871  10.601  0.0569 -0.3025  0.1851
  295loPI    C2 4706   5.312   1.022  10.620  0.1446 -0.0057 -0.2958
  295loPI    C3 4707   5.586   1.132  10.889 -0.0938 -0.1787  0.0250
  295loPI   PO4 4708   5.613   0.595  10.414  0.0110 -0.0593 -0.0847
  295loPI   GL1 4709   5.598   0.262  10.130 -0.1640  0.1975 -0.0812
  295loPI   GL2 4710   5.948   0.376  10.141 -0.0679 -0.1172  0.1114
  295loPI   C1A 4711   5.722   0.294   9.727 -0.0381  0.0937 -0.0695
  295loPI   C2A 4712   5.821   0.308   9.307 -0.0309  0.0324 -0.3012
  295loPI   C3A 4713   5.859   0.336   8.800  0.0218  0.2276  0.1396
  295loPI   C4A 4714   5.914   0.272   8.387 -0.2263 -0.0123  0.0062
  295loPI   C5A 4715   5.565   0.123   8.027 -0.2398  0.2510  0.3007
  295loPI   C6A 4716   5.396  -0.350   8.078 -0.1006 -0.1148 -0.0254
  295loPI   C1B 4717   6.139   0.551   9.788 -0.1601 -0.0143  0.0681
  295loPI   C2B 4718   6.233   0.652   9.348 -0.0466 -0.3412 -0.0112
  295loPI   C3B 4719   6.283   0.604   8.954 -0.0997  0.0126 -0.0921
  295loPI   C4B 4720   6.186   0.643   8.532 -0.0957  0.0780 -0.0520
  296loPI    C1 4721   3.437   7.843  10.400 -0.0460 -0.0465 -0.1950
  296loPI    C2 4722   3.076   7.918  10.556  0.0187 -0.1985  0.0337
  296loPI    C3 4723   3.397   8.109  10.696  0.0425 -0.1418 -0.0965
  296loPI   PO4 4724   3.308   7.809  10.081  0.0602  0.0029  0.3194
  296loPI   GL1 4725   2.927   7.662   9.817 -0.1077 -0.1748 -0.0354
  296loPI   GL2 4726   2.628   7.653   9.818 -0.2276 -0.1612 -0.0375
  296loPI   C1A 4727   2.829   7.628   9.387  0.3021 -0.2852 -0.1515
  296loPI   C2A 4728   2.856   7.591   8.974  0.3209  0.0099 -0.1315
  296loPI   C3A 4729   2.831   7.546   8.677  0.3329 -0.1706  0.1547
  296loPI   C4A 4730   2.777   7.412   8.303 -0.2801 -0.0319 -0.1751
  296loPI   C5A 4731   2.652   7.607   7.890  0.0263 -0.0110  0.1322
  296loPI   C6A 4732   2.445   7.930   7.788 -0.0825  0.5583  0.0165
  296loPI   C1B 4733   2.374   7.735   9.551 -0.1464 -0.3902  0.1047
  296loPI   C2B 4734   2.365   7.791   9.103 -0.2388 -0.0013 -0.0860
  296loPI   C3B 4735   2.325   7.688   8.671  0.0425  0.0265 -0.1220
  296loPI   C4B 4736   2.269   7.802   8.323 -0.0818 -0.2708 -0.2208
  297loPI    C1 4737   9.632  13.676  10.446  0.0629  0.1310  0.0859
  297loPI    C2 4738   9.682  13.304  10.583  0.0094  0.1064  0.0390
  297loPI    C3 4739   9.945  13.458  10.324 -0.1358 -0.0108 -0.1816
  297loPI   PO4 4740   9.439  13.728  10.264 -0.0755 -0.2179  0.1029
  297loPI   GL1 4741   9.490  13.791   9.843 -0.4925 -0.1517  0.2270
  297loPI   GL2 4742   9.817  13.778   9.963  0.0370  0.3088 -0.2215
  297loPI   C1A 4743   9.303  13.468   9.650 -0.0927  0.3230  0.2174
  297loPI   C2A 4744   9.149  13.630   9.343  0.0333 -0.0377 -0.1007
  297loPI   C3A 4745   9.188  13.752   8.941 -0.0216  0.1526 -0.3080
  297loPI   C4A 4746   8.974  13.852   8.558  0.3927  0.0747  0.2140
  297loPI   C5A 4747   8.924  14.265   8.219  0.1771  0.1701 -0.4003
  297loPI   C6A 4748   8.972  14.500   7.929  0.1443  0.0490  0.0202
  297loPI   C1B 4749   9.833  13.503   9.650 -0.2081  0.2823  0.3149
  297loPI   C2B 4750   9.578  13.369   9.259 -0.4580  0.0426  0.2021
  297loPI   C3B 4751   9.501  13.253   8.870 -0.2504 -0.2559 -0.3520
  297loPI   C4B 4752   9.133  13.325   8.532 -0.2240  0.1323  0.1631
  298loPI    C1 4753   6.295   5.449  10.775  0.0359  0.0625  0.0313
  298loPI    C2 4754   6.623   5.675  10.740 -0.0245  0.1679  0.1379
  298loPI    C3 4755   6.564   5.457  11.071 -0.0579  0.1423  0.1151
  298loPI   PO4 4756   6.232   5.323  10.632 -0.0315 -0.1787  0.2419
  298loPI   GL1 4757   6.273   5.220  10.138 -0.0577  0.1210 -0.1553
  298loPI   GL2 4758   6.152   5.532  10.075 -0.2451  0.0971  0.1773
  298loPI   C1A 4759   6.408   5.243   9.734  0.4933  0.2963 -0.1913
  298loPI   C2A 4760   6.298   5.332   9.180 -0.2797 -0.0202  0.1172
  298loPI   C3A 4761   6.296   5.281   8.710 -0.1544 -0.0759 -0.1458
  298loPI   C4A 4762   6.103   5.044   8.426  0.4230  0.0935  0.0586
  298loPI   C5A 4763   6.095   5.176   7.952 -0.0873  0.0652  0.0079
  298loPI   C6A 4764   5.726   5.113   7.674  0.0534  0.1685 -0.1176
  298loPI   C1B 4765   6.156   5.721   9.618 -0.1730 -0.1149 -0.2216
  298loPI   C2B 4766   5.790   5.860   9.362  0.0140  0.0528 -0.0997
  298loPI   C3B 4767   5.666   5.963   8.987 -0.2651 -0.2970  0.2431
  298loPI   C4B 4768   5.386   6.170   8.633 -0.2657  0.2249 -0.2052
  299loPI    C1 4769  16.639   6.538  10.934 -0.2002 -0.1723 -0.1477
  299loPI    C2 4770  16.522   6.684  11.288  0.0997  0.0652 -0.1419
  299loPI    C3 4771  16.291   6.422  11.093 -0.1230  0.0213  0.1730
  299loPI   PO4 4772  16.932   6.472  10.965  0.1412 -0.1605  0.0411
  299loPI   GL1 4773  17.199   6.447  10.562 -0.0302 -0.0716  0.1216
  299loPI   GL2 4774  16.870   6.287  10.517  0.0063  0.1545 -0.0256
  299loPI   C1A 4775  17.317   6.627  10.160  0.0908 -0.0554  0.2279
  299loPI   C2A 4776  17.334   6.474   9.691 -0.3628  0.2035  0.1388
  299loPI   C3A 4777  17.239   6.367   9.317  0.0104 -0.2449 -0.0864
  299loPI   C4A 4778  17.320   6.275   8.902 -0.1898  0.2208 -0.0387
  299loPI   C5A 4779  17.394   6.185   8.448  0.2041 -0.0151 -0.3834
  299loPI   C6A 4780  17.636   6.069   8.032  0.1951  0.1352  0.1536
  299loPI   C1B 4781  17.031   6.270  10.124  0.2054 -0.0965  0.0128
  299loPI   C2B 4782  16.988   6.132   9.700 -0.1818  0.2590 -0.1031
  299loPI   C3B 4783  16.880   5.986   9.284 -0.0884  0.2513 -0.0310
  299loPI   C4B 4784  16.960   5.938   8.882 -0.1032 -0.2046  0.0660
  300loPI    C1 4785   8.600  13.649  10.871 -0.1115 -0.0887 -0.0112
  300loPI    C2 4786   8.294  13.908  10.880  0.0893  0.1445  0.3805
  300loPI    C3 4787   8.267  13.559  11.074  0.0152  0.0975  0.2864
  300loPI   PO4 4788   8.791  13.705  10.615  0.1192  0.3346 -0.0389
  300loPI   GL1 4789   8.846  13.793  10.238  0.2234 -0.0916 -0.1919
  300loPI   GL2 4790   8.952  13.795   9.863 -0.0294  0.0518 -0.1101
  300loPI   C1A 4791   8.500  13.765   9.946 -0.2804 -0.2223  0.2655
  300loPI   C2A 4792   8.464  13.963   9.569 -0.2289  0.1483  0.1595
  300loPI   C3A 4793   8.692  13.927   9.184 -0.1554 -0.1733 -0.2700
  300loPI   C4A 4794   8.574  14.111   8.771  0.1102  0.4954 -0.1267
  300loPI   C5A 4795   8.416  14.358   8.346 -0.0633  0.1280 -0.0046
  300loPI   C6A 4796   8.058  14.438   8.101 -0.0791  0.0386 -0.1583
  300loPI   C1B 4797   8.925  14.107   9.604 -0.3089  0.0557  0.0235
  300loPI   C2B 4798   9.159  14.248   9.272 -0.3077 -0.1736  0.0945
  300loPI   C3B 4799   9.320  14.241   8.869  0.0240 -0.0373  0.0685
  300loPI   C4B 4800   9.663  14.232   8.654  0.0469  0.1517  0.0347
  301loPI    C1 4801  13.028   4.155  10.676 -0.0836 -0.1611  0.2531
  301loPI    C2 4802  13.370   3.950  10.710 -0.0471 -0.0987  0.2632
  301loPI    C3 4803  13.041   3.769  10.571  0.0378 -0.1086  0.0714
  301loPI   PO4 4804  13.126   4.394  10.555 -0.2335  0.2127 -0.1604
  301loPI   GL1 4805  13.048   4.515  10.117  0.2028  0.1016  0.1053
  301loPI   GL2 4806  13.317   4.552   9.932  0.1384 -0.0416 -0.0530
  301loPI   C1A 4807  12.904   4.773   9.774  0.1062 -0.0198  0.1204
  301loPI   C2A 4808  12.915   4.882   9.377 -0.0245 -0.0023 -0.1318
  301loPI   C3A 4809  12.692   5.186   9.244 -0.1649  0.2775 -0.0495
  301loPI   C4A 4810  12.726   5.273   8.843  0.0093 -0.5479 -0.1481
  301loPI   C5A 4811  12.689   5.262   8.386  0.1839  0.0493 -0.0865
  301loPI   C6A 4812  12.944   5.117   8.122  0.1288  0.1399  0.0796
  301loPI   C1B 4813  13.276   4.498   9.480  0.2088 -0.1932  0.0967
  301loPI   C2B 4814  13.371   4.633   9.038  0.2055  0.0569 -0.1089
  301loPI   C3B 4815  13.395   4.655   8.630 -0.4810  0.2251 -0.5685
  301loPI   C4B 4816  13.363   4.617   8.144  0.3371 -0.2060 -0.1840
  302loPI    C1 4817   5.537   4.672  10.398  0.1907  0.1212 -0.0509
  302loPI    C2 4818   5.771   4.586  10.710  0.1359 -0.0252 -0.0497
  302loPI    C3 4819   5.441   4.804  10.762  0.1984  0.0649 -0.0284
  302loPI   PO4 4820   5.612   4.688  10.149  0.0363 -0.0153  0.0439
  302loPI   GL1 4821   5.738   4.405   9.769  0.1500  0.2139  0.0771
  302loPI   GL2 4822   5.953   4.292   9.749 -0.2234 -0.1658  0.1968
  302loPI   C1A 4823   5.491   4.102   9.531 -0.0407 -0.1894 -0.3756
  302loPI   C2A 4824   5.194   3.781   9.445 -0.2511  0.1243 -0.2228
  302loPI   C3A 4825   5.145   3.662   9.001 -0.4668 -0.0709 -0.0358
  302loPI   C4A 4826   5.111   3.695   8.608  0.2667  0.1647  0.0127
  302loPI   C5A 4827   5.240   3.901   8.201 -0.0919  0.2539  0.0364
  302loPI   C6A 4828   5.308   3.936   7.704  0.1686  0.0733  0.2780
  302loPI   C1B 4829   5.871   4.398   9.281 -0.0432 -0.0850 -0.0388
  302loPI   C2B 4830   5.851   4.302   8.821  0.1954  0.0146  0.1461
  302loPI   C3B 4831   5.764   4.479   8.455  0.0289  0.2405  0.0891
  302loPI   C4B 4832   5.664   4.931   8.540 -0.1262  0.2379 -0.0817
  303loPI    C1 4833   9.016   9.625  10.740  0.2285  0.0832 -0.0006
  303loPI    C2 4834   9.151   9.993  10.814 -0.1232  0.2505 -0.1651
  303loPI    C3 4835   9.249   9.809  10.473  0.3646  0.0329  0.0827
  303loPI   PO4 4836   8.709   9.611  10.843 -0.1724  0.0739  0.1200
  303loPI   GL1 4837   8.483   9.453  10.489 -0.2375 -0.3423 -0.1803
  303loPI   GL2 4838   8.729   9.251  10.481 -0.2643  0.1684  0.4232
  303loPI   C1A 4839   8.385   9.440  10.086  0.1392 -0.1899  0.0665
  303loPI   C2A 4840   8.311   9.499   9.798 -0.2405 -0.0197  0.0491
  303loPI   C3A 4841   8.390   9.395   9.409 -0.1302  0.1277  0.3287
  303loPI   C4A 4842   8.298   9.441   8.965 -0.0905  0.0356 -0.4135
  303loPI   C5A 4843   8.324   9.603   8.543 -0.1475 -0.0277  0.1701
  303loPI   C6A 4844   8.164   9.190   8.378  0.1194  0.0331  0.0057
  303loPI   C1B 4845   8.833   9.231  10.113 -0.1932  0.4210  0.0496
  303loPI   C2B 4846   8.742   9.132   9.727 -0.4660  0.3092 -0.0249
  303loPI   C3B 4847   8.671   9.028   9.189 -0.0182  0.0426 -0.1933
  303loPI   C4B 4848   8.600   8.981   8.769  0.0265  0.1025 -0.1798
  304loPI    C1 4849   3.666   9.358  10.359  0.0053 -0.0129  0.0603
  304loPI    C2 4850   3.563   9.718  10.500  0.2658  0.0685  0.0494
  304loPI    C3 4851   3.665   9.426  10.753 -0.1346 -0.0616  0.0689
  304loPI   PO4 4852   3.506   9.342  10.208  0.0897 -0.1344 -0.3079
  304loPI   GL1 4853   3.409   9.437   9.806 -0.0234  0.0698 -0.2113
  304loPI   GL2 4854   3.599   9.096   9.786  0.2065  0.2794  0.1098
  304loPI   C1A 4855   3.340   9.768   9.492 -0.1203 -0.1274  0.0432
  304loPI   C2A 4856   3.535   9.773   9.030 -0.1343 -0.0496 -0.1365
  304loPI   C3A 4857   3.743  10.087   8.763 -0.3580  0.1237 -0.1459
  304loPI   C4A 4858   3.866  10.292   8.353 -0.4647 -0.0261  0.4244
  304loPI   C5A 4859   4.171  10.552   8.183  0.0971 -0.0577  0.4032
  304loPI   C6A 4860   4.606  10.478   7.951  0.0834  0.0034 -0.0407
  304loPI   C1B 4861   3.769   9.064   9.346  0.0330 -0.2014  0.0711
  304loPI   C2B 4862   3.791   9.303   8.912 -0.0513  0.3397 -0.1226
  304loPI   C3B 4863   3.544   9.367   8.444 -0.0007 -0.2286  0.1831
  304loPI   C4B 4864   3.348   9.500   8.056 -0.1273 -0.2066  0.1004
  305loPI    C1 4865  13.111  13.661  10.710  0.1105 -0.0154  0.0544
  305loPI    C2 4866  13.489  13.766  10.791  0.0658  0.1398  0.0642
  305loPI    C3 4867  13.198  14.041  10.800 -0.0469  0.0220  0.0505
  305loPI   PO4 4868  13.145  13.493  10.580 -0.3407  0.0531 -0.3532
  305loPI   GL1 4869  13.324  13.507  10.232  0.1529 -0.2160 -0.0254
  305loPI   GL2 4870  13.247  13.920  10.266 -0.1278  0.3128  0.0767
  305loPI   C1A 4871  13.659  13.468   9.837 -0.1160 -0.2227 -0.1495
  305loPI   C2A 4872  13.576  13.277   9.418  0.1427 -0.1767  0.0912
  305loPI   C3A 4873  13.621  13.292   8.975  0.0220  0.0862  0.3555
  305loPI   C4A 4874  13.540  13.117   8.616 -0.1564 -0.0138 -0.0881
  305loPI   C5A 4875  13.405  12.755   8.626 -0.1149 -0.1941  0.1648
  305loPI   C6A 4876  13.146  12.466   8.480  0.3056  0.3193 -0.1304
  305loPI   C1B 4877  13.265  13.808   9.867  0.0601 -0.2423  0.1549
  305loPI   C2B 4878  13.176  13.530   9.527 -0.2299 -0.1442  0.1868
  305loPI   C3B 4879  13.251  13.648   9.195 -0.0887 -0.1501 -0.0647
  305loPI   C4B 4880  13.027  13.824   8.912  0.0744  0.2416 -0.0243
  306loPI    C1 4881   9.560   6.570  10.926 -0.0915 -0.1622  0.0639
  306loPI    C2 4882   9.561   6.181  10.832 -0.1963 -0.1986  0.2107
  306loPI    C3 4883   9.748   6.307  11.162  0.1397 -0.0760 -0.0212
  306loPI   PO4 4884   9.506   6.696  10.694  0.0207 -0.0220 -0.0115
  306loPI   GL1 4885   9.582   6.793  10.353 -0.1130  0.3031 -0.1297
  306loPI   GL2 4886   9.660   6.393  10.325 -0.0248  0.0160 -0.1421
  306loPI   C1A 4887   9.708   6.840   9.949 -0.0768  0.0887  0.1536
  306loPI   C2A 4888   9.698   7.200   9.796  0.0450 -0.3340  0.4944
  306loPI   C3A 4889   9.708   7.231   9.363  0.0985  0.0175  0.0105
  306loPI   C4A 4890   9.561   7.373   8.994 -0.0357  0.0982 -0.2671
  306loPI   C5A 4891   9.270   7.403   8.708  0.0734 -0.0569  0.0448
  306loPI   C6A 4892   9.099   7.763   8.425 -0.0419 -0.0382 -0.0052
  306loPI   C1B 4893   9.551   6.376   9.962  0.0074  0.2711  0.0756
  306loPI   C2B 4894   9.605   6.478   9.567 -0.1431 -0.3012 -0.1371
  306loPI   C3B 4895   9.653   6.800   9.177  0.1996  0.0194  0.1413
  306loPI   C4B 4896   9.702   7.003   8.699  0.2731 -0.1030  0.0797
  307loPI    C1 4897   2.014   1.407  10.778 -0.0599 -0.2176  0.1338
  307loPI    C2 4898   1.904   1.776  10.884  0.0832 -0.1439  0.0298
  307loPI    C3 4899   2.015   1.512  11.164  0.1099 -0.0656  0.0937
  307loPI   PO4 4900   2.148   1.541  10.526 -0.0403 -0.3993  0.1602
  307loPI   GL1 4901   2.262   1.419  10.053 -0.3831  0.0398 -0.0131
  307loPI   GL2 4902   2.512   1.173  10.132 -0.1057  0.1309 -0.4588
  307loPI   C1A 4903   2.248   1.421   9.626  0.0033  0.1883  0.0779
  307loPI   C2A 4904   2.340   1.498   9.152  0.1496 -0.4361 -0.0564
  307loPI   C3A 4905   2.687   1.479   8.950  0.0123  0.4473 -0.2041
  307loPI   C4A 4906   3.037   1.711   8.758  0.0782 -0.2069  0.0121
  307loPI   C5A 4907   2.967   1.910   8.458 -0.2050 -0.3878 -0.2876
  307loPI   C6A 4908   2.663   2.108   8.293  0.0088  0.1891  0.2641
  307loPI   C1B 4909   2.465   1.022   9.757 -0.0389 -0.0185  0.1012
  307loPI   C2B 4910   2.587   1.021   9.261 -0.0815 -0.0080 -0.1372
  307loPI   C3B 4911   2.359   1.110   8.782 -0.3860  0.0090 -0.0681
  307loPI   C4B 4912   2.277   1.062   8.372  0.0109  0.0994 -0.1531
  308loPI    C1 4913  15.670   7.719  10.233 -0.0838  0.1676 -0.0440
  308loPI    C2 4914  15.881   7.746  10.572  0.2525 -0.0024 -0.2345
  308loPI    C3 4915  15.725   7.395  10.460 -0.0680  0.1054 -0.1359
  308loPI   PO4 4916  15.785   7.816  10.022 -0.0860  0.0667 -0.1503
  308loPI   GL1 4917  16.196   7.801   9.795  0.3005  0.2744  0.3881
  308loPI   GL2 4918  16.226   8.132   9.868  0.0707 -0.1093 -0.2905
  308loPI   C1A 4919  16.281   7.780   9.330  0.1854  0.1637 -0.1006
  308loPI   C2A 4920  16.332   7.815   8.833  0.0829  0.1132  0.1118
  308loPI   C3A 4921  16.136   7.422   8.479  0.0396  0.0520 -0.1008
  308loPI   C4A 4922  16.226   7.369   8.060 -0.1105 -0.3454 -0.1257
  308loPI   C5A 4923  16.075   7.392   7.683 -0.1533 -0.1066 -0.2711
  308loPI   C6A 4924  16.041   7.541   7.284  0.0291  0.1480 -0.2282
  308loPI   C1B 4925  16.549   8.206   9.549  0.1761 -0.0451  0.1096
  308loPI   C2B 4926  16.595   8.144   9.066  0.0896 -0.3100 -0.0771
  308loPI   C3B 4927  16.580   8.194   8.603 -0.1563  0.1176 -0.0289
  308loPI   C4B 4928  16.872   8.031   8.253  0.0995 -0.2770  0.0689
  309loPI    C1 4929  14.817  14.579  10.734  0.0334 -0.0996 -0.1390
  309loPI    C2 4930  14.850  14.205  10.871  0.1506 -0.0036  0.1004
  309loPI    C3 4931  14.501  14.399  10.901  0.0661 -0.1214 -0.1003
  309loPI   PO4 4932  14.866  14.628  10.505  0.1164 -0.2855 -0.1832
  309loPI   GL1 4933  14.783  14.646  10.116  0.0516 -0.3129 -0.2338
  309loPI   GL2 4934  14.618  14.921  10.017 -0.1816 -0.1502 -0.1181
  309loPI   C1A 4935  15.058  14.506   9.762 -0.2672  0.2943  0.1903
  309loPI   C2A 4936  15.348  14.556   9.452 -0.1005  0.1798 -0.0111
  309loPI   C3A 4937  15.520  14.595   8.986  0.3219 -0.0519 -0.2816
  309loPI   C4A 4938  15.863  14.555   8.666 -0.2132  0.1340  0.2082
  309loPI   C5A 4939  15.631  14.689   8.329 -0.2977 -0.0966  0.0297
  309loPI   C6A 4940  15.655  14.875   7.976  0.1262  0.3147 -0.2559
  309loPI   C1B 4941  14.837  15.013   9.660 -0.0294  0.2749 -0.1183
  309loPI   C2B 4942  14.898  14.799   9.367  0.1335 -0.0492  0.0744
  309loPI   C3B 4943  14.993  14.726   9.005 -0.1756  0.1647  0.0661
  309loPI   C4B 4944  15.212  14.581   8.578 -0.0500 -0.0718  0.1769
  310loPI    C1 4945   4.932  11.644  10.656 -0.1854  0.3076  0.3282
  310loPI    C2 4946   4.665  11.360  10.565  0.0164  0.1697  0.1580
  310loPI    C3 4947   4.714  11.473  10.945 -0.0033 -0.0876  0.2392
  310loPI   PO4 4948   4.930  11.778  10.407  0.2756 -0.0221  0.2409
  310loPI   GL1 4949   4.808  11.924  10.009  0.0453  0.0410 -0.1808
  310loPI   GL2 4950   4.486  12.094  10.015  0.0467 -0.4531  0.5083
  310loPI   C1A 4951   5.048  11.982   9.657 -0.3457 -0.0944  0.1780
  310loPI   C2A 4952   5.161  11.799   9.320  0.2894 -0.0625 -0.1193
  310loPI   C3A 4953   5.065  11.706   8.893  0.1063  0.2011 -0.0840
  310loPI   C4A 4954   5.189  11.691   8.584 -0.2023  0.1732  0.0370
  310loPI   C5A 4955   5.332  11.519   8.184  0.2104 -0.1592 -0.0276
  310loPI   C6A 4956   5.286  11.272   7.765 -0.0896 -0.2073 -0.0232
  310loPI   C1B 4957   4.589  12.121   9.520  0.2440  0.0234  0.1372
  310loPI   C2B 4958   4.680  11.965   9.134  0.0613  0.1834 -0.1563
  310loPI   C3B 4959   4.660  11.809   8.643 -0.0842  0.3608  0.2937
  310loPI   C4B 4960   4.870  11.854   8.210 -0.2223  0.1661  0.1530
  311loPI    C1 4961  10.634  10.374  10.563 -0.0828  0.1208  0.1623
  311loPI    C2 4962  10.914  10.524  10.807 -0.1118 -0.0795  0.3219
  311loPI    C3 4963  10.805  10.141  10.839 -0.1300 -0.1041  0.0045
  311loPI   PO4 4964  10.415  10.605  10.568  0.1195 -0.1291 -0.4475
  311loPI   GL1 4965  10.193  10.781  10.183  0.0252  0.1087  0.1521
  311loPI   GL2 4966  10.070  11.025  10.082 -0.1653  0.0220 -0.2470
  311loPI   C1A 4967   9.973  10.685   9.712  0.0942  0.1919  0.2266
  311loPI   C2A 4968  10.006  10.568   9.205  0.1882  0.1245  0.0818
  311loPI   C3A 4969  10.051  10.250   8.841  0.0448 -0.2410  0.0270
  311loPI   C4A 4970  10.075   9.850   8.635 -0.0064  0.1471  0.2588
  311loPI   C5A 4971   9.918   9.465   8.411  0.2572 -0.1772 -0.0453
  311loPI   C6A 4972   9.876   8.980   8.437  0.0908 -0.0012 -0.0482
  311loPI   C1B 4973  10.302  11.085   9.743  0.0791  0.3530 -0.0092
  311loPI   C2B 4974  10.150  11.044   9.401  0.1819  0.0079 -0.0725
  311loPI   C3B 4975  10.068  11.021   8.990  0.0719  0.2172 -0.3308
  311loPI   C4B 4976  10.006  11.094   8.589 -0.0465 -0.0112  0.0699
  312loPI    C1 4977   9.587   5.126  10.749  0.0283  0.2506 -0.0051
  312loPI    C2 4978   9.602   4.729  10.790 -0.0273  0.2399 -0.0864
  312loPI    C3 4979   9.303   4.936  10.956  0.1282  0.2743  0.1559
  312loPI   PO4 4980   9.689   5.235  10.470 -0.0861  0.1008 -0.2873
  312loPI   GL1 4981   9.688   5.281  10.087 -0.1116 -0.1177 -0.4587
  312loPI   GL2 4982   9.852   5.158   9.898  0.1293  0.1554  0.3633
  312loPI   C1A 4983   9.566   5.542   9.615 -0.0545  0.2209 -0.2515
  312loPI   C2A 4984   9.854   5.666   9.327  0.2451  0.0361 -0.0710
  312loPI   C3A 4985   9.848   5.691   8.916 -0.1769 -0.0369 -0.4824
  312loPI   C4A 4986   9.895   6.084   8.657  0.3034 -0.0367 -0.2160
  312loPI   C5A 4987   9.982   6.154   8.176  0.2977 -0.2152 -0.0912
  312loPI   C6A 4988   9.958   6.091   7.712  0.0270 -0.0207 -0.0703
  312loPI   C1B 4989  10.064   5.017   9.507  0.1683 -0.0918  0.0723
  312loPI   C2B 4990  10.242   4.885   9.209 -0.0151 -0.0032 -0.3966
  312loPI   C3B 4991  10.309   4.812   8.810 -0.1362  0.0783  0.2230
  312loPI   C4B 4992  10.330   4.913   8.351 -0.0700  0.2232 -0.5937
  313loPI    C1 4993   2.595  12.130  10.638 -0.1455  0.0070  0.0540
  313loPI    C2 4994   2.637  11.969  10.275 -0.0076 -0.0126  0.0781
  313loPI    C3 4995   2.859  11.836  10.579 -0.2297 -0.1004  0.2045
  313loPI   PO4 4996   2.339  12.224  10.548  0.1467 -0.0517 -0.2956
  313loPI   GL1 4997   2.143  12.019  10.204 -0.1726  0.3149  0.1619
  313loPI   GL2 4998   2.284  12.236  10.040 -0.3218  0.1564  0.2400
  313loPI   C1A 4999   1.903  11.996   9.877  0.2779 -0.1693  0.1985
  313loPI   C2A 5000   1.848  12.014   9.444  0.0140  0.0912  0.2306
  313loPI   C3A 5001   1.912  12.163   8.980 -0.3091  0.1333 -0.2789
  313loPI   C4A 5002   1.696  12.409   8.725 -0.1220  0.0613 -0.1642
  313loPI   C5A 5003   1.719  12.603   8.396  0.1115  0.0987  0.0587
  313loPI   C6A 5004   1.968  12.489   7.987 -0.1241 -0.1845 -0.0962
  313loPI   C1B 5005   2.483  12.417   9.725  0.0810  0.2252 -0.0576
  313loPI   C2B 5006   2.256  12.468   9.418  0.0629 -0.3926 -0.0365
  313loPI   C3B 5007   2.258  12.553   8.977  0.2093  0.2254  0.5011
  313loPI   C4B 5008   2.144  12.302   8.536 -0.0209 -0.0960  0.3195
  314loPI    C1 5009  15.470  14.067  10.436  0.1113  0.2661 -0.0398
  314loPI    C2 5010  15.101  14.217  10.481  0.0915  0.2065 -0.0033
  314loPI    C3 5011  15.229  14.106  10.119 -0.0237 -0.0221  0.0241
  314loPI   PO4 5012  15.654  14.281  10.428  0.3507 -0.0384  0.0197
  314loPI   GL1 5013  15.857  14.502  10.182  0.1300 -0.2911  0.0917
  314loPI   GL2 5014  16.149  14.461  10.060 -0.0479 -0.1509 -0.2258
  314loPI   C1A 5015  15.752  14.523   9.773  0.3785 -0.0855 -0.2444
  314loPI   C2A 5016  15.876  14.466   9.324  0.0227 -0.0016 -0.1061
  314loPI   C3A 5017  15.915  14.123   8.899  0.0473 -0.1387 -0.0292
  314loPI   C4A 5018  15.872  13.744   8.658  0.0868  0.0401  0.0561
  314loPI   C5A 5019  15.599  13.864   8.277  0.4624 -0.0299 -0.0713
  314loPI   C6A 5020  15.512  13.685   7.869  0.0852  0.2114 -0.1111
  314loPI   C1B 5021  16.219  14.339   9.671 -0.2576  0.0027  0.0213
  314loPI   C2B 5022  16.065  14.040   9.454 -0.0042 -0.3285 -0.1851
  314loPI   C3B 5023  15.992  13.702   9.153 -0.0872  0.2221 -0.3633
  314loPI   C4B 5024  16.002  13.283   8.984  0.0801  0.0017 -0.2833
  315loPI    C1 5025   6.462   3.140  10.431 -0.1005  0.0280  0.1140
  315loPI    C2 5026   6.084   3.099  10.304 -0.0330 -0.3382  0.0192
  315loPI    C3 5027   6.174   3.036  10.688 -0.1569  0.3028  0.1647
  315loPI   PO4 5028   6.549   3.336  10.252 -0.0768 -0.3542 -0.6544
  315loPI   GL1 5029   6.703   3.662   9.903 -0.3151  0.1135  0.0197
  315loPI   GL2 5030   7.040   3.717   9.875  0.0349 -0.0720  0.1695
  315loPI   C1A 5031   6.523   3.695   9.531  0.1882  0.1957 -0.0447
  315loPI   C2A 5032   6.341   3.808   9.209  0.0912  0.0859  0.0355
  315loPI   C3A 5033   6.187   3.902   8.849 -0.1837 -0.3656 -0.1184
  315loPI   C4A 5034   6.007   3.739   8.598 -0.0024 -0.0696  0.1048
  315loPI   C5A 5035   5.788   3.762   8.323  0.4081  0.0887  0.1795
  315loPI   C6A 5036   5.651   3.598   7.933 -0.0749 -0.0184  0.0783
  315loPI   C1B 5037   6.915   4.059   9.610  0.0008  0.3773 -0.1772
  315loPI   C2B 5038   6.738   4.095   9.196  0.0966 -0.1445  0.1851
  315loPI   C3B 5039   6.661   3.954   8.798  0.4129 -0.2621 -0.0124
  315loPI   C4B 5040   6.446   3.885   8.402 -0.1541 -0.3169  0.0232
  316loPI    C1 5041  14.268  11.553  10.470  0.0459 -0.1010  0.1209
  316loPI    C2 5042  13.916  11.726  10.552 -0.0189 -0.2009  0.0565
  316loPI    C3 5043  14.034  11.404  10.759  0.1678  0.0049  0.2755
  316loPI   PO4 5044  14.246  11.572  10.213  0.1871 -0.0962  0.1274
  316loPI   GL1 5045  14.339  11.597   9.929  0.1745  0.0717 -0.0201
  316loPI   GL2 5046  14.708  11.481   9.846  0.1546  0.3708 -0.0118
  316loPI   C1A 5047  14.194  11.474   9.541 -0.0122  0.0313 -0.0061
  316loPI   C2A 5048  14.178  11.523   9.190 -0.1393 -0.0689 -0.1318
  316loPI   C3A 5049  14.236  11.619   8.712  0.1869 -0.0359 -0.3792
  316loPI   C4A 5050  14.219  11.588   8.297  0.1035  0.0192 -0.0365
  316loPI   C5A 5051  14.421  11.351   8.038  0.2651  0.0022 -0.0732
  316loPI   C6A 5052  14.565  11.064   7.724 -0.0941  0.3148 -0.1009
  316loPI   C1B 5053  14.660  11.320   9.431  0.0478 -0.2836  0.0977
  316loPI   C2B 5054  14.635  11.354   8.931  0.1164 -0.0656 -0.2328
  316loPI   C3B 5055  14.585  11.378   8.526 -0.0165  0.1176  0.2330
  316loPI   C4B 5056  14.824  11.541   8.159 -0.1384 -0.2420  0.0529
  317loPI    C1 5057   9.848   1.184  10.469  0.2827  0.1396  0.1944
  317loPI    C2 5058   9.464   1.297  10.486  0.2670  0.1773 -0.2769
  317loPI    C3 5059   9.611   1.047  10.761 -0.0948  0.1607 -0.0929
  317loPI   PO4 5060   9.911   1.134  10.205 -0.0002 -0.0242  0.2384
  317loPI   GL1 5061   9.793   1.030   9.834  0.0957 -0.2257 -0.3586
  317loPI   GL2 5062   9.926   1.371   9.761 -0.0843 -0.0187 -0.2613
  317loPI   C1A 5063   9.791   0.958   9.399  0.1076 -0.2892 -0.1555
  317loPI   C2A 5064   9.833   1.140   8.984  0.3408 -0.1343  0.0968
  317loPI   C3A 5065   9.757   1.041   8.602 -0.0870  0.2085  0.0580
  317loPI   C4A 5066   9.404   0.759   8.314 -0.2543 -0.0819 -0.0197
  317loPI   C5A 5067   9.320   0.579   7.937 -0.2701 -0.3154  0.1320
  317loPI   C6A 5068   9.006   0.357   7.660 -0.2812  0.1586  0.1484
  317loPI   C1B 5069  10.016   1.473   9.300 -0.0498 -0.2380  0.0765
  317loPI   C2B 5070  10.221   1.431   8.786  0.2807  0.1885  0.0184
  317loPI   C3B 5071  10.082   1.292   8.358  0.2024  0.1081  0.2758
  317loPI   C4B 5072   9.956   1.296   7.927  0.2048  0.0969  0.0079
  318loPI    C1 5073   8.675   8.559  11.059  0.2199 -0.0578  0.0406
  318loPI    C2 5074   8.703   8.852  11.330  0.2350 -0.3653  0.3780
  318loPI    C3 5075   8.425   8.567  11.371  0.1366 -0.3308 -0.0164
  318loPI   PO4 5076   8.898   8.652  10.885  0.1987  0.1683 -0.1104
  318loPI   GL1 5077   9.015   8.832  10.519  0.0112 -0.2505  0.2258
  318loPI   GL2 5078   9.225   9.163  10.560 -0.3914  0.0515  0.2927
  318loPI   C1A 5079   9.196   8.844  10.089 -0.1350 -0.1551 -0.0835
  318loPI   C2A 5080   9.245   9.111   9.626 -0.0759  0.2698  0.0184
  318loPI   C3A 5081   9.224   9.160   9.202  0.0683  0.0291 -0.3489
  318loPI   C4A 5082   9.076   9.125   8.812  0.1113  0.2569  0.3122
  318loPI   C5A 5083   9.242   9.030   8.510 -0.3196  0.1854 -0.3576
  318loPI   C6A 5084   9.457   9.132   8.202 -0.5480  0.0136  0.0575
  318loPI   C1B 5085   9.230   9.427  10.246  0.0567 -0.2553 -0.0550
  318loPI   C2B 5086   9.495   9.660   9.918  0.0929  0.2370  0.0397
  318loPI   C3B 5087   9.526   9.671   9.419 -0.1115 -0.1266 -0.0556
  318loPI   C4B 5088   9.276   9.578   9.013  0.1701  0.2023  0.2670
  319loPI    C1 5089   7.187  11.497  10.605  0.2542 -0.1262  0.0363
  319loPI    C2 5090   7.196  11.191  10.862 -0.0040  0.0712  0.2877
  319loPI    C3 5091   7.130  11.562  10.996  0.1516  0.2180 -0.0323
  319loPI   PO4 5092   7.046  11.345  10.360  0.0848  0.0517 -0.1200
  319loPI   GL1 5093   6.839  11.101   9.982  0.1734 -0.1055 -0.1995
  319loPI   GL2 5094   6.813  10.804   9.961  0.3025  0.1262  0.3141
  319loPI   C1A 5095   6.974  11.431   9.692 -0.2412  0.0665  0.0677
  319loPI   C2A 5096   6.983  11.355   9.267 -0.1373 -0.3127  0.0073
  319loPI   C3A 5097   6.852  11.340   8.874 -0.1513  0.0252  0.0764
  319loPI   C4A 5098   6.802  11.161   8.458 -0.1003  0.2405  0.1403
  319loPI   C5A 5099   7.033  11.039   8.053  0.1864  0.0801  0.1837
  319loPI   C6A 5100   7.281  10.743   7.780 -0.0189  0.0427  0.0068
  319loPI   C1B 5101   6.813  10.862   9.507  0.0702  0.2701  0.1141
  319loPI   C2B 5102   6.725  10.824   9.131  0.2089 -0.2605  0.0420
  319loPI   C3B 5103   6.545  10.750   8.746 -0.0489  0.0118 -0.0562
  319loPI   C4B 5104   6.359  10.712   8.346  0.2281 -0.2182 -0.1513
  320loPI    C1 5105  13.117   7.515  10.664 -0.1259 -0.3203 -0.1059
  320loPI    C2 5106  12.896   7.791  10.477  0.0660 -0.0815  0.0141
  320loPI    C3 5107  12.860   7.739  10.872  0.0631 -0.1975 -0.0012
  320loPI   PO4 5108  13.324   7.602  10.645  0.1777  0.0675 -0.1597
  320loPI   GL1 5109  13.452   7.788  10.317 -0.1715 -0.2228  0.1491
  320loPI   GL2 5110  13.741   7.954  10.249 -0.2790  0.1276  0.0672
  320loPI   C1A 5111  13.052   7.911  10.052 -0.0762 -0.1180  0.1211
  320loPI   C2A 5112  12.989   7.811   9.551 -0.0506  0.1384 -0.0268
  320loPI   C3A 5113  12.920   7.787   9.082 -0.1009 -0.0097  0.0536
  320loPI   C4A 5114  12.548   7.769   8.873  0.0757  0.0177 -0.2348
  320loPI   C5A 5115  12.480   7.694   8.458  0.0948  0.3043  0.1159
  320loPI   C6A 5116  12.387   7.536   7.951 -0.1697 -0.2256  0.1106
  320loPI   C1B 5117  13.909   7.905   9.865 -0.2448  0.1932 -0.1844
  320loPI   C2B 5118  14.111   7.980   9.475 -0.0663 -0.0227  0.0161
  320loPI   C3B 5119  14.036   7.971   9.005  0.0781  0.0567 -0.1243
  320loPI   C4B 5120  14.021   8.099   8.607 -0.1983 -0.0872  0.0608
  321loPI    C1 5121   9.249  13.017  10.545  0.0845 -0.0634 -0.0780
  321loPI    C2 5122   9.160  12.764  10.841  0.1223  0.0089 -0.0045
  321loPI    C3 5123   9.349  13.108  10.921 -0.1123  0.1567 -0.0761
  321loPI   PO4 5124   9.388  12.909  10.371  0.2377 -0.0337 -0.2911
  321loPI   GL1 5125   9.390  12.771  10.034  0.0816 -0.1428  0.4536
  321loPI   GL2 5126   9.156  12.519   9.922  0.1399 -0.3503  0.1699
  321loPI   C1A 5127   9.579  12.855   9.657 -0.1460 -0.0164 -0.0888
  321loPI   C2A 5128   9.515  12.798   9.246 -0.0034  0.3152 -0.3128
  321loPI   C3A 5129   9.538  12.701   8.897  0.1337 -0.0440 -0.0079
  321loPI   C4A 5130   9.606  12.483   8.477 -0.1973  0.0080 -0.0566
  321loPI   C5A 5131   9.759  12.267   8.227 -0.0322 -0.1942 -0.0062
  321loPI   C6A 5132   9.592  11.818   8.080  0.1961 -0.2080 -0.2135
  321loPI   C1B 5133   9.074  12.599   9.441 -0.0395  0.2326 -0.0932
  321loPI   C2B 5134   8.976  12.490   8.992 -0.1373  0.0995  0.2808
  321loPI   C3B 5135   9.145  12.437   8.678  0.0830 -0.4101  0.2939
  321loPI   C4B 5136   9.097  12.508   8.136 -0.0149 -0.0619 -0.1377
  322loPI    C1 5137  10.376  17.352  10.546 -0.0622 -0.1834 -0.2206
  322loPI    C2 5138  10.068  17.307  10.797 -0.0050  0.0720 -0.1010
  322loPI    C3 5139  10.375  17.050  10.808 -0.1363 -0.0870 -0.1087
  322loPI   PO4 5140  10.415  17.596  10.513  0.0973 -0.1408  0.0965
  322loPI   GL1 5141  10.501  17.563  10.031  0.0197 -0.0931 -0.0390
  322loPI   GL2 5142  10.296  17.699  10.064 -0.0036 -0.4785 -0.0004
  322loPI   C1A 5143  10.585  17.501   9.644 -0.1356  0.1070  0.1345
  322loPI   C2A 5144  10.403  17.421   9.319 -0.0736 -0.0366 -0.0441
  322loPI   C3A 5145  10.371  17.392   8.925  0.0730  0.0217 -0.2336
  322loPI   C4A 5146  10.446  17.543   8.496 -0.0490 -0.0660  0.0264
  322loPI   C5A 5147  10.680  17.640   8.115  0.0396 -0.1246  0.0224
  322loPI   C6A 5148  10.736  17.674   7.653  0.0988 -0.1219  0.3686
  322loPI   C1B 5149  10.084  17.556   9.664  0.4318 -0.1208  0.2966
  322loPI   C2B 5150   9.972  17.578   9.218  0.0586  0.2447  0.2756
  322loPI   C3B 5151   9.999  17.662   8.810 -0.1498  0.1449 -0.1786
  322loPI   C4B 5152   9.959  17.578   8.314 -0.0154  0.1127 -0.0411
  323loPI    C1 5153   1.754  18.202  10.540 -0.1085  0.0961 -0.0544
  323loPI    C2 5154   2.130  18.086  10.613 -0.0511  0.3858  0.1263
  323loPI    C3 5155   1.826  17.918  10.811 -0.0376  0.0151 -0.1573
  323loPI   PO4 5156   1.703  18.238  10.294  0.3171 -0.0978  0.1883
  323loPI   GL1 5157   1.479  18.348   9.817 -0.3253  0.0626  0.3705
  323loPI   GL2 5158   1.145  18.369   9.836 -0.0948 -0.2460  0.1346
  323loPI   C1A 5159   1.686  18.546   9.533 -0.1309 -0.3932  0.1251
  323loPI   C2A 5160   1.482  18.572   9.050 -0.1530 -0.1114  0.1670
  323loPI   C3A 5161   1.494  18.411   8.610 -0.4037 -0.0490  0.1958
  323loPI   C4A 5162   1.694  18.445   8.197 -0.0555  0.1827  0.2415
  323loPI   C5A 5163   1.907  18.405   7.833  0.0578  0.0664  0.3325
  323loPI   C6A 5164   2.253  18.339   7.503  0.0697  0.1591 -0.2809
  323loPI   C1B 5165   1.186  18.414   9.384 -0.0463  0.0454 -0.1563
  323loPI   C2B 5166   1.071  18.322   8.957  0.0712  0.2738  0.2286
  323loPI   C3B 5167   0.966  18.117   8.603  0.1545 -0.5443 -0.0946
  323loPI   C4B 5168   1.136  18.285   8.265  0.0431 -0.0903 -0.2782
  324loPI    C1 5169   0.704  15.925  10.542 -0.1154 -0.2828 -0.2444
  324loPI    C2 5170   0.865  15.571  10.635 -0.0117 -0.1496  0.0971
  324loPI    C3 5171   0.507  15.673  10.782  0.0024 -0.0737  0.0792
  324loPI   PO4 5172   0.776  16.037  10.290 -0.0684  0.3075  0.5219
  324loPI   GL1 5173   0.529  16.114   9.889 -0.1254 -0.0060 -0.2714
  324loPI   GL2 5174   0.349  15.921   9.845 -0.0803  0.1619  0.0502
  324loPI   C1A 5175   0.409  16.264   9.464  0.0742 -0.1989  0.1085
  324loPI   C2A 5176   0.260  16.137   8.994 -0.4224 -0.1443 -0.2487
  324loPI   C3A 5177  -0.024  16.028   8.657  0.1202  0.1041  0.1601
  324loPI   C4A 5178  -0.228  16.047   8.272 -0.0643  0.2537 -0.0802
  324loPI   C5A 5179  -0.265  16.131   7.829 -0.1116 -0.0367  0.4012
  324loPI   C6A 5180  -0.270  16.074   7.362 -0.1705 -0.1607 -0.1330
  324loPI   C1B 5181   0.317  15.749   9.333  0.1617  0.0092 -0.1009
  324loPI   C2B 5182   0.258  15.674   8.827 -0.0685  0.3051  0.2088
  324loPI   C3B 5183   0.213  15.681   8.389 -0.1764  0.0862  0.0110
  324loPI   C4B 5184   0.273  15.406   8.033  0.3448  0.3907 -0.0318
  325loPI    C1 5185   8.761   4.257  10.383 -0.0748  0.2435  0.2509
  325loPI    C2 5186   8.582   3.926  10.519 -0.1003  0.1420 -0.0223
  325loPI    C3 5187   8.619   4.246  10.757  0.0699 -0.1104  0.2991
  325loPI   PO4 5188   8.708   4.201  10.091 -0.0043  0.0208 -0.0547
  325loPI   GL1 5189   8.343   4.232   9.751  0.1445  0.0935  0.0224
  325loPI   GL2 5190   8.379   4.559   9.831 -0.1401  0.0578 -0.1510
  325loPI   C1A 5191   8.268   4.218   9.286  0.0637  0.0733  0.1688
  325loPI   C2A 5192   8.258   4.285   8.776  0.1762 -0.0082 -0.0960
  325loPI   C3A 5193   8.420   4.237   8.409 -0.1014 -0.0967  0.2186
  325loPI   C4A 5194   8.443   4.310   8.031 -0.0856 -0.3955 -0.1069
  325loPI   C5A 5195   8.733   4.520   7.779 -0.0653  0.1369  0.1804
  325loPI   C6A 5196   9.125   4.452   7.758 -0.4604 -0.4238  0.0602
  325loPI   C1B 5197   8.450   4.671   9.505 -0.2067 -0.1559  0.2178
  325loPI   C2B 5198   8.432   4.709   9.042 -0.0459 -0.0676 -0.0723
  325loPI   C3B 5199   8.421   4.691   8.600  0.2501  0.2718  0.0033
  325loPI   C4B 5200   8.443   4.959   8.308  0.2262 -0.1117 -0.0411
  326loPI    C1 5201  13.474   6.294  10.896 -0.0565  0.1014 -0.1882
  326loPI    C2 5202  13.162   6.152  10.691 -0.0607 -0.0043 -0.1096
  326loPI    C3 5203  13.244   6.008  11.055  0.0292  0.0835 -0.0948
  326loPI   PO4 5204  13.465   6.595  10.696  0.0296 -0.1011  0.0955
  326loPI   GL1 5205  13.309   6.689  10.180  0.2425 -0.1776 -0.0376
  326loPI   GL2 5206  13.694   6.851  10.057  0.2036  0.5725 -0.1035
  326loPI   C1A 5207  13.353   6.895   9.731  0.0843  0.2132  0.0003
  326loPI   C2A 5208  13.445   6.868   9.265  0.2519  0.0569 -0.0770
  326loPI   C3A 5209  13.361   6.621   8.932  0.0966 -0.0025  0.0824
  326loPI   C4A 5210  12.966   6.550   8.891 -0.1605  0.4455 -0.3112
  326loPI   C5A 5211  12.691   6.469   9.231 -0.2631  0.0232 -0.0169
  326loPI   C6A 5212  12.733   6.144   9.523 -0.0781 -0.3173 -0.0846
  326loPI   C1B 5213  13.838   6.954   9.642  0.1550  0.3103  0.0308
  326loPI   C2B 5214  13.903   6.999   9.228 -0.2276  0.1130  0.1854
  326loPI   C3B 5215  13.724   7.076   8.838  0.3807 -0.1121 -0.0735
  326loPI   C4B 5216  13.814   7.173   8.412  0.0229  0.0977  0.2554
  327loPI    C1 5217  16.819  11.258  10.548 -0.1267  0.0691 -0.0158
  327loPI    C2 5218  16.857  10.960  10.812 -0.0597  0.0537 -0.0428
  327loPI    C3 5219  16.522  11.178  10.805 -0.0761  0.0313  0.0311
  327loPI   PO4 5220  16.901  11.222  10.308  0.3208  0.2498 -0.2668
  327loPI   GL1 5221  16.913  11.161   9.873 -0.0007  0.1198  0.1634
  327loPI   GL2 5222  16.912  10.909   9.727 -0.2218  0.2227 -0.2214
  327loPI   C1A 5223  16.826  11.399   9.508  0.2233  0.1580 -0.0528
  327loPI   C2A 5224  16.980  11.644   9.231 -0.1698 -0.1169 -0.0608
  327loPI   C3A 5225  16.972  11.872   8.860  0.2461  0.1779  0.3693
  327loPI   C4A 5226  17.055  12.168   8.547  0.1444  0.0838  0.0637
  327loPI   C5A 5227  16.970  12.207   8.165 -0.0251 -0.0127 -0.1050
  327loPI   C6A 5228  16.850  12.344   7.731 -0.0350  0.2146  0.3875
  327loPI   C1B 5229  16.936  10.952   9.241  0.1284 -0.1906 -0.0137
  327loPI   C2B 5230  16.839  10.938   8.810  0.1548  0.0492  0.0952
  327loPI   C3B 5231  16.892  11.177   8.508 -0.2387 -0.1758  0.1752
  327loPI   C4B 5232  16.781  11.334   8.098 -0.2003  0.1640 -0.1463
  328loPI    C1 5233  14.351   2.745  10.122  0.1276  0.2228  0.2089
  328loPI    C2 5234  14.121   2.573  10.401  0.2127  0.0716  0.1869
  328loPI    C3 5235  13.964   2.844  10.152 -0.0288 -0.2753 -0.0489
  328loPI   PO4 5236  14.595   2.627   9.992  0.1439 -0.1922 -0.1514
  328loPI   GL1 5237  14.754   2.732   9.653 -0.0077 -0.0264  0.0694
  328loPI   GL2 5238  14.456   2.953   9.663 -0.1417 -0.3913  0.1923
  328loPI   C1A 5239  14.782   2.724   9.211  0.4954 -0.1817  0.0690
  328loPI   C2A 5240  14.519   3.011   8.955 -0.2407 -0.1364  0.0143
  328loPI   C3A 5241  14.172   2.768   8.875  0.2882  0.2307  0.3260
  328loPI   C4A 5242  13.703   2.621   8.729  0.0466 -0.0249 -0.0326
  328loPI   C5A 5243  13.365   2.441   8.555 -0.3162  0.1548  0.1230
  328loPI   C6A 5244  13.239   2.038   8.795  0.2330  0.0272 -0.0515
  328loPI   C1B 5245  14.618   3.239   9.391 -0.3352 -0.2005  0.1332
  328loPI   C2B 5246  14.887   3.399   9.134  0.1603  0.0438  0.2561
  328loPI   C3B 5247  14.846   3.514   8.764  0.1130 -0.1921 -0.0977
  328loPI   C4B 5248  14.952   3.767   8.520 -0.2535  0.1516  0.2835
  329loPI    C1 5249   2.430   6.228  10.493 -0.0480  0.1949  0.0081
  329loPI    C2 5250   2.732   6.008  10.634  0.1387  0.3113 -0.2029
  329loPI    C3 5251   2.571   6.294  10.862  0.1556  0.2183 -0.0725
  329loPI   PO4 5252   2.540   6.255  10.233 -0.0980  0.1476 -0.0346
  329loPI   GL1 5253   2.651   6.366   9.784 -0.2092  0.0028 -0.1791
  329loPI   GL2 5254   2.888   6.599   9.668  0.2462  0.2601  0.2038
  329loPI   C1A 5255   2.632   6.001   9.468 -0.1402 -0.1243 -0.1903
  329loPI   C2A 5256   2.674   5.813   9.044 -0.1361 -0.2694  0.0376
  329loPI   C3A 5257   2.810   5.722   8.614 -0.2282  0.1856  0.2090
  329loPI   C4A 5258   3.122   5.805   8.301 -0.0356  0.0717 -0.0892
  329loPI   C5A 5259   3.370   6.172   8.169 -0.1795 -0.0674  0.0909
  329loPI   C6A 5260   3.552   6.519   8.128 -0.3282 -0.0136 -0.1350
  329loPI   C1B 5261   2.817   6.466   9.263 -0.0117 -0.1811  0.0378
  329loPI   C2B 5262   2.747   6.276   8.871 -0.0780 -0.1549 -0.0724
  329loPI   C3B 5263   2.512   6.074   8.525 -0.1512 -0.0032 -0.1158
  329loPI   C4B 5264   2.207   6.055   8.150  0.1986 -0.3501 -0.0847
  330loPI    C1 5265  16.316   4.167  10.289  0.0947 -0.1719  0.2525
  330loPI    C2 5266  16.682   4.028  10.205  0.1628  0.1092  0.0701
  330loPI    C3 5267  16.591   4.139  10.579  0.2533  0.0102  0.1221
  330loPI   PO4 5268  16.272   4.377  10.175  0.0746 -0.2669  0.0681
  330loPI   GL1 5269  15.985   4.563   9.893  0.0863 -0.0075 -0.1108
  330loPI   GL2 5270  15.778   4.297   9.916 -0.0581  0.1175  0.1755
  330loPI   C1A 5271  16.273   4.577   9.555  0.3271 -0.2848  0.0685
  330loPI   C2A 5272  16.503   4.592   9.180  0.1347 -0.1375  0.0805
  330loPI   C3A 5273  16.605   4.672   8.747 -0.3402 -0.1934  0.0652
  330loPI   C4A 5274  16.669   4.568   8.275  0.2028  0.1040 -0.1847
  330loPI   C5A 5275  17.038   4.782   8.089  0.1940 -0.0287 -0.0037
  330loPI   C6A 5276  17.445   4.771   8.035  0.0716  0.1721 -0.0570
  330loPI   C1B 5277  15.786   4.373   9.533  0.1803  0.1943  0.1246
  330loPI   C2B 5278  15.884   4.466   9.184  0.1164 -0.1204 -0.1375
  330loPI   C3B 5279  16.162   4.526   8.753 -0.1303  0.0761  0.1412
  330loPI   C4B 5280  16.227   4.361   8.384  0.0646  0.3570  0.0007
  331loPI    C1 5281   1.462   7.332  10.363 -0.1382 -0.4050 -0.1399
  331loPI    C2 5282   1.814   7.463  10.226 -0.2074 -0.1128 -0.0449
  331loPI    C3 5283   1.795   7.275  10.579 -0.2013  0.2551  0.1571
  331loPI   PO4 5284   1.383   7.165  10.176  0.0436  0.0605  0.1530
  331loPI   GL1 5285   0.925   7.025   9.959  0.2064  0.1959 -0.0829
  331loPI   GL2 5286   1.183   6.940   9.829 -0.0261 -0.0932 -0.0106
  331loPI   C1A 5287   0.686   7.102   9.625  0.1066 -0.3627 -0.0441
  331loPI   C2A 5288   0.663   7.128   9.217  0.0245 -0.1773 -0.0825
  331loPI   C3A 5289   0.583   6.988   8.838  0.2641  0.0844  0.2358
  331loPI   C4A 5290   0.603   7.067   8.386 -0.0963  0.2833  0.5374
  331loPI   C5A 5291   0.624   7.155   7.880 -0.3171 -0.1319  0.0023
  331loPI   C6A 5292   0.447   7.421   7.493 -0.1258  0.0217  0.1572
  331loPI   C1B 5293   1.126   6.818   9.415 -0.1834  0.0323 -0.2310
  331loPI   C2B 5294   1.203   6.851   8.998  0.0596 -0.0308  0.0606
  331loPI   C3B 5295   1.062   6.862   8.537  0.1798 -0.0876 -0.0625
  331loPI   C4B 5296   1.007   6.722   8.170 -0.1315 -0.0493 -0.1107
  332loPI    C1 5297  12.906  13.079  10.326  0.1438 -0.1826 -0.0078
  332loPI    C2 5298  12.729  12.842  10.595 -0.1565 -0.1099 -0.1363
  332loPI    C3 5299  12.715  12.749  10.207 -0.0412 -0.0230 -0.1619
  332loPI   PO4 5300  13.226  13.007  10.402  0.1128 -0.0976  0.1517
  332loPI   GL1 5301  13.545  12.800  10.250  0.0770  0.2156 -0.2417
  332loPI   GL2 5302  13.881  12.600  10.280  0.1519 -0.0390 -0.2573
  332loPI   C1A 5303  13.397  12.809   9.810 -0.0959  0.1371 -0.1740
  332loPI   C2A 5304  13.387  12.717   9.377  0.1156  0.2149 -0.1073
  332loPI   C3A 5305  13.671  12.806   9.070  0.4909  0.0108  0.0863
  332loPI   C4A 5306  13.886  12.681   8.695  0.0111  0.0041  0.2168
  332loPI   C5A 5307  13.794  12.668   8.314 -0.0096  0.0351  0.0171
  332loPI   C6A 5308  13.623  12.391   8.066 -0.2899 -0.0943 -0.3660
  332loPI   C1B 5309  13.883  12.474   9.777 -0.1011  0.0357  0.0359
  332loPI   C2B 5310  13.801  12.414   9.329 -0.3549  0.2290 -0.0357
  332loPI   C3B 5311  13.532  12.148   9.022  0.0264  0.1076 -0.3776
  332loPI   C4B 5312  13.341  11.825   9.130  0.0097  0.0776 -0.1263
  333loPI    C1 5313   6.879   2.370   9.872  0.0303 -0.0615 -0.1406
  333loPI    C2 5314   7.001   2.444  10.246  0.0054 -0.3153 -0.0802
  333loPI    C3 5315   7.268   2.346   9.964  0.0411  0.0127 -0.1652
  333loPI   PO4 5316   6.597   2.547   9.879  0.0932  0.0987 -0.0073
  333loPI   GL1 5317   6.328   2.881   9.878 -0.0058 -0.0888 -0.0132
  333loPI   GL2 5318   6.334   3.091   9.874 -0.1153 -0.3770 -0.1237
  333loPI   C1A 5319   5.974   2.841   9.565  0.3986  0.2150  0.1826
  333loPI   C2A 5320   5.998   2.767   9.189 -0.0343 -0.3219 -0.2679
  333loPI   C3A 5321   6.066   2.596   8.792  0.2419 -0.0489  0.0278
  333loPI   C4A 5322   6.300   2.462   8.534  0.1855 -0.1151 -0.4037
  333loPI   C5A 5323   6.354   2.396   8.158 -0.1844  0.0292  0.0231
  333loPI   C6A 5324   6.390   1.914   7.962 -0.0142  0.0099  0.2531
  333loPI   C1B 5325   6.288   3.227   9.472  0.0349  0.0916 -0.0164
  333loPI   C2B 5326   6.177   3.228   9.021  0.2228 -0.1695  0.2249
  333loPI   C3B 5327   6.046   3.201   8.614 -0.1553 -0.2202 -0.1451
  333loPI   C4B 5328   5.971   3.265   8.273  0.0185 -0.0389 -0.1613
  334loPI    C1 5329   6.361   8.256  10.740 -0.1696 -0.1974  0.1867
  334loPI    C2 5330   6.592   8.202  11.061 -0.0272  0.0992  0.1376
  334loPI    C3 5331   6.365   8.530  11.031 -0.1189  0.0225 -0.0176
  334loPI   PO4 5332   6.529   8.208  10.496  0.0089  0.2426  0.4377
  334loPI   GL1 5333   6.706   8.091  10.163 -0.0579 -0.1121  0.1778
  334loPI   GL2 5334   7.118   8.144  10.315  0.0854 -0.1130 -0.0816
  334loPI   C1A 5335   6.771   8.084   9.775 -0.1509 -0.2560 -0.1862
  334loPI   C2A 5336   6.779   7.984   9.456 -0.4173 -0.0946  0.1183
  334loPI   C3A 5337   6.814   7.996   9.042  0.1570 -0.1659  0.0661
  334loPI   C4A 5338   6.911   7.979   8.692 -0.1257 -0.0234  0.2259
  334loPI   C5A 5339   6.983   7.831   8.270  0.1953  0.0583 -0.0107
  334loPI   C6A 5340   7.179   7.787   7.842 -0.1452 -0.1469 -0.1967
  334loPI   C1B 5341   7.239   8.081   9.928  0.0491 -0.2748 -0.1019
  334loPI   C2B 5342   7.234   7.918   9.635 -0.1454 -0.0919  0.2107
  334loPI   C3B 5343   7.242   7.970   9.286 -0.1053  0.6032 -0.0740
  334loPI   C4B 5344   7.449   8.026   8.836  0.3418 -0.1981  0.0010
  335loPI    C1 5345   2.925   3.728  10.603  0.1488  0.0070 -0.2517
  335loPI    C2 5346   2.559   3.674  10.451  0.0293  0.2030 -0.0412
  335loPI    C3 5347   2.641   3.552  10.823  0.1725  0.1804 -0.0794
  335loPI   PO4 5348   3.066   3.763  10.356  0.0062  0.0388  0.1466
  335loPI   GL1 5349   3.069   3.995  10.038  0.0769  0.1845 -0.0439
  335loPI   GL2 5350   2.728   4.016  10.066  0.0977  0.1306  0.0032
  335loPI   C1A 5351   3.360   3.875   9.618 -0.2864 -0.1793  0.0425
  335loPI   C2A 5352   3.304   3.824   9.186 -0.0857  0.0868 -0.3207
  335loPI   C3A 5353   3.363   3.998   8.706 -0.1199  0.0653 -0.0994
  335loPI   C4A 5354   3.373   4.281   8.386 -0.1095 -0.1339  0.1264
  335loPI   C5A 5355   3.688   4.329   8.083  0.2410 -0.4173 -0.0611
  335loPI   C6A 5356   3.621   4.333   7.639 -0.1628  0.0482  0.3888
  335loPI   C1B 5357   2.856   3.917   9.644  0.5102  0.1426  0.1498
  335loPI   C2B 5358   2.793   3.760   9.186  0.2276  0.3999 -0.0528
  335loPI   C3B 5359   2.807   3.734   8.725 -0.1469 -0.1329 -0.0700
  335loPI   C4B 5360   3.092   3.891   8.297  0.0428 -0.1268 -0.2996
  336loPI    C1 5361   0.206   2.600  10.582  0.0487 -0.1162  0.0008
  336loPI    C2 5362   0.070   2.780  10.913  0.1940 -0.1089  0.0576
  336loPI    C3 5363   0.176   2.394  10.924  0.1406 -0.1254  0.0036
  336loPI   PO4 5364   0.121   2.735  10.383  0.1449  0.0046 -0.1610
  336loPI   GL1 5365   0.049   2.745   9.967 -0.1592  0.0986  0.1221
  336loPI   GL2 5366   0.142   2.368  10.044  0.2571  0.2312 -0.0530
  336loPI   C1A 5367  -0.043   2.777   9.633 -0.1422 -0.4135  0.1301
  336loPI   C2A 5368  -0.190   2.920   9.174 -0.2535  0.0433 -0.0882
  336loPI   C3A 5369  -0.202   2.982   8.766 -0.0650  0.2593  0.4751
  336loPI   C4A 5370  -0.345   3.077   8.424 -0.0078 -0.0847  0.0310
  336loPI   C5A 5371  -0.216   3.049   8.066 -0.1956 -0.0210  0.3080
  336loPI   C6A 5372  -0.353   3.299   7.697  0.1385  0.0768  0.0292
  336loPI   C1B 5373   0.109   2.288   9.679  0.2272  0.2726 -0.0107
  336loPI   C2B 5374   0.052   2.438   9.248  0.3067  0.0095 -0.0966
  336loPI   C3B 5375   0.049   2.561   8.841 -0.0442  0.0571 -0.1566
  336loPI   C4B 5376  -0.004   2.603   8.416  0.2962 -0.1976  0.1024
  337loPI    C1 5377   3.082  12.555  10.811  0.2149 -0.1220 -0.0482
  337loPI    C2 5378   3.376  12.424  11.048  0.2434 -0.2498 -0.1533
  337loPI    C3 5379   3.012  12.492  11.200  0.3872  0.1447  0.0286
  337loPI   PO4 5380   2.995  12.389  10.578 -0.1104 -0.3366  0.2117
  337loPI   GL1 5381   3.011  12.365  10.125  0.1352  0.4411  0.0401
  337loPI   GL2 5382   2.968  12.662   9.928  0.0596  0.2472 -0.3256
  337loPI   C1A 5383   2.954  12.185   9.641  0.1252  0.3928 -0.1045
  337loPI   C2A 5384   2.812  11.895   9.242 -0.1938 -0.4060 -0.0665
  337loPI   C3A 5385   2.755  11.597   8.965 -0.2122 -0.2994 -0.0806
  337loPI   C4A 5386   2.770  11.669   8.630 -0.0721 -0.1345 -0.1518
  337loPI   C5A 5387   2.672  11.635   8.226  0.0130  0.1625  0.1794
  337loPI   C6A 5388   2.836  11.456   7.799 -0.0922 -0.2994 -0.3221
  337loPI   C1B 5389   3.012  12.664   9.550 -0.3059  0.1013 -0.0084
  337loPI   C2B 5390   2.864  12.567   9.251  0.0495  0.1965 -0.0331
  337loPI   C3B 5391   2.918  12.447   8.879 -0.0078  0.2375 -0.1004
  337loPI   C4B 5392   2.632  12.632   8.610  0.2788 -0.1388  0.0806
  338loPI    C1 5393   9.519   8.094  10.876 -0.1057  0.1405 -0.0681
  338loPI    C2 5394   9.466   8.314  11.206 -0.0142  0.1896 -0.0859
  338loPI    C3 5395   9.157   8.241  10.962 -0.0718  0.1926 -0.0140
  338loPI   PO4 5396   9.705   8.168  10.710 -0.1643  0.0695  0.0606
  338loPI   GL1 5397   9.757   7.875  10.428 -0.2197  0.0104 -0.1067
  338loPI   GL2 5398   9.485   7.664  10.521 -0.2825  0.0501  0.2613
  338loPI   C1A 5399   9.807   7.656  10.021  0.0112 -0.1498  0.0275
  338loPI   C2A 5400   9.990   7.812   9.579  0.2483  0.1433 -0.2812
  338loPI   C3A 5401  10.049   7.786   9.104 -0.1806 -0.0346  0.2380
  338loPI   C4A 5402  10.212   7.545   8.800  0.0722  0.1023  0.0006
  338loPI   C5A 5403  10.232   7.224   8.407  0.0079 -0.3665 -0.0585
  338loPI   C6A 5404  10.424   6.828   8.153  0.0661  0.0655 -0.0402
  338loPI   C1B 5405   9.462   7.307  10.261 -0.1953  0.3248  0.2253
  338loPI   C2B 5406   9.236   7.293   9.903  0.1003 -0.2351 -0.1165
  338loPI   C3B 5407   9.219   7.383   9.446 -0.0541  0.0966  0.0036
  338loPI   C4B 5408   8.989   7.566   9.145  0.1439 -0.0883  0.5103
  339loPI    C1 5409   3.830   3.808  10.560 -0.1681  0.0615 -0.1458
  339loPI    C2 5410   3.470   3.786  10.734 -0.1626 -0.0996 -0.1538
  339loPI    C3 5411   3.802   3.787  10.959 -0.1695  0.1171 -0.1429
  339loPI   PO4 5412   3.917   3.618  10.347 -0.1047 -0.0277 -0.2251
  339loPI   GL1 5413   3.752   3.595   9.922 -0.0440 -0.1781 -0.0039
  339loPI   GL2 5414   3.859   3.792   9.916  0.2518  0.1794  0.3516
  339loPI   C1A 5415   3.804   3.595   9.437  0.1435 -0.0729  0.1155
  339loPI   C2A 5416   3.715   3.531   8.990  0.1628  0.0744 -0.4408
  339loPI   C3A 5417   4.012   3.673   8.627 -0.3395 -0.2478 -0.0443
  339loPI   C4A 5418   4.135   3.801   8.291  0.2725  0.4237 -0.0691
  339loPI   C5A 5419   4.182   4.177   8.077 -0.2979  0.0470 -0.1119
  339loPI   C6A 5420   4.501   4.456   7.926 -0.0431 -0.0788  0.1985
  339loPI   C1B 5421   3.826   4.126   9.622  0.0056 -0.1574  0.0634
  339loPI   C2B 5422   3.843   4.097   9.191  0.2948 -0.0560  0.1012
  339loPI   C3B 5423   3.631   4.400   8.893  0.2918  0.2098  0.2514
  339loPI   C4B 5424   3.759   4.586   8.473  0.1131 -0.1793  0.0727
  340loPI    C1 5425   3.940  16.596  10.327 -0.0948  0.1998  0.3342
  340loPI    C2 5426   3.868  16.974  10.215 -0.0897  0.1767  0.2525
  340loPI    C3 5427   3.783  16.855  10.588 -0.0853  0.2602  0.2803
  340loPI   PO4 5428   3.830  16.431  10.154 -0.1770 -0.2812  0.0689
  340loPI   GL1 5429   3.641  16.469   9.877  0.1621 -0.1878  0.0122
  340loPI   GL2 5430   3.504  16.732   9.891 -0.0059 -0.1140 -0.1113
  340loPI   C1A 5431   3.662  16.353   9.542 -0.2775 -0.0422  0.0593
  340loPI   C2A 5432   3.599  16.458   9.126  0.0089  0.0731  0.0764
  340loPI   C3A 5433   3.741  16.442   8.671 -0.2716  0.2673  0.3074
  340loPI   C4A 5434   3.834  16.347   8.313  0.0518 -0.0498 -0.1763
  340loPI   C5A 5435   3.738  15.988   7.916 -0.0081  0.1155  0.1488
  340loPI   C6A 5436   3.668  15.586   7.584  0.1291  0.1161  0.0777
  340loPI   C1B 5437   3.384  16.857   9.488 -0.0068 -0.0581 -0.1240
  340loPI   C2B 5438   3.465  16.926   8.971  0.3331  0.3198 -0.2644
  340loPI   C3B 5439   3.548  16.952   8.525  0.1138  0.0745  0.1492
  340loPI   C4B 5440   3.559  17.180   8.024  0.3126  0.5626 -0.1104
  341loPI    C1 5441  13.169   0.314  10.167  0.0090 -0.1104  0.2259
  341loPI    C2 5442  13.263   0.337  10.555 -0.0286  0.1463  0.2217
  341loPI    C3 5443  13.167   0.668  10.353  0.1912  0.0437 -0.0580
  341loPI   PO4 5444  13.300  -0.007  10.113  0.1336 -0.1555 -0.0728
  341loPI   GL1 5445  13.440   0.046   9.756 -0.0935  0.3092  0.1995
  341loPI   GL2 5446  13.592   0.311   9.694  0.0585  0.1411 -0.1895
  341loPI   C1A 5447  13.517   0.013   9.280  0.0291  0.0683 -0.0310
  341loPI   C2A 5448  13.503  -0.089   8.923 -0.2817  0.1626 -0.1886
  341loPI   C3A 5449  13.835  -0.119   8.594 -0.0389  0.0118  0.0652
  341loPI   C4A 5450  13.968   0.023   8.196 -0.0708  0.0330 -0.1876
  341loPI   C5A 5451  13.987  -0.259   7.860 -0.1476 -0.0294  0.0634
  341loPI   C6A 5452  13.788  -0.335   7.501  0.2842  0.0023 -0.1487
  341loPI   C1B 5453  13.853   0.560   9.420 -0.2628  0.2370 -0.1574
  341loPI   C2B 5454  13.762   0.578   9.011 -0.0652 -0.2191  0.1199
  341loPI   C3B 5455  13.682   0.465   8.588 -0.1164 -0.3471 -0.0419
  341loPI   C4B 5456  13.452   0.384   8.142  0.0504  0.2596 -0.0127
  342loPI    C1 5457  14.324   0.049  10.278  0.0803  0.1532  0.0241
  342loPI    C2 5458  14.512  -0.131  10.581  0.1913  0.1616 -0.0391
  342loPI    C3 5459  14.172   0.069  10.647 -0.0452 -0.2417 -0.0021
  342loPI   PO4 5460  14.542  -0.040  10.049 -0.1885 -0.0890  0.1113
  342loPI   GL1 5461  14.403  -0.355   9.818 -0.2366 -0.0176  0.0007
  342loPI   GL2 5462  14.321  -0.222   9.649  0.1983  0.1536  0.1342
  342loPI   C1A 5463  14.268  -0.679   9.465 -0.1687  0.0274  0.0381
  342loPI   C2A 5464  14.251  -0.770   9.094 -0.5814 -0.3187 -0.2026
  342loPI   C3A 5465  14.335  -0.705   8.660  0.1796  0.1992 -0.1176
  342loPI   C4A 5466  14.303  -0.887   8.336  0.2466 -0.0446 -0.0835
  342loPI   C5A 5467  14.465  -0.980   8.075  0.1619 -0.1232 -0.1345
  342loPI   C6A 5468  14.814  -1.077   7.743  0.0652  0.0378  0.0945
  342loPI   C1B 5469  14.370  -0.259   9.238  0.2992 -0.0437 -0.2244
  342loPI   C2B 5470  14.312  -0.261   8.871 -0.2038  0.2034 -0.1051
  342loPI   C3B 5471  14.354  -0.258   8.430 -0.0810  0.1109  0.1816
  342loPI   C4B 5472  14.435  -0.151   8.018 -0.0439 -0.0626  0.0210
  343loPI    C1 5473  10.078  14.098  10.422  0.0760  0.1432 -0.0657
  343loPI    C2 5474   9.717  14.135  10.254  0.0863 -0.0300 -0.1277
  343loPI    C3 5475   9.759  14.184  10.649 -0.0258 -0.1270 -0.1033
  343loPI   PO4 5476  10.199  13.891  10.393  0.2911 -0.0382 -0.1161
  343loPI   GL1 5477  10.451  13.844  10.118  0.2014  0.0818  0.2035
  343loPI   GL2 5478  10.344  13.611  10.002  0.1930 -0.2810 -0.0240
  343loPI   C1A 5479  10.247  13.976   9.709 -0.1337 -0.0674  0.1168
  343loPI   C2A 5480  10.090  13.832   9.308  0.2858 -0.0805 -0.3892
  343loPI   C3A 5481  10.080  13.501   9.014 -0.0572 -0.2622  0.0980
  343loPI   C4A 5482   9.902  13.461   8.630 -0.2403 -0.1703  0.0946
  343loPI   C5A 5483   9.581  13.332   8.278  0.0208 -0.1016  0.1475
  343loPI   C6A 5484   9.159  13.066   8.050  0.0887  0.3410 -0.0994
  343loPI   C1B 5485  10.463  13.521   9.569  0.1241 -0.1129 -0.0051
  343loPI   C2B 5486  10.545  13.724   9.243  0.2686  0.1512 -0.1291
  343loPI   C3B 5487  10.640  13.812   8.823  0.2112  0.3052 -0.0975
  343loPI   C4B 5488  10.374  13.601   8.490 -0.1907  0.0646  0.0301
  344loPI    C1 5489   2.740  11.134  10.592  0.1297 -0.1233  0.1020
  344loPI    C2 5490   2.699  10.959  10.236  0.3007  0.0116  0.0142
  344loPI    C3 5491   2.441  10.876  10.530 -0.0920  0.2095 -0.2638
  344loPI   PO4 5492   2.730  11.335  10.520 -0.0124  0.1415  0.1024
  344loPI   GL1 5493   2.620  11.513  10.133  0.1119 -0.0986  0.1885
  344loPI   GL2 5494   2.695  11.272   9.863  0.0055 -0.2645 -0.3668
  344loPI   C1A 5495   2.346  11.760   9.840  0.2270  0.0559  0.0637
  344loPI   C2A 5496   2.312  11.985   9.425 -0.1147 -0.1752 -0.2219
  344loPI   C3A 5497   2.422  12.134   9.003 -0.0433 -0.3281  0.0127
  344loPI   C4A 5498   2.584  12.087   8.517  0.1252 -0.1853  0.0410
  344loPI   C5A 5499   2.936  12.102   8.168 -0.2837  0.1284  0.1094
  344loPI   C6A 5500   3.250  11.748   8.124  0.0827 -0.2465 -0.1302
  344loPI   C1B 5501   2.954  11.266   9.501 -0.1745  0.3909  0.0095
  344loPI   C2B 5502   2.911  11.190   9.188 -0.1008  0.1663  0.0363
  344loPI   C3B 5503   2.851  11.158   8.758  0.1733  0.1000 -0.2071
  344loPI   C4B 5504   2.757  11.128   8.294  0.1023 -0.2589 -0.2458
  345loPI    C1 5505   4.254  13.687  10.159 -0.2777  0.2128 -0.1063
  345loPI    C2 5506   4.038  13.656  10.494  0.0041  0.2084  0.0777
  345loPI    C3 5507   4.387  13.853  10.498  0.1709 -0.0756 -0.1329
  345loPI   PO4 5508   4.112  13.638   9.978  0.0813 -0.1602  0.2894
  345loPI   GL1 5509   3.828  13.691   9.759  0.1181 -0.0001 -0.1011
  345loPI   GL2 5510   3.528  13.712   9.803  0.1511 -0.0592  0.0361
  345loPI   C1A 5511   3.846  13.525   9.378 -0.1446 -0.1199  0.0665
  345loPI   C2A 5512   3.763  13.550   9.076 -0.1528 -0.1565  0.0873
  345loPI   C3A 5513   3.616  13.586   8.714 -0.3913  0.1149 -0.0090
  345loPI   C4A 5514   3.525  13.595   8.326 -0.0687  0.1987 -0.1387
  345loPI   C5A 5515   3.737  13.625   8.030  0.1966 -0.0452  0.1363
  345loPI   C6A 5516   3.770  13.756   7.681 -0.1391 -0.1182 -0.0155
  345loPI   C1B 5517   3.317  13.636   9.411  0.0338 -0.0288 -0.1157
  345loPI   C2B 5518   3.230  13.447   8.987  0.1663 -0.1963 -0.2701
  345loPI   C3B 5519   3.184  13.327   8.543 -0.0521 -0.0084 -0.0650
  345loPI   C4B 5520   3.030  13.532   8.142  0.0378  0.1512  0.1127
  346loPI    C1 5521   0.679   1.800  10.372 -0.1152 -0.0548 -0.0525
  346loPI    C2 5522   0.456   1.805  10.704 -0.1147 -0.0120 -0.0529
  346loPI    C3 5523   0.645   1.470  10.596 -0.1703 -0.0453 -0.0467
  346loPI   PO4 5524   0.508   2.040  10.207  0.3208  0.0344  0.3359
  346loPI   GL1 5525   0.652   2.150   9.863 -0.1087 -0.1795 -0.1673
  346loPI   GL2 5526   0.891   2.442   9.906  0.0526 -0.1828  0.0872
  346loPI   C1A 5527   0.539   2.360   9.471 -0.2545  0.1903  0.0823
  346loPI   C2A 5528   0.774   2.520   9.153  0.3657 -0.0776 -0.2260
  346loPI   C3A 5529   0.549   2.577   8.793 -0.3248 -0.0557 -0.2873
  346loPI   C4A 5530   0.524   2.678   8.444  0.2431 -0.0545  0.2323
  346loPI   C5A 5531   0.312   2.829   8.036  0.2770  0.0836  0.1985
  346loPI   C6A 5532  -0.030   2.513   7.917  0.1447 -0.1224 -0.1235
  346loPI   C1B 5533   1.093   2.352   9.542  0.2310  0.0872  0.3086
  346loPI   C2B 5534   1.249   2.229   9.150 -0.0144  0.1883 -0.4859
  346loPI   C3B 5535   1.311   2.316   8.738 -0.1419 -0.2300  0.0516
  346loPI   C4B 5536   1.385   2.304   8.327  0.0804 -0.1513  0.0863
  347loPI    C1 5537   8.644   0.606  10.327 -0.1843 -0.0089 -0.0629
  347loPI    C2 5538   8.695   0.508  10.711  0.2620 -0.1500 -0.1522
  347loPI    C3 5539   8.716   0.891  10.598  0.2278 -0.1180 -0.0519
  347loPI   PO4 5540   8.621   0.347  10.210 -0.2161 -0.3450  0.0104
  347loPI   GL1 5541   8.482   0.092   9.941 -0.1318  0.1247  0.0919
  347loPI   GL2 5542   8.293   0.171   9.694 -0.1333 -0.3311  0.3491
  347loPI   C1A 5543   8.725  -0.015   9.551 -0.0503  0.2634 -0.1582
  347loPI   C2A 5544   8.818  -0.094   9.089  0.1914 -0.3789  0.0426
  347loPI   C3A 5545   8.895   0.020   8.767 -0.2096  0.2014 -0.1255
  347loPI   C4A 5546   8.995  -0.219   8.355  0.0656  0.1530  0.0822
  347loPI   C5A 5547   8.745  -0.203   7.968 -0.1422 -0.1370  0.1888
  347loPI   C6A 5548   8.528   0.165   7.813  0.0939 -0.2039  0.1509
  347loPI   C1B 5549   8.107   0.274   9.267 -0.0460 -0.0203 -0.0730
  347loPI   C2B 5550   8.139   0.414   8.789 -0.0415 -0.1380 -0.0205
  347loPI   C3B 5551   8.173   0.419   8.371 -0.1478  0.2142 -0.1993
  347loPI   C4B 5552   7.879   0.237   8.032  0.1020  0.0957 -0.1837
  348loPI    C1 5553   5.601  11.520  10.253 -0.0162  0.2176 -0.0049
  348loPI    C2 5554   5.608  11.337  10.608 -0.2273  0.0202 -0.1002
  348loPI    C3 5555   5.425  11.690  10.569 -0.0135  0.1484  0.0339
  348loPI   PO4 5556   5.882  11.538  10.234  0.1354  0.3107 -0.0490
  348loPI   GL1 5557   5.973  11.549   9.791  0.0883  0.0092 -0.0678
  348loPI   GL2 5558   5.906  11.212   9.734  0.0516 -0.0461 -0.0902
  348loPI   C1A 5559   6.127  11.537   9.358  0.1487 -0.1838  0.0801
  348loPI   C2A 5560   6.018  11.532   8.975  0.1557 -0.3399 -0.0189
  348loPI   C3A 5561   6.077  11.652   8.647  0.2548 -0.1607 -0.1232
  348loPI   C4A 5562   6.142  11.893   8.268  0.0524 -0.2805 -0.0938
  348loPI   C5A 5563   6.201  11.910   7.938  0.1092 -0.0972  0.1136
  348loPI   C6A 5564   6.166  12.207   7.554 -0.1153 -0.0320  0.3653
  348loPI   C1B 5565   5.901  11.116   9.292  0.1043 -0.2458  0.0717
  348loPI   C2B 5566   5.960  11.023   8.869  0.0808 -0.0123  0.1796
  348loPI   C3B 5567   5.886  10.924   8.445  0.4683 -0.0045  0.2010
  348loPI   C4B 5568   5.953  10.637   7.991 -0.0633  0.2871 -0.1540
  349loPI    C1 5569  17.222   8.707  10.688  0.0903 -0.0099  0.0562
  349loPI    C2 5570  17.141   9.081  10.804  0.0956  0.0514 -0.1333
  349loPI    C3 5571  16.888   8.784  10.894  0.0391  0.1174 -0.0728
  349loPI   PO4 5572  17.189   8.694  10.412  0.1464 -0.0598  0.0893
  349loPI   GL1 5573  17.395   8.842  10.017 -0.0720  0.0980  0.2037
  349loPI   GL2 5574  17.379   8.598   9.927 -0.2446  0.1208  0.1519
  349loPI   C1A 5575  17.167   8.923   9.615 -0.0324 -0.1351  0.1498
  349loPI   C2A 5576  17.052   9.045   9.209  0.1013 -0.0658 -0.1381
  349loPI   C3A 5577  16.920   9.046   8.772 -0.0718 -0.2019  0.0422
  349loPI   C4A 5578  16.864   9.037   8.319 -0.2212  0.0447  0.0804
  349loPI   C5A 5579  16.648   8.896   7.909 -0.2516  0.0247 -0.3770
  349loPI   C6A 5580  16.555   8.917   7.476 -0.0934  0.1011  0.0705
  349loPI   C1B 5581  17.449   8.427   9.603 -0.3594 -0.4882  0.0356
  349loPI   C2B 5582  17.539   8.392   9.152 -0.0276 -0.0644  0.0737
  349loPI   C3B 5583  17.463   8.313   8.821 -0.0131  0.0174  0.1094
  349loPI   C4B 5584  17.406   8.342   8.347  0.1727  0.2418 -0.1184
  350loPI    C1 5585  14.953   4.406  10.596  0.2246 -0.0084  0.3244
  350loPI    C2 5586  14.595   4.462  10.765 -0.0208 -0.1714 -0.1237
  350loPI    C3 5587  14.763   4.099  10.768  0.0967 -0.1168 -0.0014
  350loPI   PO4 5588  14.922   4.460  10.299 -0.1803 -0.1405 -0.3014
  350loPI   GL1 5589  14.995   4.677   9.915  0.2077  0.1942  0.0334
  350loPI   GL2 5590  14.699   4.892   9.856 -0.0168 -0.0527  0.2853
  350loPI   C1A 5591  15.105   5.009   9.504 -0.0113 -0.0577  0.1615
  350loPI   C2A 5592  15.265   5.267   9.141 -0.0462 -0.0409  0.1024
  350loPI   C3A 5593  15.136   5.382   8.749 -0.1964 -0.0836  0.2318
  350loPI   C4A 5594  15.358   5.218   8.350  0.1425  0.1028  0.0486
  350loPI   C5A 5595  15.569   4.997   8.029  0.0030 -0.0997  0.2444
  350loPI   C6A 5596  15.550   4.656   7.753  0.1507 -0.0318 -0.2390
  350loPI   C1B 5597  14.731   4.463   9.525  0.0692  0.1428  0.2394
  350loPI   C2B 5598  14.703   4.388   9.079  0.3762 -0.2232  0.0459
  350loPI   C3B 5599  14.770   4.248   8.705 -0.1432 -0.2082 -0.0707
  350loPI   C4B 5600  14.746   4.217   8.233  0.0970 -0.3378  0.0472
  351loPI    C1 5601   4.040   6.035  10.344  0.0496  0.0619  0.1041
  351loPI    C2 5602   4.162   6.320  10.596 -0.0331  0.1639  0.0298
  351loPI    C3 5603   3.772   6.233  10.567 -0.0117  0.0702  0.0236
  351loPI   PO4 5604   4.115   6.036  10.137 -0.0136 -0.4207 -0.1837
  351loPI   GL1 5605   4.032   6.329   9.781  0.1902 -0.1533 -0.2027
  351loPI   GL2 5606   3.787   6.511   9.696 -0.1043 -0.0521 -0.2207
  351loPI   C1A 5607   4.132   6.219   9.311 -0.0116 -0.1159 -0.0585
  351loPI   C2A 5608   4.315   6.231   8.911  0.3574  0.0232 -0.1809
  351loPI   C3A 5609   4.250   6.308   8.526 -0.2346  0.2260  0.2269
  351loPI   C4A 5610   3.967   6.183   8.259  0.2164 -0.0770  0.0146
  351loPI   C5A 5611   3.689   5.989   7.895 -0.0742 -0.0418 -0.2379
  351loPI   C6A 5612   3.297   5.812   7.779  0.1936  0.0792 -0.0340
  351loPI   C1B 5613   3.713   6.586   9.258 -0.0135 -0.1076 -0.0451
  351loPI   C2B 5614   4.047   6.707   9.044 -0.2211 -0.0702  0.0259
  351loPI   C3B 5615   4.106   7.051   8.889 -0.2254  0.0497  0.1180
  351loPI   C4B 5616   4.118   7.346   8.652 -0.1525  0.4273  0.0958
  352loPI    C1 5617   2.203   9.379  10.564 -0.0107  0.0110  0.1605
  352loPI    C2 5618   2.339   9.576  10.884 -0.2025 -0.0428  0.2768
  352loPI    C3 5619   1.953   9.475  10.861 -0.1817 -0.0743  0.0457
  352loPI   PO4 5620   2.356   9.386  10.316  0.0155 -0.0451  0.0040
  352loPI   GL1 5621   2.566   9.583  10.053  0.0166  0.1934 -0.0690
  352loPI   GL2 5622   2.444   9.898   9.935  0.0165 -0.0596 -0.0509
  352loPI   C1A 5623   2.843   9.754   9.667  0.1185  0.2620 -0.3153
  352loPI   C2A 5624   2.902   9.889   9.227  0.2023 -0.2659  0.1654
  352loPI   C3A 5625   3.028   9.929   8.837  0.1113  0.1341 -0.0825
  352loPI   C4A 5626   3.258   9.875   8.536  0.1905  0.1534  0.3896
  352loPI   C5A 5627   3.563   9.888   8.297  0.1108 -0.0083 -0.4231
  352loPI   C6A 5628   3.839   9.640   8.081 -0.5908 -0.1646  0.1879
  352loPI   C1B 5629   2.323   9.993   9.590  0.0339  0.0618  0.0745
  352loPI   C2B 5630   2.302  10.024   9.204 -0.0532  0.0202  0.0059
  352loPI   C3B 5631   2.315  10.349   8.866  0.2137  0.0021 -0.2416
  352loPI   C4B 5632   2.388  10.500   8.441  0.1058  0.2289 -0.3127
  353loPI    C1 5633   1.268   5.713  10.961 -0.1242  0.0742  0.0793
  353loPI    C2 5634   1.640   5.845  10.898 -0.1065 -0.1679 -0.3621
  353loPI    C3 5635   1.581   5.489  11.070 -0.1446  0.0350  0.0571
  353loPI   PO4 5636   1.111   5.738  10.644 -0.4316 -0.0832  0.0176
  353loPI   GL1 5637   1.285   5.660  10.145 -0.0899  0.0687 -0.1288
  353loPI   GL2 5638   1.178   5.376  10.210 -0.2787  0.1741  0.1737
  353loPI   C1A 5639   1.034   5.675   9.726 -0.2956 -0.2241 -0.2041
  353loPI   C2A 5640   0.900   5.397   9.422  0.1379  0.2467  0.0712
  353loPI   C3A 5641   0.881   5.347   9.065 -0.2923  0.2154 -0.1307
  353loPI   C4A 5642   0.837   5.138   8.662 -0.0597  0.2951 -0.2512
  353loPI   C5A 5643   1.121   5.114   8.346 -0.1419 -0.1338  0.0847
  353loPI   C6A 5644   1.337   5.183   8.110  0.1312 -0.2189 -0.1501
  353loPI   C1B 5645   0.752   5.289   9.964 -0.0125  0.0711 -0.1830
  353loPI   C2B 5646   0.498   5.234   9.660  0.0131 -0.1329 -0.0475
  353loPI   C3B 5647   0.464   5.247   9.224  0.2872 -0.0170 -0.2379
  353loPI   C4B 5648   0.476   4.955   8.954  0.0092  0.0955  0.2350
  354loPI    C1 5649  16.794   0.215  10.519  0.0404  0.1620  0.0071
  354loPI    C2 5650  17.054  -0.052  10.373  0.3537  0.4101  0.0973
  354loPI    C3 5651  17.025   0.004  10.768 -0.0766  0.1529  0.1086
  354loPI   PO4 5652  16.577   0.173  10.340 -0.1386  0.0125 -0.1437
  354loPI   GL1 5653  16.517   0.284   9.856  0.1524 -0.3565 -0.1202
  354loPI   GL2 5654  16.348  -0.028   9.893  0.1417  0.1528  0.0697
  354loPI   C1A 5655  16.513   0.130   9.356 -0.2667 -0.1249 -0.1650
  354loPI   C2A 5656  16.654   0.155   8.951  0.0995 -0.1099  0.4020
  354loPI   C3A 5657  16.615   0.417   8.519  0.2069  0.0320  0.0745
  354loPI   C4A 5658  16.399   0.375   8.068  0.2342 -0.0362 -0.2650
  354loPI   C5A 5659  16.448   0.699   7.701  0.1400  0.0258  0.1377
  354loPI   C6A 5660  16.874   0.648   7.675  0.0306 -0.2081 -0.2257
  354loPI   C1B 5661  16.268  -0.303   9.506 -0.1666 -0.0401  0.0967
  354loPI   C2B 5662  16.377  -0.375   9.110  0.1531  0.0345 -0.0286
  354loPI   C3B 5663  16.178  -0.443   8.676  0.0904  0.2439 -0.0932
  354loPI   C4B 5664  15.735  -0.530   8.620 -0.2292 -0.0895  0.0151
  355loPI    C1 5665  16.819   2.326  10.430 -0.0580  0.0756 -0.0005
  355loPI    C2 5666  16.903   2.580  10.133 -0.1194 -0.0369 -0.1151
  355loPI    C3 5667  17.183   2.491  10.404  0.0183 -0.1295 -0.2858
  355loPI   PO4 5668  16.775   2.126  10.349  0.0544 -0.0778  0.2270
  355loPI   GL1 5669  16.640   1.982  10.014 -0.0639 -0.1957  0.0691
  355loPI   GL2 5670  16.594   2.236   9.887  0.2823  0.1786  0.1325
  355loPI   C1A 5671  16.879   1.796   9.665  0.1948  0.0767  0.1844
  355loPI   C2A 5672  16.890   1.605   9.244  0.1996 -0.1104 -0.1470
  355loPI   C3A 5673  17.113   1.492   8.891 -0.0931 -0.0335 -0.3520
  355loPI   C4A 5674  17.330   1.495   8.531 -0.1842 -0.3690 -0.1579
  355loPI   C5A 5675  17.558   1.540   8.136 -0.0423  0.0012 -0.1890
  355loPI   C6A 5676  17.940   1.648   7.868 -0.1646  0.1107 -0.0073
  355loPI   C1B 5677  16.876   2.522   9.640  0.0439 -0.2115  0.1010
  355loPI   C2B 5678  16.910   2.640   9.166  0.0423 -0.2917 -0.1156
  355loPI   C3B 5679  17.062   2.772   8.795  0.0755  0.1235 -0.2219
  355loPI   C4B 5680  17.092   2.849   8.409 -0.1806  0.1734  0.0366
  356loPI    C1 5681   5.482   2.723  10.739 -0.0909  0.0067 -0.0998
  356loPI    C2 5682   5.561   2.446  10.461  0.0295 -0.0825  0.0219
  356loPI    C3 5683   5.820   2.743  10.526  0.0077 -0.0690  0.0479
  356loPI   PO4 5684   5.231   2.765  10.651  0.3547  0.3097  0.2347
  356loPI   GL1 5685   5.074   2.586  10.261 -0.3497  0.0611 -0.0098
  356loPI   GL2 5686   5.075   2.316  10.145 -0.3605  0.0382 -0.0719
  356loPI   C1A 5687   4.888   2.695   9.909  0.0016  0.2491  0.1135
  356loPI   C2A 5688   4.969   2.816   9.487 -0.2520  0.2237 -0.0380
  356loPI   C3A 5689   5.102   2.719   9.040  0.1163  0.0043 -0.0513
  356loPI   C4A 5690   5.190   2.646   8.659 -0.2948  0.0459 -0.0667
  356loPI   C5A 5691   5.042   2.335   8.385 -0.0818 -0.0105  0.1632
  356loPI   C6A 5692   4.999   2.259   7.908 -0.0608  0.0436  0.0182
  356loPI   C1B 5693   4.995   2.255   9.812 -0.0587 -0.0051  0.3108
  356loPI   C2B 5694   5.130   2.233   9.412  0.1333 -0.0802  0.0946
  356loPI   C3B 5695   5.199   2.191   8.906  0.0734  0.3939  0.1854
  356loPI   C4B 5696   5.167   1.871   8.571 -0.0777 -0.2565 -0.0592
  357loPI    C1 5697   8.004   8.951  10.968  0.0830 -0.0132 -0.0150
  357loPI    C2 5698   8.169   9.241  10.747 -0.1116  0.1075 -0.0036
  357loPI    C3 5699   7.884   9.330  11.014 -0.1978 -0.0988 -0.0250
  357loPI   PO4 5700   8.209   8.822  11.023  0.1135 -0.3747 -0.1528
  357loPI   GL1 5701   8.493   8.861  10.650 -0.1222  0.2007 -0.1993
  357loPI   GL2 5702   8.464   8.590  10.574 -0.0250  0.1211  0.0821
  357loPI   C1A 5703   8.307   8.922  10.257 -0.2177  0.3738 -0.1922
  357loPI   C2A 5704   8.382   8.886   9.912 -0.0027  0.0111 -0.0984
  357loPI   C3A 5705   8.314   8.920   9.607 -0.0662 -0.0410  0.1639
  357loPI   C4A 5706   8.177   8.904   9.285 -0.0559  0.0784  0.1255
  357loPI   C5A 5707   8.116   9.005   8.942  0.0164 -0.0316  0.1358
  357loPI   C6A 5708   8.054   8.759   8.621  0.0296 -0.1002 -0.1828
  357loPI   C1B 5709   8.750   8.621  10.137  0.0291 -0.1610  0.0008
  357loPI   C2B 5710   8.952   8.675   9.675 -0.1227  0.0954  0.1299
  357loPI   C3B 5711   9.025   8.720   9.204  0.0857  0.0357  0.0255
  357loPI   C4B 5712   8.917   8.563   8.729  0.0235  0.0002  0.1291
  358loPI    C1 5713   1.079   8.229  10.763 -0.2685 -0.0868  0.0870
  358loPI    C2 5714   1.207   8.604  10.825  0.2371 -0.2076 -0.1678
  358loPI    C3 5715   0.999   8.413  11.109  0.0124  0.2454 -0.0186
  358loPI   PO4 5716   1.013   8.245  10.522 -0.0928  0.1688 -0.2281
  358loPI   GL1 5717   1.052   8.209  10.061 -0.0228  0.1290 -0.0025
  358loPI   GL2 5718   1.133   7.997   9.897 -0.0393  0.0258  0.1471
  358loPI   C1A 5719   0.982   8.408   9.608  0.2003  0.0520 -0.3547
  358loPI   C2A 5720   0.938   8.426   9.173  0.2371  0.2310 -0.1971
  358loPI   C3A 5721   1.057   8.485   8.759 -0.0465  0.2608  0.1283
  358loPI   C4A 5722   0.883   8.520   8.292 -0.1401 -0.0871 -0.0643
  358loPI   C5A 5723   0.927   8.411   7.936 -0.1103 -0.1839  0.2457
  358loPI   C6A 5724   1.288   8.548   7.635 -0.2836  0.0203 -0.2585
  358loPI   C1B 5725   1.099   7.805   9.524  0.2367  0.1462 -0.0946
  358loPI   C2B 5726   0.969   7.769   9.030 -0.1391 -0.2532 -0.2724
  358loPI   C3B 5727   0.930   7.905   8.646 -0.0137  0.0414 -0.1375
  358loPI   C4B 5728   0.851   7.982   8.205  0.0774  0.0897 -0.1965
  359loPI    C1 5729  17.531  13.857  10.886 -0.0945 -0.1170  0.1798
  359loPI    C2 5730  17.319  14.058  11.159 -0.1032 -0.0390  0.1160
  359loPI    C3 5731  17.509  13.721  11.261 -0.2266 -0.0890  0.1825
  359loPI   PO4 5732  17.427  13.945  10.675  0.3164  0.1775  0.1986
  359loPI   GL1 5733  17.528  13.987  10.292  0.0437  0.1528  0.2016
  359loPI   GL2 5734  17.872  14.120  10.148 -0.3981  0.0757 -0.0068
  359loPI   C1A 5735  17.554  13.874   9.839  0.0530 -0.1085 -0.0999
  359loPI   C2A 5736  17.434  13.759   9.373 -0.0571  0.1277 -0.1760
  359loPI   C3A 5737  17.342  13.788   8.993 -0.1281  0.1121  0.1589
  359loPI   C4A 5738  17.544  13.794   8.660 -0.1917  0.0480 -0.0087
  359loPI   C5A 5739  17.854  13.579   8.568 -0.2649 -0.1074  0.1408
  359loPI   C6A 5740  18.058  13.258   8.198 -0.0060  0.0801  0.1825
  359loPI   C1B 5741  18.037  13.934   9.846  0.0374  0.0003 -0.2331
  359loPI   C2B 5742  17.893  13.926   9.427  0.0620 -0.3310  0.0241
  359loPI   C3B 5743  17.827  13.770   9.077  0.0412  0.1035  0.0964
  359loPI   C4B 5744  17.945  14.005   8.814  0.1217  0.0760 -0.0633
  360loPI    C1 5745   9.603   4.332  10.510 -0.1541  0.1955 -0.0794
  360loPI    C2 5746   9.964   4.426  10.652 -0.2172  0.3217 -0.0004
  360loPI    C3 5747   9.715   4.203  10.871 -0.0041 -0.1833 -0.2570
  360loPI   PO4 5748   9.652   4.359  10.244  0.1238  0.2980 -0.1519
  360loPI   GL1 5749   9.809   4.287   9.869 -0.1040 -0.1822  0.0718
  360loPI   GL2 5750   9.513   4.291   9.717  0.1168  0.1254  0.1572
  360loPI   C1A 5751   9.821   4.106   9.378 -0.0120  0.0152  0.0933
  360loPI   C2A 5752   9.722   4.063   8.964 -0.0754 -0.1476  0.0656
  360loPI   C3A 5753   9.844   3.959   8.609 -0.2018  0.1384 -0.0592
  360loPI   C4A 5754  10.020   3.975   8.120  0.1748 -0.1674  0.1255
  360loPI   C5A 5755  10.492   3.918   7.890 -0.3019  0.2056 -0.1548
  360loPI   C6A 5756  10.845   3.870   8.035 -0.0281  0.1704 -0.0775
  360loPI   C1B 5757   9.389   4.348   9.287  0.1299  0.0646 -0.0322
  360loPI   C2B 5758   9.416   4.473   8.826 -0.2608 -0.0407 -0.2865
  360loPI   C3B 5759   9.354   4.717   8.444  0.3809  0.0115 -0.1158
  360loPI   C4B 5760   9.364   4.997   8.094 -0.1423  0.2923  0.1636
  361loPI    C1 5761  15.491   2.161  10.229 -0.1592 -0.0507  0.1136
  361loPI    C2 5762  15.782   2.129  10.502 -0.0199 -0.0581 -0.0344
  361loPI    C3 5763  15.413   2.233  10.615  0.0200 -0.1292  0.1658
  361loPI   PO4 5764  15.596   1.982  10.070  0.2066 -0.1759  0.2838
  361loPI   GL1 5765  15.738   1.842   9.675  0.1809  0.1231 -0.0633
  361loPI   GL2 5766  15.987   1.704   9.497 -0.0442  0.1080 -0.0947
  361loPI   C1A 5767  15.627   2.101   9.284 -0.1878 -0.0990  0.0995
  361loPI   C2A 5768  15.608   2.195   8.851 -0.2042  0.1264  0.0730
  361loPI   C3A 5769  15.637   2.261   8.425  0.0569 -0.0485  0.0374
  361loPI   C4A 5770  15.625   2.641   8.183 -0.2151  0.0124  0.0741
  361loPI   C5A 5771  15.424   2.715   7.882  0.1158  0.0695 -0.0213
  361loPI   C6A 5772  15.098   2.559   7.612  0.1666  0.0591  0.2832
  361loPI   C1B 5773  16.404   1.947   9.531 -0.1570 -0.2332  0.1835
  361loPI   C2B 5774  16.641   2.092   9.311 -0.1106  0.1205 -0.1769
  361loPI   C3B 5775  16.818   2.173   8.870  0.2136 -0.0292  0.0786
  361loPI   C4B 5776  16.905   2.399   8.448 -0.0582 -0.1293 -0.1991
  362loPI    C1 5777   7.259  12.420  10.447  0.0888 -0.2522  0.0153
  362loPI    C2 5778   7.626  12.547  10.350  0.0079 -0.0169  0.0127
  362loPI    C3 5779   7.498  12.574  10.729 -0.0391 -0.0141 -0.0034
  362loPI   PO4 5780   7.222  12.226  10.343 -0.0495  0.0293  0.1404
  362loPI   GL1 5781   6.924  12.153  10.115 -0.1950 -0.1833  0.0485
  362loPI   GL2 5782   6.999  11.779  10.119  0.0182  0.0762  0.0978
  362loPI   C1A 5783   6.750  12.116   9.656  0.0300  0.2725 -0.0555
  362loPI   C2A 5784   6.692  12.111   9.173  0.3978 -0.1066  0.1736
  362loPI   C3A 5785   6.626  12.136   8.741  0.1359  0.6088 -0.3433
  362loPI   C4A 5786   6.521  12.367   8.435 -0.0060 -0.0188 -0.0217
  362loPI   C5A 5787   6.380  12.735   8.339 -0.2120 -0.1532 -0.2036
  362loPI   C6A 5788   6.503  13.189   8.180  0.1097 -0.0138 -0.1077
  362loPI   C1B 5789   7.202  11.874   9.800  0.0046  0.0760  0.3145
  362loPI   C2B 5790   7.136  11.786   9.411  0.1616 -0.1119  0.2906
  362loPI   C3B 5791   7.045  11.843   8.985  0.1248 -0.0955 -0.0756
  362loPI   C4B 5792   7.073  11.960   8.588  0.0949  0.2409  0.2232
  363loPI    C1 5793   9.362   8.738  10.864  0.0658 -0.1878 -0.1714
  363loPI    C2 5794   9.607   8.815  11.171 -0.0750  0.0255 -0.1104
  363loPI    C3 5795   9.214   8.768  11.235 -0.0938 -0.0076 -0.2480
  363loPI   PO4 5796   9.446   8.596  10.761  0.1964  0.0990 -0.1838
  363loPI   GL1 5797   9.368   8.417  10.357  0.1085  0.3457 -0.1891
  363loPI   GL2 5798   9.206   8.188  10.475  0.2374  0.1355  0.1816
  363loPI   C1A 5799   9.253   8.244   9.840 -0.1784 -0.1618  0.0395
  363loPI   C2A 5800   9.304   8.274   9.400  0.0778  0.1203 -0.1709
  363loPI   C3A 5801   9.270   8.300   8.999  0.1197  0.3834  0.0642
  363loPI   C4A 5802   9.276   8.255   8.576 -0.4395  0.3891 -0.0607
  363loPI   C5A 5803   8.926   8.292   8.262 -0.3342  0.0346  0.1287
  363loPI   C6A 5804   8.672   8.533   7.939 -0.2048 -0.3438  0.1430
  363loPI   C1B 5805   9.238   7.824  10.114 -0.1204  0.2891 -0.0110
  363loPI   C2B 5806   9.389   7.770   9.738 -0.0020  0.3575  0.1266
  363loPI   C3B 5807   9.598   7.767   9.273 -0.2420 -0.1078 -0.0577
  363loPI   C4B 5808   9.506   7.889   8.798  0.1125 -0.1918 -0.0080
  364loPI    C1 5809   7.868   5.880  10.403  0.1740 -0.0766 -0.1101
  364loPI    C2 5810   7.587   5.605  10.329 -0.1123  0.1945 -0.0533
  364loPI    C3 5811   7.900   5.513  10.560 -0.1619 -0.1051 -0.1005
  364loPI   PO4 5812   7.624   6.152  10.381 -0.1734  0.0939 -0.0993
  364loPI   GL1 5813   7.374   6.098  10.004  0.1401 -0.0713 -0.2003
  364loPI   GL2 5814   7.542   5.971   9.830 -0.3973 -0.0530 -0.1335
  364loPI   C1A 5815   7.014   6.037   9.710  0.1919  0.3576 -0.1967
  364loPI   C2A 5816   6.910   5.908   9.199  0.0089  0.0282  0.3195
  364loPI   C3A 5817   6.993   5.983   8.796 -0.0827  0.3209 -0.0404
  364loPI   C4A 5818   7.256   6.292   8.594  0.0059  0.1229 -0.0045
  364loPI   C5A 5819   7.119   6.626   8.365 -0.2824 -0.2690  0.1610
  364loPI   C6A 5820   7.187   6.931   8.032  0.0345  0.1998 -0.0149
  364loPI   C1B 5821   7.564   6.095   9.402  0.1134  0.1575 -0.0710
  364loPI   C2B 5822   7.443   5.939   9.032  0.3239  0.1139  0.0859
  364loPI   C3B 5823   7.650   5.990   8.606 -0.1739 -0.1776  0.0174
  364loPI   C4B 5824   7.710   6.078   8.089 -0.1579  0.1800 -0.1479
  365loPI    C1 5825   0.623   9.401  10.263  0.0645 -0.1228  0.0428
  365loPI    C2 5826   0.772   9.450  10.631  0.0901  0.0031  0.0162
  365loPI    C3 5827   0.661   9.768  10.416 -0.0210 -0.0767 -0.0457
  365loPI   PO4 5828   0.825   9.216  10.177  0.0455  0.1819 -0.1480
  365loPI   GL1 5829   1.058   9.163   9.912 -0.1263 -0.1133 -0.1419
  365loPI   GL2 5830   1.429   9.501   9.876 -0.1155 -0.2130 -0.1694
  365loPI   C1A 5831   0.891   9.010   9.471 -0.2174 -0.0531  0.3128
  365loPI   C2A 5832   0.854   8.900   9.064 -0.0331 -0.0675 -0.0893
  365loPI   C3A 5833   0.864   9.001   8.681  0.2552 -0.2655 -0.1587
  365loPI   C4A 5834   0.902   9.022   8.224  0.0823 -0.0103  0.1832
  365loPI   C5A 5835   0.882   8.916   7.696 -0.3784  0.2635  0.1585
  365loPI   C6A 5836   1.239   9.110   7.445  0.0005  0.0424 -0.2524
  365loPI   C1B 5837   1.270   9.639   9.525 -0.1074 -0.0030  0.2552
  365loPI   C2B 5838   1.221   9.791   9.104  0.0189 -0.0459  0.0252
  365loPI   C3B 5839   1.139   9.854   8.753 -0.0523  0.3778  0.0140
  365loPI   C4B 5840   1.178   9.884   8.388 -0.2782 -0.2183 -0.0674
  366loPI    C1 5841  16.382   8.520  10.472 -0.2171  0.0398  0.0684
  366loPI    C2 5842  16.741   8.406  10.608 -0.1696  0.0806 -0.0218
  366loPI    C3 5843  16.457   8.522  10.865 -0.1115  0.0675  0.0486
  366loPI   PO4 5844  16.370   8.389  10.269 -0.4078 -0.0413  0.0239
  366loPI   GL1 5845  16.493   8.701   9.915  0.1832 -0.0911 -0.4153
  366loPI   GL2 5846  16.086   8.736   9.840 -0.1276  0.1363  0.0834
  366loPI   C1A 5847  16.852   8.562   9.619  0.0617 -0.0503  0.0445
  366loPI   C2A 5848  16.914   8.531   9.283 -0.0213 -0.1804  0.1130
  366loPI   C3A 5849  16.997   8.444   8.825 -0.0144 -0.0747  0.1105
  366loPI   C4A 5850  16.947   8.585   8.458  0.1321 -0.0580  0.3115
  366loPI   C5A 5851  17.039   8.571   8.028  0.3081 -0.0547 -0.0444
  366loPI   C6A 5852  16.900   8.545   7.663  0.1355  0.1401  0.0932
  366loPI   C1B 5853  16.296   8.667   9.487 -0.0149 -0.0689 -0.0600
  366loPI   C2B 5854  16.445   8.608   9.075 -0.0864 -0.3462  0.2447
  366loPI   C3B 5855  16.387   8.683   8.636 -0.4002 -0.3964  0.0045
  366loPI   C4B 5856  16.396   8.910   8.303 -0.3060 -0.0533  0.3531
  367loPI    C1 5857  15.794   5.147  10.645  0.2037 -0.0997 -0.0657
  367loPI    C2 5858  15.841   4.807  10.851 -0.0159 -0.0194  0.1230
  367loPI    C3 5859  15.609   5.098  10.997  0.0286  0.1420 -0.1214
  367loPI   PO4 5860  15.749   5.038  10.419 -0.1704 -0.2353 -0.0738
  367loPI   GL1 5861  15.814   5.185  10.020 -0.3548 -0.0185  0.0651
  367loPI   GL2 5862  16.114   5.110   9.831 -0.1245  0.1081 -0.3121
  367loPI   C1A 5863  15.675   4.908   9.677 -0.0371  0.1496  0.0292
  367loPI   C2A 5864  15.556   4.880   9.217  0.0684  0.1107 -0.2424
  367loPI   C3A 5865  15.713   4.657   8.779  0.0793  0.1454  0.0432
  367loPI   C4A 5866  15.703   4.621   8.307  0.1571 -0.0624  0.1050
  367loPI   C5A 5867  15.923   4.335   7.962  0.0123  0.2297  0.0930
  367loPI   C6A 5868  16.265   4.347   7.669 -0.0488 -0.0965 -0.1965
  367loPI   C1B 5869  16.063   4.992   9.399 -0.1679 -0.3375  0.1682
  367loPI   C2B 5870  16.152   5.051   8.940  0.1692  0.2180 -0.0872
  367loPI   C3B 5871  16.174   5.394   8.610  0.0527  0.2822 -0.0615
  367loPI   C4B 5872  16.587   5.413   8.452  0.0481 -0.2274  0.0284
  368loPI    C1 5873   5.004   7.298  10.218 -0.0388  0.1977  0.0033
  368loPI    C2 5874   4.995   7.566  10.515  0.0289  0.1790  0.0225
  368loPI    C3 5875   5.110   7.189  10.588  0.3036  0.2413 -0.0781
  368loPI   PO4 5876   5.153   7.424  10.047 -0.0154  0.1120  0.2187
  368loPI   GL1 5877   5.468   7.493   9.767  0.1881 -0.1876  0.1815
  368loPI   GL2 5878   5.758   7.636   9.923 -0.3689 -0.2435 -0.1900
  368loPI   C1A 5879   5.551   7.135   9.473 -0.1257  0.0055  0.4427
  368loPI   C2A 5880   5.555   6.926   9.067  0.2890 -0.0654  0.0067
  368loPI   C3A 5881   5.394   6.768   8.598 -0.0828  0.0256 -0.2000
  368loPI   C4A 5882   5.126   6.572   8.224 -0.2573  0.1054 -0.0902
  368loPI   C5A 5883   4.943   6.681   7.860 -0.2374  0.0471  0.1518
  368loPI   C6A 5884   4.941   6.885   7.552 -0.0433  0.0103 -0.0475
  368loPI   C1B 5885   5.876   7.599   9.496 -0.0906 -0.0402 -0.0308
  368loPI   C2B 5886   6.105   7.284   9.112 -0.2661  0.1486  0.0485
  368loPI   C3B 5887   6.265   7.184   8.689 -0.2499 -0.1541  0.2817
  368loPI   C4B 5888   6.495   7.162   8.273 -0.3093  0.2746 -0.1652
  369loPI    C1 5889   5.943  11.707  10.772  0.0865  0.0879 -0.0823
  369loPI    C2 5890   6.088  11.756  11.142  0.3455 -0.0466 -0.1636
  369loPI    C3 5891   5.831  11.460  11.066  0.0952  0.1349 -0.0393
  369loPI   PO4 5892   6.136  11.792  10.554  0.2544 -0.0952 -0.0080
  369loPI   GL1 5893   6.131  11.957  10.105 -0.0127  0.0547  0.2713
  369loPI   GL2 5894   5.754  12.042   9.940 -0.0676  0.2565 -0.0270
  369loPI   C1A 5895   6.178  11.974   9.672 -0.0230 -0.0043 -0.0093
  369loPI   C2A 5896   6.169  11.993   9.302 -0.0434 -0.2527  0.2398
  369loPI   C3A 5897   6.139  12.099   8.862  0.1410  0.0950 -0.0118
  369loPI   C4A 5898   6.060  12.327   8.506 -0.0932  0.1592 -0.1459
  369loPI   C5A 5899   6.057  12.483   8.016 -0.0058 -0.0423  0.2888
  369loPI   C6A 5900   6.108  12.933   7.924 -0.2167 -0.0699 -0.0513
  369loPI   C1B 5901   5.555  12.048   9.551 -0.1942  0.4264  0.3045
  369loPI   C2B 5902   5.656  11.987   9.127 -0.1605 -0.0387  0.1031
  369loPI   C3B 5903   5.589  11.973   8.707 -0.3088  0.0007 -0.0492
  369loPI   C4B 5904   5.591  11.980   8.224  0.1629 -0.0046  0.0586
  370loPI    C1 5905   1.110   9.834  10.654  0.2027  0.0983  0.1940
  370loPI    C2 5906   0.817  10.063  10.800  0.1232  0.1589 -0.0555
  370loPI    C3 5907   0.979   9.777  11.028 -0.2974 -0.0387  0.0057
  370loPI   PO4 5908   1.141   9.981  10.399 -0.3360 -0.0638  0.3390
  370loPI   GL1 5909   1.104   9.935   9.998  0.0258 -0.5235 -0.1082
  370loPI   GL2 5910   0.980   9.719  10.006 -0.4283 -0.1209 -0.0164
  370loPI   C1A 5911   0.774  10.043   9.580 -0.1791 -0.0190  0.1994
  370loPI   C2A 5912   0.762  10.025   9.053 -0.0786  0.3027  0.1330
  370loPI   C3A 5913   0.761  10.101   8.604 -0.2789  0.1483 -0.2280
  370loPI   C4A 5914   0.633  10.277   8.308  0.1430  0.4805 -0.0974
  370loPI   C5A 5915   0.522  10.334   7.920  0.1317  0.1461  0.0777
  370loPI   C6A 5916   0.793  10.300   7.564  0.2212  0.3503 -0.1040
  370loPI   C1B 5917   0.848   9.476   9.616 -0.0432 -0.1314  0.0873
  370loPI   C2B 5918   0.756   9.518   9.240  0.0314  0.1233  0.1451
  370loPI   C3B 5919   0.728   9.553   8.812 -0.3832  0.2309  0.3803
  370loPI   C4B 5920   0.858   9.531   8.384  0.0680 -0.0852 -0.0795
  371loPI    C1 5921   7.546  15.822  10.269  0.2067  0.1585  0.2639
  371loPI    C2 5922   7.204  15.781  10.472 -0.0373 -0.0769 -0.1792
  371loPI    C3 5923   7.365  16.144  10.422  0.0729 -0.0216  0.4903
  371loPI   PO4 5924   7.480  15.723  10.045 -0.0710  0.0922 -0.0220
  371loPI   GL1 5925   7.365  15.492   9.793  0.1504 -0.0510  0.1003
  371loPI   GL2 5926   6.978  15.510   9.729  0.0896  0.0599  0.1913
  371loPI   C1A 5927   7.281  15.473   9.331  0.0542  0.2372  0.0690
  371loPI   C2A 5928   7.328  15.472   8.840 -0.3114 -0.1516  0.0313
  371loPI   C3A 5929   7.061  15.689   8.697  0.2856  0.2570 -0.1466
  371loPI   C4A 5930   6.821  15.976   8.390 -0.4031 -0.1308  0.1538
  371loPI   C5A 5931   6.666  15.966   7.982  0.2889 -0.0385 -0.2266
  371loPI   C6A 5932   6.325  15.780   7.695 -0.0688 -0.1311  0.1382
  371loPI   C1B 5933   6.811  15.208   9.414  0.2999 -0.1201 -0.2162
  371loPI   C2B 5934   6.877  15.265   9.101 -0.5624  0.0808 -0.1786
  371loPI   C3B 5935   7.120  15.147   8.572  0.0822 -0.2404  0.2012
  371loPI   C4B 5936   7.433  15.375   8.365  0.1712  0.0382 -0.1147
  372loPI    C1 5937   9.478   3.903  10.364 -0.2543  0.1366  0.0171
  372loPI    C2 5938   9.211   3.661  10.539  0.0335 -0.1437  0.0763
  372loPI    C3 5939   9.525   3.796  10.746  0.2237 -0.2462 -0.1398
  372loPI   PO4 5940   9.476   3.816  10.066  0.2551  0.1365 -0.0716
  372loPI   GL1 5941   9.743   3.794   9.796  0.2267  0.1327  0.0136
  372loPI   GL2 5942   9.975   3.758   9.973  0.2068 -0.0696 -0.1436
  372loPI   C1A 5943   9.638   3.592   9.376 -0.2865  0.2482 -0.1061
  372loPI   C2A 5944   9.653   3.547   8.894  0.1598  0.1134  0.2335
  372loPI   C3A 5945   9.437   3.421   8.482 -0.0092  0.3840  0.1139
  372loPI   C4A 5946   9.219   3.620   8.164 -0.1802 -0.2541  0.1500
  372loPI   C5A 5947   9.029   3.904   7.792 -0.0009  0.0071  0.1764
  372loPI   C6A 5948   8.993   4.010   7.370  0.0124  0.0448 -0.2648
  372loPI   C1B 5949  10.158   3.618   9.531 -0.2916 -0.1926  0.0868
  372loPI   C2B 5950  10.110   3.768   9.058 -0.3269 -0.2542 -0.0551
  372loPI   C3B 5951  10.284   3.678   8.706 -0.5380  0.1190  0.0510
  372loPI   C4B 5952  10.493   3.907   8.380 -0.3345  0.0825  0.0045
  373loPI    C1 5953   6.680   5.023  10.684 -0.0825  0.2707 -0.0860
  373loPI    C2 5954   7.062   4.919  10.740 -0.1762  0.0565  0.1755
  373loPI    C3 5955   6.948   5.299  10.794  0.0402  0.1681 -0.1264
  373loPI   PO4 5956   6.584   4.880  10.409 -0.0687 -0.0276  0.0602
  373loPI   GL1 5957   6.673   4.968  10.058 -0.0033 -0.2757  0.2331
  373loPI   GL2 5958   6.895   5.169   9.927  0.1672  0.3813  0.0402
  373loPI   C1A 5959   6.907   4.638   9.697 -0.0557  0.1160  0.1802
  373loPI   C2A 5960   7.023   4.535   9.239  0.0201  0.0281 -0.0354
  373loPI   C3A 5961   7.172   4.198   8.954  0.4624  0.2661  0.0054
  373loPI   C4A 5962   7.114   4.120   8.492 -0.0383  0.0444  0.2058
  373loPI   C5A 5963   7.015   4.041   8.119 -0.0027 -0.1195  0.0778
  373loPI   C6A 5964   7.097   3.879   7.704 -0.0195  0.1031  0.1166
  373loPI   C1B 5965   7.041   5.199   9.523  0.0021 -0.0713  0.0811
  373loPI   C2B 5966   7.055   5.089   9.068  0.0398  0.1357  0.1219
  373loPI   C3B 5967   7.046   5.143   8.680  0.0361 -0.2249  0.0172
  373loPI   C4B 5968   7.042   5.025   8.246 -0.0321 -0.0378  0.0516
  374loPI    C1 5969   3.239   0.666  10.647  0.0729  0.3024 -0.2022
  374loPI    C2 5970   3.616   0.533  10.654  0.0277  0.1747 -0.1501
  374loPI    C3 5971   3.475   0.749  10.959 -0.0708 -0.1452  0.0359
  374loPI   PO4 5972   3.177   0.727  10.404 -0.3525  0.1755  0.1597
  374loPI   GL1 5973   3.360   0.639   9.910 -0.3225 -0.4111 -0.0040
  374loPI   GL2 5974   3.642   0.885  10.071  0.0579 -0.0128 -0.1488
  374loPI   C1A 5975   3.321   0.651   9.414 -0.1213  0.4170  0.0504
  374loPI   C2A 5976   3.222   0.569   8.993 -0.1212 -0.2234  0.1126
  374loPI   C3A 5977   3.400   0.439   8.596 -0.2515  0.3874  0.6499
  374loPI   C4A 5978   3.545   0.336   8.279 -0.0610 -0.3722  0.3096
  374loPI   C5A 5979   3.512   0.109   7.957  0.1153 -0.2485 -0.1532
  374loPI   C6A 5980   3.857  -0.202   7.911  0.0166 -0.0057 -0.0664
  374loPI   C1B 5981   3.770   0.694   9.567  0.3233 -0.2000  0.0443
  374loPI   C2B 5982   3.669   0.425   9.175 -0.0323  0.1249 -0.3441
  374loPI   C3B 5983   3.844   0.642   8.828 -0.1766 -0.1187 -0.1273
  374loPI   C4B 5984   3.830   0.726   8.309 -0.1444 -0.1010 -0.0243
  375loPI    C1 5985  12.179   6.169  10.449  0.0960 -0.0719 -0.0305
  375loPI    C2 5986  12.269   6.039  10.817  0.1416 -0.2498 -0.1033
  375loPI    C3 5987  11.888   6.047  10.695  0.1081 -0.0175  0.0110
  375loPI   PO4 5988  12.308   6.368  10.404  0.0237  0.0752 -0.3796
  375loPI   GL1 5989  12.516   6.415  10.088  0.3411 -0.0162  0.0887
  375loPI   GL2 5990  12.498   6.591   9.850  0.0691  0.2090  0.1838
  375loPI   C1A 5991  12.940   6.450   9.907  0.2799  0.2572 -0.2700
  375loPI   C2A 5992  13.054   6.570   9.548 -0.5232 -0.2890 -0.1915
  375loPI   C3A 5993  12.968   6.909   9.244  0.1711 -0.1304  0.0746
  375loPI   C4A 5994  13.084   7.020   8.838  0.1327 -0.0573  0.5438
  375loPI   C5A 5995  13.341   6.957   8.524  0.3248 -0.2653  0.0483
  375loPI   C6A 5996  13.644   6.551   8.500 -0.3087 -0.3415  0.2651
  375loPI   C1B 5997  12.445   6.882   9.392  0.1475 -0.0261  0.1835
  375loPI   C2B 5998  12.109   6.875   9.043  0.1847  0.0877  0.1761
  375loPI   C3B 5999  11.982   6.998   8.602  0.1830 -0.0003  0.1235
  375loPI   C4B 6000  11.609   7.191   8.447 -0.0938 -0.1021 -0.0348
  376loPI    C1 6001  16.714   7.332  10.770  0.0395 -0.0184 -0.0337
  376loPI    C2 6002  16.485   7.544  10.520 -0.1780 -0.2454 -0.0310
  376loPI    C3 6003  16.409   7.549  10.912  0.1578  0.1038  0.0351
  376loPI   PO4 6004  16.927   7.372  10.686  0.2751 -0.1932 -0.2039
  376loPI   GL1 6005  16.969   7.266  10.289  0.3565 -0.2192 -0.2070
  376loPI   GL2 6006  17.110   7.069  10.160  0.0708 -0.0102  0.0065
  376loPI   C1A 6007  17.151   7.465   9.900  0.3014  0.1852 -0.1435
  376loPI   C2A 6008  17.089   7.397   9.458 -0.3500 -0.0413 -0.1116
  376loPI   C3A 6009  17.235   7.423   9.010  0.2093  0.1637 -0.0710
  376loPI   C4A 6010  17.219   7.379   8.597 -0.1853  0.1475  0.2789
  376loPI   C5A 6011  17.113   7.552   8.251  0.0314 -0.1625 -0.2308
  376loPI   C6A 6012  17.207   7.651   7.864  0.2630 -0.1168  0.1763
  376loPI   C1B 6013  17.200   6.955   9.714 -0.0786 -0.0827  0.3971
  376loPI   C2B 6014  17.299   6.881   9.361  0.1648  0.1396 -0.0231
  376loPI   C3B 6015  17.270   6.769   8.928 -0.0490 -0.0921  0.2296
  376loPI   C4B 6016  17.244   6.836   8.563  0.3086  0.0240  0.1598
  377loPI    C1 6017   4.482   4.267  10.569 -0.2161  0.0198 -0.0373
  377loPI    C2 6018   4.203   4.097  10.800 -0.1302 -0.1220 -0.0367
  377loPI    C3 6019   4.581   4.122  10.928 -0.1616  0.1649  0.0071
  377loPI   PO4 6020   4.336   4.539  10.434 -0.2142 -0.0532  0.0011
  377loPI   GL1 6021   4.434   4.621  10.056 -0.1067  0.0401  0.1021
  377loPI   GL2 6022   4.712   4.522   9.985 -0.1731  0.3277  0.0603
  377loPI   C1A 6023   4.374   4.894   9.628 -0.1893 -0.1084 -0.1621
  377loPI   C2A 6024   4.656   5.154   9.418  0.0817  0.1372 -0.1167
  377loPI   C3A 6025   4.814   5.465   9.095 -0.2736 -0.0328 -0.1534
  377loPI   C4A 6026   4.860   5.379   8.676 -0.0294 -0.1316  0.2285
  377loPI   C5A 6027   5.151   5.215   8.479  0.0631 -0.2432 -0.1666
  377loPI   C6A 6028   5.412   4.988   8.120  0.2476  0.2084 -0.0416
  377loPI   C1B 6029   4.863   4.684   9.604  0.2200 -0.0022 -0.0818
  377loPI   C2B 6030   5.093   4.343   9.283 -0.2292  0.1224  0.1755
  377loPI   C3B 6031   5.337   4.129   9.026  0.1087 -0.0764  0.0521
  377loPI   C4B 6032   5.456   4.073   8.646  0.0199 -0.0203  0.0886
  378loPI    C1 6033   0.283  17.632  10.193  0.0319  0.0187 -0.0694
  378loPI    C2 6034  -0.061  17.452  10.290  0.0407  0.0372 -0.0035
  378loPI    C3 6035   0.183  17.285  10.020 -0.0827  0.0911 -0.1497
  378loPI   PO4 6036   0.155  17.884  10.050 -0.1453 -0.0510  0.1176
  378loPI   GL1 6037   0.182  17.881   9.654  0.0405  0.0762  0.0905
  378loPI   GL2 6038   0.094  17.543   9.601  0.3832  0.0447 -0.0901
  378loPI   C1A 6039   0.285  18.226   9.377 -0.2513 -0.0363 -0.0823
  378loPI   C2A 6040   0.312  18.166   8.976 -0.1994 -0.2434  0.0581
  378loPI   C3A 6041   0.430  18.059   8.591 -0.2728 -0.0467  0.1159
  378loPI   C4A 6042   0.357  17.661   8.324 -0.3422 -0.0932 -0.0010
  378loPI   C5A 6043   0.222  17.426   8.039  0.0850  0.0272  0.2619
  378loPI   C6A 6044  -0.089  17.193   7.743  0.0491  0.1519  0.0315
  378loPI   C1B 6045   0.123  17.292   9.500 -0.1770 -0.1748  0.3030
  378loPI   C2B 6046   0.097  17.107   9.071 -0.0056 -0.1635  0.3062
  378loPI   C3B 6047   0.307  17.030   8.781  0.0944 -0.1987  0.3397
  378loPI   C4B 6048   0.190  17.023   8.311  0.1561 -0.0541 -0.0740
  379loPI    C1 6049  12.971  11.363  10.643  0.0360 -0.1587  0.0210
  379loPI    C2 6050  13.171  11.086  10.851 -0.0861 -0.2552  0.0110
  379loPI    C3 6051  12.859  11.275  11.017  0.1296  0.0339  0.0959
  379loPI   PO4 6052  12.971  11.357  10.501  0.0228  0.2035 -0.0744
  379loPI   GL1 6053  13.254  11.318  10.190  0.1992  0.2130  0.0006
  379loPI   GL2 6054  12.972  11.313   9.966  0.2423  0.2144 -0.1403
  379loPI   C1A 6055  13.426  11.357   9.776  0.3110  0.0370 -0.0859
  379loPI   C2A 6056  13.302  11.324   9.258  0.1112 -0.0288 -0.0570
  379loPI   C3A 6057  13.423  11.310   8.884  0.0959  0.1250 -0.2887
  379loPI   C4A 6058  13.321  11.218   8.459 -0.1398  0.0100 -0.0504
  379loPI   C5A 6059  13.195  11.104   8.187  0.1764  0.0058  0.2660
  379loPI   C6A 6060  12.959  11.084   7.788 -0.3806  0.1232  0.0973
  379loPI   C1B 6061  12.735  11.252   9.498 -0.1246 -0.1172 -0.0403
  379loPI   C2B 6062  12.491  11.269   9.061 -0.0899 -0.3412  0.1684
  379loPI   C3B 6063  12.376  11.232   8.635 -0.0626  0.0417 -0.2354
  379loPI   C4B 6064  12.235  11.025   8.210 -0.1986 -0.1223  0.2704
  380loPI    C1 6065  18.373   9.165  10.340 -0.1478 -0.0307 -0.1568
  380loPI    C2 6066  18.642   9.311  10.599 -0.1872 -0.0041 -0.1307
  380loPI    C3 6067  18.419   8.993  10.698 -0.2986  0.0897 -0.0784
  380loPI   PO4 6068  18.451   9.365  10.108 -0.1196  0.1075  0.0168
  380loPI   GL1 6069  18.755   9.437   9.768 -0.0941 -0.0961 -0.0263
  380loPI   GL2 6070  18.828   9.060   9.709  0.0873 -0.1569  0.0809
  380loPI   C1A 6071  18.475   9.415   9.405  0.2256  0.0081 -0.1161
  380loPI   C2A 6072  18.279   9.460   8.996  0.2199  0.0781 -0.2687
  380loPI   C3A 6073  18.276   9.389   8.648 -0.0970 -0.0733 -0.0081
  380loPI   C4A 6074  18.199   9.462   8.207 -0.0984  0.1074 -0.3255
  380loPI   C5A 6075  18.063   9.785   7.943 -0.0903 -0.0972  0.1952
  380loPI   C6A 6076  17.927   9.830   7.599 -0.1354  0.0931  0.0143
  380loPI   C1B 6077  18.812   9.118   9.296  0.0035 -0.1298  0.2521
  380loPI   C2B 6078  18.787   9.145   8.894 -0.0947  0.0962  0.0324
  380loPI   C3B 6079  18.717   9.194   8.375  0.0294 -0.2467  0.2515
  380loPI   C4B 6080  18.586   9.087   7.922  0.0518 -0.0130 -0.2597
  381loPI    C1 6081   2.388  17.310  10.243  0.1796 -0.2750  0.0373
  381loPI    C2 6082   2.379  17.087  10.575  0.3555 -0.1401  0.1344
  381loPI    C3 6083   2.535  16.938  10.238 -0.2124 -0.4343 -0.0106
  381loPI   PO4 6084   2.181  17.404  10.203  0.0047  0.0735  0.0526
  381loPI   GL1 6085   2.057  17.438   9.921  0.0755 -0.1107 -0.1799
  381loPI   GL2 6086   2.237  17.619   9.719 -0.0094 -0.0595 -0.4959
  381loPI   C1A 6087   2.025  17.188   9.601 -0.0824  0.0392 -0.0342
  381loPI   C2A 6088   2.258  17.117   9.294 -0.0171  0.1815  0.0811
  381loPI   C3A 6089   2.396  17.072   8.789  0.0297  0.0700  0.0317
  381loPI   C4A 6090   2.461  17.134   8.402 -0.0220 -0.1928  0.2088
  381loPI   C5A 6091   2.637  17.222   8.054 -0.1302 -0.1993 -0.1924
  381loPI   C6A 6092   2.602  17.199   7.528  0.1061  0.2248 -0.0696
  381loPI   C1B 6093   2.055  17.698   9.377 -0.0493  0.0939  0.1127
  381loPI   C2B 6094   2.128  17.510   9.032 -0.2420  0.1419 -0.1962
  381loPI   C3B 6095   2.129  17.531   8.560  0.1033  0.0259 -0.0172
  381loPI   C4B 6096   2.138  17.397   8.117  0.0319 -0.2114  0.1589
  382loPI    C1 6097   6.691  11.410  10.767 -0.0338  0.0081 -0.0293
  382loPI    C2 6098   6.398  11.411  11.038 -0.1077 -0.0617 -0.1083
  382loPI    C3 6099   6.706  11.159  11.078 -0.1155 -0.0680 -0.0864
  382loPI   PO4 6100   6.627  11.553  10.553  0.0812 -0.2710 -0.0221
  382loPI   GL1 6101   6.359  11.513  10.238  0.0949  0.0776  0.0597
  382loPI   GL2 6102   6.368  11.322  10.099 -0.0287 -0.0128 -0.0710
  382loPI   C1A 6103   6.603  11.694   9.844 -0.0093 -0.0395  0.0185
  382loPI   C2A 6104   6.589  11.706   9.431 -0.2186  0.3228 -0.0185
  382loPI   C3A 6105   6.517  11.702   8.976 -0.0207  0.0302 -0.0947
  382loPI   C4A 6106   6.634  11.644   8.519  0.1791 -0.0169  0.0096
  382loPI   C5A 6107   6.740  11.908   8.179  0.1098  0.3768  0.1018
  382loPI   C6A 6108   6.586  12.202   7.920 -0.4101 -0.0609 -0.0187
  382loPI   C1B 6109   6.428  11.256   9.623  0.1953 -0.0390 -0.1804
  382loPI   C2B 6110   6.427  11.214   9.152  0.1323 -0.1430  0.2635
  382loPI   C3B 6111   6.375  11.183   8.699 -0.2674 -0.1445 -0.0979
  382loPI   C4B 6112   6.249  11.264   8.333  0.0776  0.0977  0.1176
  383loPI    C1 6113  15.232   3.948  10.710 -0.1579  0.0887  0.1949
  383loPI    C2 6114  15.207   4.211  11.011 -0.2663  0.1730  0.1130
  383loPI    C3 6115  15.397   3.863  11.065 -0.1188  0.2690  0.2212
  383loPI   PO4 6116  15.381   4.103  10.498  0.1054  0.2154 -0.0606
  383loPI   GL1 6117  15.353   4.138  10.081  0.0425  0.1156 -0.0667
  383loPI   GL2 6118  15.284   3.943   9.928 -0.0371 -0.2016 -0.0551
  383loPI   C1A 6119  15.348   4.396   9.747  0.0723 -0.0600 -0.1148
  383loPI   C2A 6120  15.196   4.512   9.281 -0.1174  0.0818 -0.2264
  383loPI   C3A 6121  15.308   4.454   9.005  0.2507  0.1763  0.1765
  383loPI   C4A 6122  15.198   4.477   8.498 -0.1722  0.1682  0.0922
  383loPI   C5A 6123  15.173   4.740   8.164 -0.0444 -0.4917  0.0035
  383loPI   C6A 6124  14.972   5.038   7.955  0.0615 -0.1739  0.1483
  383loPI   C1B 6125  15.495   3.922   9.572 -0.1214 -0.2160 -0.0945
  383loPI   C2B 6126  15.610   4.068   9.144 -0.0321 -0.4391  0.0623
  383loPI   C3B 6127  15.843   4.117   8.788  0.0294 -0.1544  0.0136
  383loPI   C4B 6128  16.020   3.876   8.510  0.2041  0.0255 -0.2063
  384loPI    C1 6129   8.657   1.391  10.635  0.1631  0.1042  0.1523
  384loPI    C2 6130   8.982   1.421  10.404  0.0856 -0.0836  0.0161
  384loPI    C3 6131   9.010   1.255  10.767  0.1203 -0.2057 -0.0417
  384loPI   PO4 6132   8.435   1.398  10.437  0.1089  0.2029 -0.2421
  384loPI   GL1 6133   8.252   1.396  10.105  0.1699  0.0231  0.0467
  384loPI   GL2 6134   8.040   1.633  10.126  0.1618 -0.0757  0.0883
  384loPI   C1A 6135   7.908   1.141   9.848 -0.2381  0.2968  0.2230
  384loPI   C2A 6136   7.847   1.154   9.467 -0.1272  0.2726  0.0631
  384loPI   C3A 6137   7.626   0.869   9.171 -0.5945  0.0893 -0.3150
  384loPI   C4A 6138   7.734   0.864   8.778  0.4886  0.0163 -0.0751
  384loPI   C5A 6139   7.844   0.801   8.324 -0.0695  0.3684 -0.2889
  384loPI   C6A 6140   8.225   0.916   8.062 -0.2068  0.0053 -0.0113
  384loPI   C1B 6141   7.812   1.620   9.778 -0.0106 -0.0860 -0.2627
  384loPI   C2B 6142   7.519   1.609   9.470  0.0590 -0.0571  0.1918
  384loPI   C3B 6143   7.607   1.470   9.073 -0.3150 -0.2115  0.1178
  384loPI   C4B 6144   7.616   1.711   8.771 -0.1702 -0.1466 -0.1997
  385loPI    C1 6145   6.571  16.603   9.999  0.0574  0.2072 -0.0081
  385loPI    C2 6146   6.430  16.527  10.366 -0.0358  0.0650 -0.0729
  385loPI    C3 6147   6.570  16.229  10.139  0.3121  0.1951 -0.0343
  385loPI   PO4 6148   6.356  16.798   9.876 -0.1719  0.0600 -0.1528
  385loPI   GL1 6149   6.331  17.138   9.760  0.1945  0.0328  0.2422
  385loPI   GL2 6150   5.960  17.138   9.715  0.1509 -0.0336 -0.0397
  385loPI   C1A 6151   6.381  17.220   9.357 -0.0759 -0.1557  0.1460
  385loPI   C2A 6152   6.406  17.236   8.957  0.0690  0.4707 -0.0419
  385loPI   C3A 6153   6.391  17.506   8.554  0.1038  0.1589  0.0931
  385loPI   C4A 6154   6.574  17.809   8.317 -0.1671 -0.1040 -0.0393
  385loPI   C5A 6155   6.657  17.902   7.921 -0.0087  0.0390  0.1520
  385loPI   C6A 6156   6.958  18.120   7.706  0.0867  0.0207 -0.1489
  385loPI   C1B 6157   5.924  16.944   9.411 -0.0740  0.0220 -0.2296
  385loPI   C2B 6158   6.208  16.746   9.184  0.0849  0.0174 -0.4274
  385loPI   C3B 6159   6.508  16.592   8.928  0.1624  0.0094 -0.1347
  385loPI   C4B 6160   6.605  16.180   8.825 -0.2886  0.2153 -0.0129
  386loPI    C1 6161   5.704  15.978  10.321  0.0039  0.0280 -0.0480
  386loPI    C2 6162   5.770  15.749  10.642  0.0056  0.1396  0.0320
  386loPI    C3 6163   5.989  16.079  10.584 -0.1154  0.2167  0.0110
  386loPI   PO4 6164   5.638  15.738  10.118  0.1208  0.1167 -0.1427
  386loPI   GL1 6165   5.691  15.685   9.677  0.1757 -0.0975 -0.0605
  386loPI   GL2 6166   5.992  15.806   9.578  0.1406  0.1732  0.2724
  386loPI   C1A 6167   5.472  15.521   9.310 -0.0929  0.0852  0.0488
  386loPI   C2A 6168   5.520  15.450   8.948  0.1336  0.2553  0.2043
  386loPI   C3A 6169   5.272  15.465   8.638 -0.1029 -0.2334  0.0204
  386loPI   C4A 6170   5.210  15.406   8.169  0.1622 -0.3181  0.0688
  386loPI   C5A 6171   4.771  15.412   8.053  0.3412 -0.0139 -0.0333
  386loPI   C6A 6172   4.537  15.555   7.719 -0.0462 -0.0592 -0.0550
  386loPI   C1B 6173   5.980  15.659   9.120 -0.2130  0.0058  0.0931
  386loPI   C2B 6174   6.082  15.441   8.740 -0.2444 -0.1726  0.2322
  386loPI   C3B 6175   6.259  15.097   8.438  0.0917 -0.2604  0.3057
  386loPI   C4B 6176   6.268  15.001   8.039 -0.0942  0.0571 -0.1002
  387loPI    C1 6177   9.781   2.973  10.404  0.1033 -0.0013  0.0647
  387loPI    C2 6178   9.857   2.588  10.481 -0.1098 -0.0685 -0.0531
  387loPI    C3 6179  10.091   2.873  10.636  0.1982 -0.2556 -0.1662
  387loPI   PO4 6180   9.576   2.978  10.286  0.1843  0.1020 -0.0046
  387loPI   GL1 6181   9.586   3.114   9.909  0.0798 -0.4400 -0.1216
  387loPI   GL2 6182   9.801   3.349   9.833  0.1978  0.1387 -0.3217
  387loPI   C1A 6183   9.544   3.086   9.491  0.4134  0.1064  0.0291
  387loPI   C2A 6184   9.408   3.107   8.933 -0.0474 -0.1715 -0.0580
  387loPI   C3A 6185   9.424   2.956   8.577  0.0748  0.0521 -0.2022
  387loPI   C4A 6186   9.709   3.062   8.311 -0.2672  0.1847 -0.1975
  387loPI   C5A 6187   9.937   3.156   7.923  0.0671 -0.1166 -0.1044
  387loPI   C6A 6188  10.327   3.267   7.701  0.0625 -0.0041  0.4314
  387loPI   C1B 6189  10.052   3.167   9.426 -0.1327 -0.0480  0.0637
  387loPI   C2B 6190   9.982   3.190   9.119 -0.1195 -0.0570  0.1504
  387loPI   C3B 6191   9.890   2.959   8.780  0.0554  0.1511  0.0195
  387loPI   C4B 6192   9.764   2.538   8.551 -0.1595 -0.0996 -0.3875
  388loPI    C1 6193  13.036   1.338  10.054 -0.2312  0.1433  0.0527
  388loPI    C2 6194  13.127   1.126  10.381 -0.0240  0.1196 -0.0189
  388loPI    C3 6195  12.798   1.355  10.376 -0.0931  0.0265  0.1619
  388loPI   PO4 6196  13.236   1.427   9.976 -0.3384  0.1130 -0.1912
  388loPI   GL1 6197  13.322   1.711   9.628 -0.2082 -0.2107 -0.2563
  388loPI   GL2 6198  13.139   1.884   9.722  0.0799  0.1473 -0.1197
  388loPI   C1A 6199  13.418   1.698   9.190 -0.3498 -0.2763 -0.0836
  388loPI   C2A 6200  13.554   1.585   8.754 -0.1254  0.5617 -0.0838
  388loPI   C3A 6201  13.706   1.501   8.363 -0.0875 -0.2044 -0.2925
  388loPI   C4A 6202  13.576   1.366   8.032  0.2143 -0.0301 -0.1642
  388loPI   C5A 6203  13.316   1.467   7.762  0.2205 -0.1775  0.0689
  388loPI   C6A 6204  13.282   1.389   7.321  0.2357  0.5550 -0.0355
  388loPI   C1B 6205  13.143   2.095   9.364 -0.3331  0.1143 -0.2819
  388loPI   C2B 6206  13.392   2.413   9.307  0.0546  0.0320 -0.1736
  388loPI   C3B 6207  13.830   2.602   9.235  0.2863 -0.2642 -0.1500
  388loPI   C4B 6208  14.323   2.559   9.335  0.2091 -0.1591 -0.2653
  389loPI    C1 6209   0.007   8.625  10.134 -0.0461 -0.1373 -0.0624
  389loPI    C2 6210   0.334   8.851  10.182 -0.1690  0.0792 -0.2266
  389loPI    C3 6211   0.222   8.597  10.471 -0.0604  0.2685 -0.0146
  389loPI   PO4 6212  -0.014   8.452   9.987  0.2046  0.2410  0.1717
  389loPI   GL1 6213   0.058   8.339   9.664 -0.2257 -0.1706 -0.0094
  389loPI   GL2 6214   0.405   8.505   9.766 -0.1990  0.1401  0.1165
  389loPI   C1A 6215   0.104   8.358   9.235  0.3844 -0.2411 -0.0368
  389loPI   C2A 6216   0.038   8.277   8.908  0.0158 -0.0768  0.1584
  389loPI   C3A 6217  -0.070   8.363   8.470 -0.0985 -0.0517  0.1842
  389loPI   C4A 6218  -0.054   8.412   8.092  0.2022 -0.0676 -0.1325
  389loPI   C5A 6219  -0.144   8.750   7.822 -0.0044 -0.2683  0.1055
  389loPI   C6A 6220  -0.502   8.894   7.575  0.0381  0.4163 -0.1084
  389loPI   C1B 6221   0.556   8.647   9.408  0.1044 -0.1746  0.1425
  389loPI   C2B 6222   0.483   8.613   9.005 -0.0039 -0.0552  0.2719
  389loPI   C3B 6223   0.446   8.778   8.554 -0.0139  0.0099  0.0449
  389loPI   C4B 6224   0.357   8.713   8.193  0.1877 -0.1755  0.0775
  390loPI    C1 6225   9.729   9.250  10.867  0.0084 -0.0783  0.1953
  390loPI    C2 6226   9.370   9.252  11.044 -0.0739 -0.0275  0.0302
  390loPI    C3 6227   9.499   9.578  10.852  0.1129 -0.0048  0.1905
  390loPI   PO4 6228   9.742   9.032  10.742 -0.0083 -0.0177  0.0345
  390loPI   GL1 6229   9.706   8.741  10.348 -0.2541  0.1000 -0.2476
  390loPI   GL2 6230   9.942   8.364  10.264 -0.0946  0.3492  0.2538
  390loPI   C1A 6231   9.589   8.625   9.903  0.0642 -0.2559 -0.2897
  390loPI   C2A 6232   9.525   8.698   9.548  0.0573 -0.0860  0.3268
  390loPI   C3A 6233   9.584   8.700   9.124  0.2170 -0.1594 -0.0256
  390loPI   C4A 6234   9.499   8.669   8.727  0.0755 -0.0312 -0.0336
  390loPI   C5A 6235   9.452   8.597   8.267 -0.1484  0.2371 -0.2048
  390loPI   C6A 6236   9.140   8.427   7.843 -0.1750  0.0715 -0.1566
  390loPI   C1B 6237   9.720   8.170  10.001 -0.0980 -0.1310 -0.2151
  390loPI   C2B 6238   9.798   8.278   9.532  0.2566  0.0558 -0.1588
  390loPI   C3B 6239   9.771   8.205   9.037  0.0316 -0.4119 -0.1197
  390loPI   C4B 6240   9.881   8.075   8.566 -0.1397 -0.1785 -0.0123
  391loPI    C1 6241   2.145  15.236  10.089 -0.1638 -0.2924 -0.1941
  391loPI    C2 6242   1.939  15.486  10.323  0.1271  0.1197 -0.3664
  391loPI    C3 6243   2.088  15.148  10.475 -0.1583  0.1098 -0.0966
  391loPI   PO4 6244   2.329  15.379   9.981  0.0447  0.0599 -0.1692
  391loPI   GL1 6245   2.323  15.661   9.591 -0.2193 -0.3802 -0.2039
  391loPI   GL2 6246   1.986  15.657   9.760  0.1998 -0.2084 -0.4706
  391loPI   C1A 6247   2.311  15.797   9.078 -0.1300  0.0978 -0.0139
  391loPI   C2A 6248   2.403  15.750   8.607  0.0879  0.0620  0.0943
  391loPI   C3A 6249   2.252  15.674   8.253 -0.0913 -0.1942  0.0271
  391loPI   C4A 6250   2.404  15.801   7.942 -0.0442  0.1966  0.0792
  391loPI   C5A 6251   2.292  15.967   7.545  0.1981  0.0461  0.1245
  391loPI   C6A 6252   2.280  16.256   7.227  0.1030 -0.0741 -0.0313
  391loPI   C1B 6253   1.856  15.718   9.375 -0.0285 -0.3338 -0.0778
  391loPI   C2B 6254   1.840  15.699   8.914  0.1341  0.0204  0.1111
  391loPI   C3B 6255   1.789  15.579   8.558  0.3217  0.1609  0.2458
  391loPI   C4B 6256   1.616  15.597   8.142  0.1205  0.1033  0.0837
  392loPI    C1 6257   6.079  17.314  10.183 -0.0823 -0.1278  0.1101
  392loPI    C2 6258   5.686  17.278  10.116 -0.1172 -0.0746  0.2807
  392loPI    C3 6259   5.906  16.953  10.195 -0.0547 -0.1535 -0.1870
  392loPI   PO4 6260   6.148  17.564   9.993 -0.1103  0.3087  0.1913
  392loPI   GL1 6261   6.320  17.849   9.726 -0.2661 -0.1264 -0.0227
  392loPI   GL2 6262   6.251  17.657   9.525  0.1050  0.0516 -0.0681
  392loPI   C1A 6263   6.433  18.083   9.363 -0.1847 -0.0601  0.2622
  392loPI   C2A 6264   6.527  18.092   8.963 -0.2204 -0.0814 -0.0646
  392loPI   C3A 6265   6.778  18.395   8.660  0.2631 -0.1449 -0.1992
  392loPI   C4A 6266   7.121  18.695   8.401 -0.1087  0.0494 -0.1189
  392loPI   C5A 6267   7.404  18.857   8.094 -0.4211  0.0459  0.1684
  392loPI   C6A 6268   7.725  19.259   7.863  0.1694 -0.1553 -0.2882
  392loPI   C1B 6269   6.139  17.823   9.084  0.1137 -0.0450 -0.0818
  392loPI   C2B 6270   5.697  17.828   8.936  0.3501  0.2103  0.0389
  392loPI   C3B 6271   5.591  17.837   8.538  0.1180  0.4343 -0.0827
  392loPI   C4B 6272   5.856  18.042   8.215  0.1312 -0.3112 -0.0186
  393loPI    C1 6273  10.032  11.522  10.744  0.0894  0.0644 -0.1044
  393loPI    C2 6274   9.638  11.467  10.787  0.0354  0.3955 -0.1501
  393loPI    C3 6275   9.862  11.565  11.104  0.0718  0.2680 -0.1359
  393loPI   PO4 6276  10.035  11.484  10.367 -0.1592  0.0048 -0.0106
  393loPI   GL1 6277   9.897  11.477   9.873 -0.0773 -0.3165 -0.0912
  393loPI   GL2 6278   9.603  11.322   9.955 -0.3650 -0.0214  0.1239
  393loPI   C1A 6279   9.891  11.470   9.431  0.0193  0.0491 -0.2352
  393loPI   C2A 6280   9.846  11.440   8.958  0.2003 -0.0845 -0.1171
  393loPI   C3A 6281   9.652  11.458   8.583  0.0208  0.0152 -0.2151
  393loPI   C4A 6282   9.611  11.290   8.295 -0.0316  0.1078  0.3642
  393loPI   C5A 6283   9.433  11.280   7.894  0.0982 -0.5335 -0.0226
  393loPI   C6A 6284   9.560  11.228   7.474  0.1743 -0.0775  0.0964
  393loPI   C1B 6285   9.601  11.011   9.703 -0.1910  0.0004  0.1968
  393loPI   C2B 6286   9.629  10.997   9.219 -0.1213 -0.2170  0.0892
  393loPI   C3B 6287   9.499  11.032   8.800  0.1095  0.2939 -0.1389
  393loPI   C4B 6288   9.524  10.801   8.340  0.1725  0.0259 -0.0579
  394loPI    C1 6289  14.178  17.236  10.579  0.0490  0.0315 -0.0068
  394loPI    C2 6290  13.997  16.942  10.378 -0.0287  0.0008  0.1073
  394loPI    C3 6291  13.835  17.082  10.715  0.1298  0.0137  0.1789
  394loPI   PO4 6292  14.252  17.404  10.379 -0.0705  0.0361  0.0421
  394loPI   GL1 6293  14.343  17.412   9.910 -0.1847 -0.2115  0.1944
  394loPI   GL2 6294  14.585  17.282   9.852  0.1602 -0.4683  0.0848
  394loPI   C1A 6295  14.063  17.260   9.491 -0.0840  0.2724 -0.0356
  394loPI   C2A 6296  14.082  17.060   9.133  0.0506 -0.2412  0.2831
  394loPI   C3A 6297  14.216  17.076   8.662 -0.2552 -0.1276 -0.1538
  394loPI   C4A 6298  14.279  16.972   8.352 -0.1500 -0.2424 -0.3007
  394loPI   C5A 6299  14.476  16.854   8.028 -0.3137  0.0010 -0.1638
  394loPI   C6A 6300  14.665  16.751   7.610  0.0702  0.0639  0.2193
  394loPI   C1B 6301  14.595  17.212   9.371 -0.0047 -0.2964 -0.1813
  394loPI   C2B 6302  14.611  17.278   8.918 -0.0510 -0.0070  0.0065
  394loPI   C3B 6303  14.743  17.278   8.496  0.0313  0.1038  0.0120
  394loPI   C4B 6304  14.987  17.528   8.191  0.0763 -0.0908  0.1311
  395loPI    C1 6305   6.751  14.479  10.526  0.1616  0.0359 -0.0223
  395loPI    C2 6306   6.483  14.376  10.804 -0.0711 -0.1791 -0.3191
  395loPI    C3 6307   6.864  14.437  10.907 -0.1751 -0.1458  0.0619
  395loPI   PO4 6308   6.656  14.632  10.370 -0.0865 -0.1006 -0.3039
  395loPI   GL1 6309   6.765  14.726   9.931 -0.0488  0.0352  0.1434
  395loPI   GL2 6310   6.557  14.515   9.794 -0.1318  0.2263 -0.1863
  395loPI   C1A 6311   7.025  14.652   9.572  0.0693 -0.0871  0.1182
  395loPI   C2A 6312   7.162  14.770   9.197 -0.0261  0.2845  0.4454
  395loPI   C3A 6313   7.071  14.662   8.794 -0.2293 -0.1862  0.0432
  395loPI   C4A 6314   7.174  14.704   8.445  0.0294  0.3950 -0.0625
  395loPI   C5A 6315   7.142  14.824   8.094 -0.3228 -0.2505 -0.2162
  395loPI   C6A 6316   7.074  15.258   7.835 -0.1860  0.1156  0.1940
  395loPI   C1B 6317   6.713  14.233   9.516 -0.1520 -0.1542  0.3302
  395loPI   C2B 6318   6.851  14.260   9.146  0.2065 -0.3004 -0.0536
  395loPI   C3B 6319   6.729  14.223   8.801  0.0156 -0.0981  0.0192
  395loPI   C4B 6320   6.534  14.038   8.401  0.0318 -0.1474  0.0283
  396loPI    C1 6321   3.236   5.694  10.158 -0.1270  0.1406  0.0769
  396loPI    C2 6322   3.563   5.785  10.369  0.0608  0.0454 -0.1690
  396loPI    C3 6323   3.203   5.895  10.503  0.1829  0.0607  0.1561
  396loPI   PO4 6324   3.289   5.790   9.866  0.0737 -0.0829 -0.0484
  396loPI   GL1 6325   3.031   5.582   9.607 -0.1799 -0.1869  0.0980
  396loPI   GL2 6326   2.777   5.460   9.698  0.3989  0.1421  0.1859
  396loPI   C1A 6327   3.203   5.575   9.219  0.0506 -0.0049  0.0271
  396loPI   C2A 6328   3.257   5.591   8.745  0.1261  0.0241 -0.2823
  396loPI   C3A 6329   3.153   5.308   8.374  0.2034  0.1050  0.2770
  396loPI   C4A 6330   2.870   5.426   8.110  0.0847  0.1406  0.1446
  396loPI   C5A 6331   2.734   5.375   7.703  0.1951  0.1690  0.1065
  396loPI   C6A 6332   2.344   5.302   7.594  0.3658  0.1950  0.0090
  396loPI   C1B 6333   2.724   5.347   9.259 -0.1743  0.1621  0.1667
  396loPI   C2B 6334   2.595   5.364   8.851 -0.2525  0.1187 -0.1225
  396loPI   C3B 6335   2.426   5.431   8.470  0.1617 -0.1191 -0.1924
  396loPI   C4B 6336   2.244   5.511   8.073 -0.3276  0.1665 -0.3748
  397loPI    C1 6337  16.455  16.046  10.618 -0.2740 -0.1061 -0.0320
  397loPI    C2 6338  16.390  15.877  10.261  0.0018 -0.2657 -0.0103
  397loPI    C3 6339  16.366  15.656  10.594 -0.0254 -0.1704  0.0516
  397loPI   PO4 6340  16.704  16.215  10.506  0.3969  0.0018  0.0042
  397loPI   GL1 6341  16.793  16.197  10.054 -0.2190  0.1229 -0.2940
  397loPI   GL2 6342  16.608  16.249   9.935 -0.1575  0.5867 -0.0158
  397loPI   C1A 6343  17.146  16.218   9.778  0.2481  0.0424  0.0863
  397loPI   C2A 6344  17.195  16.184   9.307 -0.0089  0.0596 -0.0436
  397loPI   C3A 6345  17.191  16.083   8.877 -0.1937  0.0735  0.0792
  397loPI   C4A 6346  17.075  15.865   8.463  0.1546  0.0702  0.3238
  397loPI   C5A 6347  17.099  15.448   8.202 -0.0165 -0.4296 -0.0974
  397loPI   C6A 6348  17.174  15.090   8.014  0.0310 -0.1373 -0.1031
  397loPI   C1B 6349  16.761  16.017   9.520 -0.1689  0.0550  0.2814
  397loPI   C2B 6350  16.957  15.675   9.376 -0.0015 -0.3558 -0.0977
  397loPI   C3B 6351  17.370  15.626   9.118 -0.0929  0.3713  0.0398
  397loPI   C4B 6352  17.418  15.554   8.709 -0.2279  0.1422  0.1747
  398loPI    C1 6353   5.415   6.298  10.222  0.3933 -0.0351  0.1438
  398loPI    C2 6354   5.401   5.977  10.460  0.2471 -0.0373  0.1335
  398loPI    C3 6355   5.145   6.279  10.517 -0.0614 -0.2147 -0.2713
  398loPI   PO4 6356   5.384   6.224  10.007  0.0698  0.2350  0.2372
  398loPI   GL1 6357   5.228   6.267   9.627 -0.1585 -0.0425 -0.1859
  398loPI   GL2 6358   5.390   5.956   9.594 -0.1279  0.0964  0.0529
  398loPI   C1A 6359   5.256   6.152   9.194 -0.0817  0.3437  0.1390
  398loPI   C2A 6360   4.916   5.930   8.850  0.0409  0.1188 -0.2332
  398loPI   C3A 6361   4.777   5.831   8.462  0.0236 -0.1472  0.0703
  398loPI   C4A 6362   4.782   5.707   7.992 -0.0427 -0.0726 -0.0010
  398loPI   C5A 6363   4.832   5.865   7.663  0.2650 -0.0380 -0.0274
  398loPI   C6A 6364   5.176   5.783   7.577 -0.1539 -0.0375  0.0637
  398loPI   C1B 6365   5.290   5.640   9.219  0.1227 -0.4539  0.0643
  398loPI   C2B 6366   5.299   5.603   8.814  0.0802 -0.3104 -0.2317
  398loPI   C3B 6367   5.344   5.737   8.376  0.0276  0.2482 -0.1501
  398loPI   C4B 6368   5.143   6.034   8.092 -0.1074 -0.0601 -0.1872
  399loPI    C1 6369   2.477   5.332  10.358  0.1381  0.0657  0.2425
  399loPI    C2 6370   2.785   5.585  10.385  0.0820  0.1294  0.2905
  399loPI    C3 6371   2.411   5.723  10.409  0.0486  0.0586  0.1837
  399loPI   PO4 6372   2.549   5.208  10.106  0.1583 -0.2624 -0.3012
  399loPI   GL1 6373   2.395   4.997   9.880  0.3419 -0.0098  0.0261
  399loPI   GL2 6374   2.348   5.185   9.609 -0.0775  0.3315  0.1319
  399loPI   C1A 6375   2.155   4.728   9.544  0.0544 -0.0750 -0.0727
  399loPI   C2A 6376   2.255   4.533   9.157  0.1820 -0.3550 -0.0527
  399loPI   C3A 6377   2.434   4.522   8.729 -0.4296 -0.2962  0.2117
  399loPI   C4A 6378   2.490   4.586   8.326 -0.0104 -0.0409  0.4450
  399loPI   C5A 6379   2.480   4.564   7.969  0.1463 -0.2507 -0.0850
  399loPI   C6A 6380   2.708   4.496   7.620 -0.0416  0.1180  0.2575
  399loPI   C1B 6381   2.198   5.132   9.194  0.0155 -0.0095 -0.0989
  399loPI   C2B 6382   2.106   5.166   8.772 -0.1373 -0.0341  0.0005
  399loPI   C3B 6383   2.204   4.941   8.541 -0.2377 -0.2735 -0.0804
  399loPI   C4B 6384   2.373   5.030   8.060 -0.2754 -0.1764 -0.0064
  400loPI    C1 6385   6.162  12.343  10.567  0.0329 -0.3914 -0.0277
  400loPI    C2 6386   5.979  12.572  10.839 -0.1049 -0.2554 -0.2318
  400loPI    C3 6387   6.047  12.186  10.916 -0.2227 -0.2394 -0.0407
  400loPI   PO4 6388   6.111  12.366  10.396  0.2596 -0.1825 -0.0185
  400loPI   GL1 6389   5.994  12.513   9.989  0.0583 -0.0610 -0.2388
  400loPI   GL2 6390   5.704  12.801   9.966  0.0479  0.0372 -0.0193
  400loPI   C1A 6391   5.905  12.385   9.624 -0.0159 -0.0933 -0.1579
  400loPI   C2A 6392   5.847  12.409   9.221  0.1635 -0.0636  0.0883
  400loPI   C3A 6393   5.595  12.442   8.869 -0.0289  0.0080 -0.0930
  400loPI   C4A 6394   5.501  12.515   8.480  0.1289  0.1781  0.1056
  400loPI   C5A 6395   5.577  12.553   8.043  0.1668 -0.1663 -0.0030
  400loPI   C6A 6396   5.423  12.356   7.625  0.0064 -0.1541 -0.1130
  400loPI   C1B 6397   5.631  12.803   9.515  0.0577 -0.3091 -0.0796
  400loPI   C2B 6398   5.641  12.860   9.093 -0.0885 -0.1906 -0.1485
  400loPI   C3B 6399   5.801  13.157   8.757  0.0775 -0.3552 -0.1430
  400loPI   C4B 6400   6.035  13.278   8.318  0.2412  0.1760  0.4578
  401loPI    C1 6401  13.675  12.277  10.648 -0.1049 -0.2063 -0.0365
  401loPI    C2 6402  13.566  11.947  10.845 -0.0556 -0.0280  0.2969
  401loPI    C3 6403  13.485  12.307  10.999  0.2094  0.1137  0.1121
  401loPI   PO4 6404  13.712  12.159  10.405  0.0737  0.0845  0.0318
  401loPI   GL1 6405  14.001  11.977  10.014 -0.2046  0.2418  0.1543
  401loPI   GL2 6406  13.826  11.584   9.888  0.0420  0.3452  0.0755
  401loPI   C1A 6407  14.087  11.989   9.644  0.1532  0.0838  0.1024
  401loPI   C2A 6408  14.062  11.987   9.266  0.2891  0.3070 -0.0054
  401loPI   C3A 6409  14.007  12.244   8.868 -0.0316  0.1773  0.0169
  401loPI   C4A 6410  14.244  12.370   8.585 -0.0090  0.2577  0.0729
  401loPI   C5A 6411  14.588  12.443   8.291 -0.1465  0.0433 -0.1377
  401loPI   C6A 6412  15.062  12.372   8.153 -0.3246 -0.2520 -0.0950
  401loPI   C1B 6413  13.732  11.654   9.424  0.1488  0.0618 -0.1060
  401loPI   C2B 6414  13.761  11.754   8.905  0.1577 -0.0188  0.1106
  401loPI   C3B 6415  13.444  11.792   8.652 -0.0961  0.0647 -0.0130
  401loPI   C4B 6416  13.093  12.071   8.738  0.1914 -0.0862 -0.2992
  402loPI    C1 6417   8.511  16.732  10.088  0.0071  0.3194  0.0797
  402loPI    C2 6418   8.750  16.730  10.409 -0.0342  0.0981  0.1105
  402loPI    C3 6419   8.878  16.890  10.066  0.0823  0.1624  0.1832
  402loPI   PO4 6420   8.437  16.433  10.083 -0.0606 -0.1667  0.1468
  402loPI   GL1 6421   8.259  16.292   9.754  0.0530  0.1764 -0.2880
  402loPI   GL2 6422   8.283  16.646   9.635 -0.1812  0.0524 -0.3613
  402loPI   C1A 6423   8.373  16.056   9.519  0.0671  0.0724  0.0700
  402loPI   C2A 6424   8.454  15.968   9.084 -0.2124 -0.0469 -0.1679
  402loPI   C3A 6425   8.554  15.983   8.686 -0.1694 -0.0800 -0.0747
  402loPI   C4A 6426   8.722  16.224   8.404  0.0462 -0.3020  0.0522
  402loPI   C5A 6427   8.745  16.143   8.051 -0.0335  0.2139  0.2691
  402loPI   C6A 6428   8.829  16.135   7.648  0.1245  0.1044  0.0799
  402loPI   C1B 6429   8.429  16.547   9.336  0.2125 -0.1909  0.0508
  402loPI   C2B 6430   8.481  16.471   8.901  0.0771 -0.0265 -0.1842
  402loPI   C3B 6431   8.366  16.525   8.487  0.1501 -0.3146  0.0367
  402loPI   C4B 6432   8.542  16.581   8.084 -0.2239 -0.2657  0.0356
  403loPI    C1 6433  14.546   6.637  10.524 -0.1632  0.0599  0.2300
  403loPI    C2 6434  14.692   6.628  10.896  0.0016  0.0646  0.1660
  403loPI    C3 6435  14.805   6.351  10.630 -0.0695  0.0964  0.1024
  403loPI   PO4 6436  14.371   6.627  10.472 -0.1105  0.0289 -0.0794
  403loPI   GL1 6437  14.050   6.440  10.131  0.0453 -0.0586  0.0825
  403loPI   GL2 6438  14.157   6.650   9.961  0.0844  0.2898 -0.0223
  403loPI   C1A 6439  14.045   6.085   9.743  0.0871  0.0835  0.1443
  403loPI   C2A 6440  14.076   6.106   9.420  0.0031 -0.0767 -0.0272
  403loPI   C3A 6441  14.274   6.202   9.150 -0.2502 -0.0015 -0.0840
  403loPI   C4A 6442  14.318   6.326   8.713 -0.1696 -0.3515 -0.3341
  403loPI   C5A 6443  14.372   6.114   8.279 -0.0286 -0.0060 -0.0434
  403loPI   C6A 6444  14.427   5.957   7.838 -0.1141  0.1613  0.1215
  403loPI   C1B 6445  14.193   6.570   9.548 -0.0850 -0.0485 -0.0408
  403loPI   C2B 6446  14.305   6.682   9.104  0.1099 -0.0358 -0.0316
  403loPI   C3B 6447  14.098   6.780   8.627  0.2821  0.0634 -0.3130
  403loPI   C4B 6448  14.065   6.689   8.270  0.1307  0.0916  0.1272
  404loPI    C1 6449   3.681   2.978  10.412  0.0264  0.0249 -0.1352
  404loPI    C2 6450   3.919   2.674  10.519 -0.0892 -0.0751 -0.1597
  404loPI    C3 6451   3.527   2.613  10.467 -0.1388  0.1106 -0.0191
  404loPI   PO4 6452   3.889   3.140  10.163 -0.0201  0.1126  0.0807
  404loPI   GL1 6453   3.955   3.087   9.718  0.1616 -0.0562 -0.1958
  404loPI   GL2 6454   3.530   3.155   9.648  0.0172 -0.2791 -0.0959
  404loPI   C1A 6455   4.165   3.190   9.321 -0.0652 -0.0952  0.0826
  404loPI   C2A 6456   4.129   3.250   8.965 -0.0103 -0.1353 -0.1494
  404loPI   C3A 6457   4.076   3.198   8.508  0.0875  0.1506  0.2845
  404loPI   C4A 6458   3.859   3.459   8.132 -0.2087 -0.1030  0.2253
  404loPI   C5A 6459   3.629   3.798   7.803 -0.0489  0.4604  0.0908
  404loPI   C6A 6460   3.273   4.053   7.781 -0.1189 -0.1482  0.1324
  404loPI   C1B 6461   3.728   2.963   9.256 -0.1084 -0.4216 -0.0287
  404loPI   C2B 6462   3.674   3.066   8.803  0.1106  0.3653  0.4358
  404loPI   C3B 6463   3.668   3.026   8.290  0.1581  0.1036  0.1610
  404loPI   C4B 6464   3.619   2.992   7.872 -0.0667  0.0298  0.0777
  405loPI    C1 6465  13.751   1.589  10.279 -0.0221  0.1433 -0.1122
  405loPI    C2 6466  13.655   1.206  10.212  0.1589  0.0902 -0.0727
  405loPI    C3 6467  13.609   1.364  10.577  0.2592  0.0529 -0.0437
  405loPI   PO4 6468  13.687   1.685  10.048 -0.1175 -0.0322 -0.2164
  405loPI   GL1 6469  13.805   1.563   9.532 -0.0280 -0.0781 -0.2807
  405loPI   GL2 6470  13.648   1.277   9.659 -0.0353  0.4110 -0.3982
  405loPI   C1A 6471  13.966   1.657   9.047  0.0178  0.1620  0.0345
  405loPI   C2A 6472  14.036   1.537   8.754 -0.2359 -0.1375 -0.4034
  405loPI   C3A 6473  14.171   1.266   8.464  0.1114 -0.0950  0.2568
  405loPI   C4A 6474  14.158   1.291   8.053 -0.0088  0.1305  0.0116
  405loPI   C5A 6475  14.012   0.966   7.815  0.0106 -0.0604  0.0332
  405loPI   C6A 6476  14.029   0.851   7.409  0.1506  0.0882 -0.1488
  405loPI   C1B 6477  13.511   0.912   9.497  0.2059  0.2687 -0.2022
  405loPI   C2B 6478  13.273   0.617   9.371  0.0574  0.0710 -0.0416
  405loPI   C3B 6479  13.322   0.349   9.049  0.1061 -0.5195  0.2712
  405loPI   C4B 6480  13.235   0.242   8.660  0.3335  0.1326  0.0049
  406loPI    C1 6481  11.763  14.944  10.717  0.0576 -0.3135 -0.3088
  406loPI    C2 6482  12.105  14.759  10.810  0.0744 -0.1743 -0.0852
  406loPI    C3 6483  12.019  15.114  10.973 -0.0496 -0.0774 -0.3547
  406loPI   PO4 6484  11.756  14.973  10.409  0.0743 -0.1640 -0.0036
  406loPI   GL1 6485  11.637  15.206   9.972 -0.1741 -0.0527  0.2781
  406loPI   GL2 6486  11.481  15.443   9.994  0.3307  0.1361  0.1470
  406loPI   C1A 6487  11.702  15.187   9.541  0.1995  0.0385  0.1670
  406loPI   C2A 6488  11.800  15.231   9.133 -0.1792  0.0461  0.3726
  406loPI   C3A 6489  11.703  15.147   8.659 -0.2678 -0.3036  0.1278
  406loPI   C4A 6490  11.782  15.048   8.306 -0.0321  0.0326 -0.1115
  406loPI   C5A 6491  11.591  14.891   8.004 -0.1822 -0.0789  0.2442
  406loPI   C6A 6492  11.208  14.956   7.760  0.1192 -0.3234  0.0627
  406loPI   C1B 6493  11.377  15.651   9.572 -0.2991  0.0677 -0.1219
  406loPI   C2B 6494  11.527  15.710   9.203 -0.0872 -0.1564 -0.2174
  406loPI   C3B 6495  11.573  15.631   8.820 -0.0774 -0.0767  0.1243
  406loPI   C4B 6496  11.551  15.670   8.383  0.3000 -0.0127  0.1828
  407loPI    C1 6497  17.618   6.516  10.895  0.0325 -0.1301  0.2643
  407loPI    C2 6498  17.669   6.911  10.863  0.1825 -0.1580  0.1474
  407loPI    C3 6499  17.811   6.716  11.182  0.1526 -0.1254  0.1808
  407loPI   PO4 6500  17.741   6.426  10.685  0.1397  0.0192 -0.1145
  407loPI   GL1 6501  17.671   6.247  10.345  0.3797  0.3206 -0.0563
  407loPI   GL2 6502  17.820   6.566  10.177 -0.1709 -0.1442  0.1195
  407loPI   C1A 6503  17.682   6.209   9.879  0.2776  0.0169 -0.0116
  407loPI   C2A 6504  17.816   6.208   9.490 -0.2125  0.2547 -0.0121
  407loPI   C3A 6505  17.785   6.126   9.016  0.1116 -0.0662  0.0816
  407loPI   C4A 6506  17.907   6.087   8.554 -0.3985  0.1729 -0.0575
  407loPI   C5A 6507  17.657   5.719   8.404 -0.0863 -0.0324  0.0949
  407loPI   C6A 6508  17.159   5.756   8.350 -0.2418 -0.0744 -0.1158
  407loPI   C1B 6509  17.795   6.750   9.758  0.1522  0.1654 -0.0135
  407loPI   C2B 6510  17.706   6.667   9.431 -0.1417  0.0484 -0.0972
  407loPI   C3B 6511  17.810   6.685   9.091  0.1870  0.1400 -0.2319
  407loPI   C4B 6512  17.705   6.547   8.695  0.1045 -0.1096 -0.1629
  408loPI    C1 6513   7.811   4.168  10.511 -0.0677  0.1192 -0.0324
  408loPI    C2 6514   7.930   3.848  10.720 -0.3687  0.1216  0.1477
  408loPI    C3 6515   8.116   4.199  10.768 -0.1191  0.0060  0.0428
  408loPI   PO4 6516   7.844   4.071  10.270 -0.0632 -0.0994  0.2311
  408loPI   GL1 6517   7.831   4.200   9.801  0.3587  0.0955  0.1449
  408loPI   GL2 6518   7.953   4.503   9.630  0.2677 -0.0437 -0.1775
  408loPI   C1A 6519   7.855   4.034   9.438 -0.0062  0.2585  0.0133
  408loPI   C2A 6520   7.790   4.163   8.948 -0.2749 -0.1097  0.2605
  408loPI   C3A 6521   7.555   4.361   8.591 -0.2230  0.0520 -0.2423
  408loPI   C4A 6522   7.304   4.490   8.176  0.3027  0.0092  0.2175
  408loPI   C5A 6523   7.189   4.762   7.826  0.1161 -0.0960 -0.1021
  408loPI   C6A 6524   7.091   5.017   7.448 -0.0968  0.4011 -0.1660
  408loPI   C1B 6525   7.925   4.603   9.235 -0.1258  0.0619  0.1461
  408loPI   C2B 6526   7.910   4.675   8.824  0.2317 -0.1687  0.2262
  408loPI   C3B 6527   7.977   4.614   8.380  0.3317 -0.0476 -0.2529
  408loPI   C4B 6528   7.779   4.445   8.001 -0.2089  0.1393  0.2409
  409loPI    C1 6529   5.780   9.512  10.329  0.2827  0.0099  0.0807
  409loPI    C2 6530   5.793   9.280  10.654  0.1738  0.0391  0.1063
  409loPI    C3 6531   5.942   9.650  10.667  0.2488  0.0094  0.0971
  409loPI   PO4 6532   5.817   9.314  10.114  0.1669 -0.1439 -0.2939
  409loPI   GL1 6533   5.874   9.200   9.750 -0.4072 -0.2488  0.0176
  409loPI   GL2 6534   5.649   9.319   9.682  0.0655  0.0414 -0.0384
  409loPI   C1A 6535   6.024   9.084   9.332  0.1393 -0.0017  0.0401
  409loPI   C2A 6536   6.165   8.888   9.062  0.0647  0.1099  0.0524
  409loPI   C3A 6537   6.249   8.873   8.603 -0.1399  0.0735 -0.0455
  409loPI   C4A 6538   5.974   8.879   8.286  0.2928  0.2193 -0.0528
  409loPI   C5A 6539   5.960   9.116   7.961 -0.0167  0.4566  0.0774
  409loPI   C6A 6540   6.217   9.348   7.891 -0.0522 -0.0146 -0.1024
  409loPI   C1B 6541   5.489   9.550   9.354 -0.0250 -0.0883  0.1741
  409loPI   C2B 6542   5.436   9.634   8.885  0.2732  0.1277  0.1972
  409loPI   C3B 6543   5.267   9.503   8.470 -0.0194 -0.1410 -0.2354
  409loPI   C4B 6544   5.075   9.326   8.170  0.2610 -0.1109  0.1226
  410loPI    C1 6545   3.795  17.473  10.407  0.0234  0.1211 -0.0204
  410loPI    C2 6546   3.753  17.351  10.786  0.1571 -0.0604 -0.0624
  410loPI    C3 6547   3.585  17.693  10.666  0.0561 -0.0367  0.1429
  410loPI   PO4 6548   4.085  17.466  10.274  0.0849 -0.1101  0.0201
  410loPI   GL1 6549   4.370  17.332   9.975  0.0093 -0.2176  0.3083
  410loPI   GL2 6550   4.164  17.141   9.877  0.0629  0.1138 -0.1308
  410loPI   C1A 6551   4.431  17.402   9.581 -0.1382 -0.0604 -0.1312
  410loPI   C2A 6552   4.276  17.293   9.216 -0.3205 -0.0103 -0.0484
  410loPI   C3A 6553   4.217  17.555   8.861 -0.2857 -0.0314 -0.1500
  410loPI   C4A 6554   4.397  17.498   8.473 -0.4518 -0.2389 -0.0089
  410loPI   C5A 6555   4.651  17.529   8.134  0.1244 -0.6129 -0.1073
  410loPI   C6A 6556   4.847  17.467   7.740 -0.1999 -0.2223  0.2351
  410loPI   C1B 6557   3.978  16.845   9.668 -0.2137  0.0139  0.2242
  410loPI   C2B 6558   3.923  16.848   9.241  0.0040 -0.1405  0.1674
  410loPI   C3B 6559   4.082  16.798   8.903  0.0437  0.2750  0.0895
  410loPI   C4B 6560   4.079  16.732   8.480 -0.2040  0.0679 -0.0256
  411loPI    C1 6561   5.988  10.565  10.740  0.2147 -0.0000  0.1576
  411loPI    C2 6562   5.676  10.397  10.925 -0.0213  0.1233 -0.1217
  411loPI    C3 6563   5.977  10.549  11.139 -0.1129 -0.0689  0.1484
  411loPI   PO4 6564   5.918  10.691  10.586  0.0224 -0.0560  0.0402
  411loPI   GL1 6565   5.852  10.482  10.156  0.0045  0.0763 -0.0023
  411loPI   GL2 6566   5.532  10.535  10.191 -0.1974 -0.3189 -0.0990
  411loPI   C1A 6567   6.080  10.317   9.809  0.2593 -0.2021  0.0838
  411loPI   C2A 6568   6.137  10.148   9.340  0.1210  0.0848  0.1766
  411loPI   C3A 6569   6.127  10.040   8.955  0.1470  0.0061  0.0526
  411loPI   C4A 6570   5.956   9.774   8.617 -0.1672  0.1601 -0.1154
  411loPI   C5A 6571   5.742   9.744   8.304 -0.0458  0.0168  0.0020
  411loPI   C6A 6572   5.544   9.451   8.019  0.0705 -0.0505  0.0504
  411loPI   C1B 6573   5.244  10.524   9.694  0.0572  0.1570  0.2611
  411loPI   C2B 6574   5.143  10.416   9.230 -0.2025  0.1471 -0.0331
  411loPI   C3B 6575   5.227  10.314   8.830  0.0156  0.0038  0.2065
  411loPI   C4B 6576   5.288  10.035   8.554  0.2604  0.1142  0.0817
  412loPI    C1 6577   1.345  17.962  10.641  0.1738 -0.0816 -0.1948
  412loPI    C2 6578   1.064  17.754  10.835  0.2057  0.1122  0.0645
  412loPI    C3 6579   1.395  17.870  11.027  0.1930  0.3926 -0.0781
  412loPI   PO4 6580   1.395  17.786  10.400  0.0634 -0.0280  0.0644
  412loPI   GL1 6581   1.588  17.696   9.963  0.0530  0.0594  0.0993
  412loPI   GL2 6582   1.284  17.853   9.921 -0.1102  0.0659 -0.1177
  412loPI   C1A 6583   1.612  17.585   9.597  0.0479 -0.0115  0.0280
  412loPI   C2A 6584   1.569  17.614   9.211 -0.1080  0.1145  0.0478
  412loPI   C3A 6585   1.641  17.495   8.817 -0.0115  0.2035 -0.0329
  412loPI   C4A 6586   1.587  17.479   8.339  0.2499  0.0434  0.1003
  412loPI   C5A 6587   1.484  17.824   8.068  0.2447  0.2096  0.4225
  412loPI   C6A 6588   1.470  18.153   7.767 -0.0208  0.0579  0.0191
  412loPI   C1B 6589   1.357  17.999   9.489 -0.2665 -0.3636 -0.0487
  412loPI   C2B 6590   1.240  17.818   8.947 -0.4487  0.0968  0.1545
  412loPI   C3B 6591   1.268  17.730   8.552 -0.1606 -0.0547  0.0206
  412loPI   C4B 6592   1.073  17.378   8.340 -0.1310 -0.1695  0.2445
  413loPI    C1 6593   4.864  13.988  10.350 -0.0303 -0.0527 -0.0807
  413loPI    C2 6594   5.236  14.130  10.316 -0.0208 -0.0880 -0.1258
  413loPI    C3 6595   5.175  13.761  10.460 -0.0511 -0.0028  0.0838
  413loPI   PO4 6596   4.755  14.097  10.140 -0.0549  0.2093 -0.4175
  413loPI   GL1 6597   4.439  14.036   9.764 -0.1721  0.2089  0.0073
  413loPI   GL2 6598   4.113  14.140   9.753 -0.1140  0.4593  0.0563
  413loPI   C1A 6599   4.714  14.006   9.493  0.3041 -0.1876 -0.1359
  413loPI   C2A 6600   4.770  13.722   9.194 -0.2434 -0.0961 -0.3177
  413loPI   C3A 6601   5.006  13.725   8.813 -0.1333  0.0484  0.0709
  413loPI   C4A 6602   5.069  13.640   8.415  0.3186  0.0034  0.3520
  413loPI   C5A 6603   4.961  13.818   8.136  0.2681 -0.1290  0.1287
  413loPI   C6A 6604   4.628  13.952   7.746 -0.3541  0.6241  0.2104
  413loPI   C1B 6605   4.185  13.938   9.321  0.4059 -0.1515  0.0869
  413loPI   C2B 6606   4.120  13.943   8.955  0.1331 -0.1455 -0.2372
  413loPI   C3B 6607   4.075  13.710   8.514 -0.2462 -0.1974 -0.0980
  413loPI   C4B 6608   3.978  13.313   8.372  0.5309  0.4529  0.1133
  414loPI    C1 6609   1.918   5.712  10.470 -0.1280 -0.0150  0.1508
  414loPI    C2 6610   1.987   5.321  10.421 -0.0570  0.0231 -0.0656
  414loPI    C3 6611   1.979   5.478  10.789 -0.1355 -0.1902  0.0257
  414loPI   PO4 6612   1.790   5.719  10.272 -0.0350 -0.0338  0.2876
  414loPI   GL1 6613   1.666   5.359  10.004  0.0796 -0.4872  0.1578
  414loPI   GL2 6614   1.904   5.063  10.024 -0.1310 -0.1568 -0.1113
  414loPI   C1A 6615   1.529   5.596   9.635 -0.1495  0.0918  0.1530
  414loPI   C2A 6616   1.276   5.684   9.243 -0.0225  0.0038 -0.1338
  414loPI   C3A 6617   1.095   5.777   8.831  0.0627 -0.0843 -0.1632
  414loPI   C4A 6618   0.910   5.605   8.469  0.2882 -0.3618  0.0394
  414loPI   C5A 6619   0.921   5.503   8.114 -0.1091 -0.1092  0.1107
  414loPI   C6A 6620   1.051   5.354   7.645  0.2618 -0.1978  0.1353
  414loPI   C1B 6621   1.829   5.185   9.557  0.0045 -0.0845 -0.3610
  414loPI   C2B 6622   1.680   5.352   9.164 -0.1797 -0.0367 -0.1345
  414loPI   C3B 6623   1.753   5.496   8.800  0.0613  0.2530  0.1719
  414loPI   C4B 6624   1.439   5.550   8.513  0.0463  0.2209 -0.0621
  415loPI    C1 6625  13.326  15.012  10.755 -0.1155  0.2561 -0.0477
  415loPI    C2 6626  13.037  14.938  11.021  0.0698 -0.0398  0.0767
  415loPI    C3 6627  13.147  15.315  10.945 -0.2912  0.0714  0.0855
  415loPI   PO4 6628  13.578  14.771  10.740 -0.2317 -0.1553  0.1881
  415loPI   GL1 6629  13.826  14.707  10.375 -0.1521 -0.0222 -0.2624
  415loPI   GL2 6630  13.561  14.741  10.072 -0.0384  0.2230  0.0952
  415loPI   C1A 6631  13.922  14.246  10.258  0.3545  0.1372 -0.0661
  415loPI   C2A 6632  14.190  14.007  10.018  0.2101  0.0935  0.2166
  415loPI   C3A 6633  14.457  13.865   9.595  0.0783  0.0070 -0.2052
  415loPI   C4A 6634  14.672  13.869   9.180 -0.4067 -0.0443 -0.0336
  415loPI   C5A 6635  14.568  13.754   8.720  0.1969 -0.0701  0.1980
  415loPI   C6A 6636  14.300  13.711   8.372  0.1076 -0.0284  0.0856
  415loPI   C1B 6637  13.659  14.747   9.677 -0.0340  0.1314 -0.2925
  415loPI   C2B 6638  13.898  14.649   9.340  0.0245  0.0478  0.2170
  415loPI   C3B 6639  14.155  14.634   9.013 -0.0538 -0.0586 -0.0757
  415loPI   C4B 6640  14.544  14.454   9.035  0.1752  0.1237  0.0641
  416loPI    C1 6641  14.069   4.550  10.714 -0.1329 -0.0470 -0.1310
  416loPI    C2 6642  13.834   4.867  10.782  0.0919  0.1709 -0.3482
  416loPI    C3 6643  14.231   4.901  10.818  0.1100 -0.1235 -0.2435
  416loPI   PO4 6644  13.960   4.520  10.459  0.0196 -0.0373  0.0291
  416loPI   GL1 6645  13.859   4.598  10.059 -0.0553 -0.2098 -0.2643
  416loPI   GL2 6646  14.057   4.256  10.034  0.1100 -0.1541  0.1258
  416loPI   C1A 6647  13.747   4.450   9.703  0.1831 -0.0566  0.2264
  416loPI   C2A 6648  13.816   4.412   9.233  0.3638 -0.2372  0.1363
  416loPI   C3A 6649  13.824   4.489   8.776 -0.3129 -0.0496 -0.0727
  416loPI   C4A 6650  13.996   4.743   8.488  0.0094 -0.0761 -0.0096
  416loPI   C5A 6651  14.377   4.937   8.199 -0.0378  0.0216  0.1888
  416loPI   C6A 6652  14.519   5.257   7.977  0.3112 -0.3016 -0.2962
  416loPI   C1B 6653  14.203   4.572   9.638  0.0510  0.0211  0.1575
  416loPI   C2B 6654  14.253   4.681   9.158  0.1719 -0.4057  0.0355
  416loPI   C3B 6655  14.430   4.734   8.735  0.0812  0.1998 -0.3318
  416loPI   C4B 6656  14.779   4.739   8.445 -0.0948  0.0234 -0.3080
  417loPI    C1 6657  12.568  10.885  10.912  0.0897  0.1192  0.1024
  417loPI    C2 6658  12.214  10.719  10.998  0.2125 -0.1252  0.1432
  417loPI    C3 6659  12.540  10.614  11.204  0.3533 -0.0798 -0.0535
  417loPI   PO4 6660  12.688  10.911  10.625  0.0751  0.4164 -0.1612
  417loPI   GL1 6661  12.566  10.816  10.230  0.2438  0.2264  0.1966
  417loPI   GL2 6662  12.273  10.858  10.133 -0.0408  0.1877  0.0230
  417loPI   C1A 6663  12.823  10.748   9.847 -0.0431  0.1145 -0.0422
  417loPI   C2A 6664  12.834  10.419   9.626 -0.3753 -0.1461  0.0291
  417loPI   C3A 6665  12.806  10.107   9.296 -0.0542  0.2024  0.3127
  417loPI   C4A 6666  12.644   9.675   9.227 -0.0576  0.2020  0.0411
  417loPI   C5A 6667  12.699   9.557   8.787 -0.1614 -0.2539  0.0287
  417loPI   C6A 6668  12.859   9.588   8.404  0.0476 -0.3359  0.0111
  417loPI   C1B 6669  12.397  11.028   9.778  0.0115  0.1421 -0.0245
  417loPI   C2B 6670  12.511  10.847   9.307  0.3568  0.0648  0.1294
  417loPI   C3B 6671  12.351  10.774   8.900 -0.2714  0.0252 -0.0803
  417loPI   C4B 6672  12.415  10.542   8.531 -0.0821  0.1871 -0.0858
  418loPI    C1 6673   7.572  10.819  11.110 -0.0469  0.0190 -0.1677
  418loPI    C2 6674   7.843  10.559  11.246 -0.1306  0.1345  0.2333
  418loPI    C3 6675   7.454  10.488  11.301 -0.1672  0.1783  0.0379
  418loPI   PO4 6676   7.590  10.857  10.852 -0.0819 -0.0041 -0.3818
  418loPI   GL1 6677   7.649  10.678  10.323 -0.2308  0.1240 -0.2928
  418loPI   GL2 6678   7.898  10.724  10.061  0.2522 -0.0245 -0.0152
  418loPI   C1A 6679   7.425  10.605   9.979 -0.0551  0.3388 -0.0567
  418loPI   C2A 6680   7.165  10.512   9.698  0.2188 -0.1081  0.0648
  418loPI   C3A 6681   7.173  10.501   9.297 -0.0322  0.0636 -0.0111
  418loPI   C4A 6682   7.057  10.546   8.838  0.0586 -0.1311  0.1609
  418loPI   C5A 6683   7.003  10.525   8.469  0.0314  0.4520  0.1174
  418loPI   C6A 6684   6.793  10.633   8.059  0.1946  0.2115  0.0289
  418loPI   C1B 6685   7.743  10.731   9.635  0.1936 -0.3786  0.0418
  418loPI   C2B 6686   7.644  10.631   9.246 -0.1846 -0.1768  0.1825
  418loPI   C3B 6687   7.526  10.640   8.777 -0.1275  0.1933  0.2896
  418loPI   C4B 6688   7.492  10.651   8.249  0.2015 -0.1285 -0.2816
  419loPI    C1 6689  16.456   2.717  10.403 -0.0027  0.0323 -0.0259
  419loPI    C2 6690  16.280   2.484  10.676  0.1786 -0.0909 -0.0119
  419loPI    C3 6691  16.227   2.881  10.686 -0.1812 -0.1344 -0.0720
  419loPI   PO4 6692  16.390   2.569  10.177  0.2506  0.2082 -0.0626
  419loPI   GL1 6693  16.400   2.746   9.796 -0.0875 -0.1261  0.0079
  419loPI   GL2 6694  16.154   2.984   9.728  0.1618  0.2041 -0.2621
  419loPI   C1A 6695  16.384   2.578   9.360  0.0181  0.2813  0.0054
  419loPI   C2A 6696  16.443   2.493   8.976  0.0016  0.3219  0.0747
  419loPI   C3A 6697  16.572   2.730   8.592  0.0303  0.4387 -0.1849
  419loPI   C4A 6698  16.573   2.772   8.237 -0.0463 -0.0951  0.2943
  419loPI   C5A 6699  16.894   2.686   7.988 -0.1597 -0.0075  0.0603
  419loPI   C6A 6700  17.169   3.068   7.918 -0.1859 -0.0039  0.0641
  419loPI   C1B 6701  16.146   3.001   9.246  0.1637 -0.3366  0.0387
  419loPI   C2B 6702  16.114   2.939   8.836 -0.0782  0.2287 -0.0837
  419loPI   C3B 6703  16.106   3.008   8.332  0.0484 -0.2379  0.1098
  419loPI   C4B 6704  16.316   3.242   7.930 -0.1896 -0.1933 -0.0972
  420loPI    C1 6705   2.993   8.733  10.267  0.0896 -0.1141 -0.1444
  420loPI    C2 6706   3.023   8.439  10.535  0.0900  0.0967  0.0904
  420loPI    C3 6707   2.881   8.796  10.645 -0.1534  0.1095 -0.2500
  420loPI   PO4 6708   2.825   8.676  10.113  0.0214  0.1920  0.1737
  420loPI   GL1 6709   2.877   8.602   9.767 -0.2104  0.2820  0.0666
  420loPI   GL2 6710   3.215   8.776   9.793 -0.0615  0.2193  0.2657
  420loPI   C1A 6711   2.733   8.701   9.463 -0.0717 -0.0695  0.1124
  420loPI   C2A 6712   2.455   8.703   8.980 -0.0376 -0.2400  0.0530
  420loPI   C3A 6713   2.186   8.838   8.608  0.0112 -0.0295  0.3240
  420loPI   C4A 6714   2.219   8.732   8.282  0.1391 -0.1088 -0.0914
  420loPI   C5A 6715   2.384   8.505   7.872  0.1064  0.0889  0.2857
  420loPI   C6A 6716   2.859   8.332   7.711  0.0169  0.1273  0.0132
  420loPI   C1B 6717   3.210   8.910   9.438  0.0964 -0.4363  0.5016
  420loPI   C2B 6718   3.356   9.341   9.226 -0.0955 -0.1715  0.1296
  420loPI   C3B 6719   3.209   9.324   8.820 -0.0037 -0.0769  0.0238
  420loPI   C4B 6720   3.030   9.134   8.486 -0.2440 -0.0748 -0.0174
  421loPI    C1 6721   1.808  14.385  10.541 -0.1520  0.0107  0.0771
  421loPI    C2 6722   1.580  14.583  10.803  0.1059 -0.0678  0.3675
  421loPI    C3 6723   1.946  14.717  10.715  0.0539 -0.0900  0.1094
  421loPI   PO4 6724   1.704  14.326  10.391 -0.4885 -0.1928 -0.1151
  421loPI   GL1 6725   1.892  14.147   9.983 -0.0748 -0.4482  0.0346
  421loPI   GL2 6726   2.052  13.913  10.243 -0.1275  0.0870 -0.4098
  421loPI   C1A 6727   1.951  14.018   9.584 -0.0031 -0.0575 -0.0675
  421loPI   C2A 6728   2.064  13.897   9.197  0.0313  0.0388  0.0061
  421loPI   C3A 6729   2.074  13.998   8.703 -0.0008 -0.1926 -0.0310
  421loPI   C4A 6730   2.138  13.963   8.300 -0.1287  0.0570  0.1258
  421loPI   C5A 6731   2.476  13.729   8.093 -0.1229 -0.2609  0.0176
  421loPI   C6A 6732   2.587  13.491   7.807  0.0130  0.0548  0.0621
  421loPI   C1B 6733   2.363  13.884   9.847 -0.2344 -0.0197  0.1607
  421loPI   C2B 6734   2.618  13.919   9.388 -0.3417 -0.0834 -0.3839
  421loPI   C3B 6735   2.589  13.927   8.936 -0.0087  0.0719 -0.3213
  421loPI   C4B 6736   2.675  13.976   8.460  0.0298  0.1976 -0.1466
  422loPI    C1 6737   0.192   7.167  10.784 -0.1202  0.0330 -0.0331
  422loPI    C2 6738  -0.093   6.981  10.993  0.0262  0.0667  0.2006
  422loPI    C3 6739  -0.042   7.376  11.032  0.0162  0.0832  0.0543
  422loPI   PO4 6740   0.142   7.058  10.508  0.3503 -0.1169  0.3169
  422loPI   GL1 6741   0.285   7.163  10.029 -0.1180 -0.0618  0.1901
  422loPI   GL2 6742   0.128   7.480  10.049 -0.0918  0.0512  0.1914
  422loPI   C1A 6743   0.221   6.850   9.697  0.2643 -0.0751  0.3490
  422loPI   C2A 6744   0.251   6.759   9.160  0.0912  0.0261 -0.1908
  422loPI   C3A 6745   0.110   6.758   8.675  0.0060 -0.2000 -0.2005
  422loPI   C4A 6746   0.067   6.817   8.268 -0.0034  0.1760  0.1305
  422loPI   C5A 6747  -0.054   7.054   7.914  0.1024  0.2197 -0.2332
  422loPI   C6A 6748  -0.212   7.428   7.909 -0.0306  0.5152  0.2215
  422loPI   C1B 6749   0.212   7.437   9.613 -0.0886  0.1372  0.1631
  422loPI   C2B 6750   0.156   7.276   9.187  0.0280  0.3532  0.2567
  422loPI   C3B 6751   0.099   7.329   8.712 -0.0562  0.0399  0.0672
  422loPI   C4B 6752   0.090   7.309   8.278 -0.0416 -0.0145 -0.2456
  423loPI    C1 6753  12.251  11.922  10.605 -0.2342  0.0544  0.2160
  423loPI    C2 6754  12.124  11.728  10.931 -0.2116 -0.1739  0.0911
  423loPI    C3 6755  12.063  12.122  10.896 -0.1149 -0.1266  0.4208
  423loPI   PO4 6756  12.197  11.748  10.360 -0.1200 -0.1215  0.1594
  423loPI   GL1 6757  12.331  11.801   9.932  0.0934 -0.2772  0.0044
  423loPI   GL2 6758  12.350  11.477   9.824  0.1138  0.0079 -0.1983
  423loPI   C1A 6759  11.979  11.884   9.593 -0.0545  0.0065  0.2211
  423loPI   C2A 6760  11.863  12.159   9.158 -0.1722  0.1130  0.0066
  423loPI   C3A 6761  11.703  12.109   8.781 -0.1813  0.2204  0.1018
  423loPI   C4A 6762  11.643  12.031   8.371 -0.1382 -0.1037 -0.0195
  423loPI   C5A 6763  11.765  12.372   8.164 -0.0613 -0.3218  0.2722
  423loPI   C6A 6764  11.855  12.603   7.810 -0.0923  0.2720  0.2342
  423loPI   C1B 6765  12.200  11.387   9.436 -0.0775  0.1354 -0.0167
  423loPI   C2B 6766  12.002  11.111   9.046 -0.3135  0.0636 -0.2391
  423loPI   C3B 6767  11.862  11.171   8.637  0.3361  0.3866 -0.0002
  423loPI   C4B 6768  11.467  11.011   8.557 -0.1342  0.0603  0.1873
  424loPI    C1 6769   7.897  12.102  10.583  0.1245 -0.0327  0.1822
  424loPI    C2 6770   8.108  12.400  10.747  0.0359  0.0620  0.1257
  424loPI    C3 6771   7.907  12.144  10.980  0.0812  0.0693  0.1728
  424loPI   PO4 6772   8.004  12.078  10.336  0.1580 -0.0419  0.1496
  424loPI   GL1 6773   7.756  12.199  10.049  0.2640 -0.0925 -0.0522
  424loPI   GL2 6774   7.812  11.787  10.036  0.1691  0.0628  0.2425
  424loPI   C1A 6775   7.669  12.088   9.631  0.0528 -0.1226  0.1816
  424loPI   C2A 6776   7.591  12.004   9.189 -0.1382 -0.2896  0.0533
  424loPI   C3A 6777   7.577  12.032   8.791  0.2425 -0.1909 -0.0022
  424loPI   C4A 6778   7.527  11.960   8.330  0.0777 -0.3424 -0.1105
  424loPI   C5A 6779   7.487  11.972   7.871 -0.0267 -0.0794 -0.0752
  424loPI   C6A 6780   7.139  11.716   7.838  0.2228  0.0247  0.1638
  424loPI   C1B 6781   8.103  11.616   9.697 -0.1519 -0.0016 -0.1277
  424loPI   C2B 6782   8.001  11.752   9.321  0.0280  0.0457  0.0327
  424loPI   C3B 6783   7.919  11.632   8.893  0.1296 -0.2328  0.3026
  424loPI   C4B 6784   7.819  11.536   8.451  0.0832  0.1925  0.1137
  425loPI    C1 6785  11.324  14.146  10.767 -0.1795  0.1779  0.1013
  425loPI    C2 6786  11.411  13.822  10.985  0.1296  0.1743 -0.0217
  425loPI    C3 6787  11.256  14.146  11.161 -0.3018 -0.0800  0.0821
  425loPI   PO4 6788  11.509  14.063  10.564 -0.1115 -0.0622  0.1227
  425loPI   GL1 6789  11.451  13.838  10.286 -0.0914  0.0857  0.0638
  425loPI   GL2 6790  11.523  13.533  10.100  0.2121 -0.0598  0.1355
  425loPI   C1A 6791  11.790  13.954   9.934 -0.0987  0.1439 -0.0006
  425loPI   C2A 6792  11.813  13.877   9.552  0.1555 -0.0237  0.1237
  425loPI   C3A 6793  11.769  13.762   9.329 -0.0093  0.0753  0.4811
  425loPI   C4A 6794  11.583  13.764   8.939 -0.1572  0.1191 -0.0380
  425loPI   C5A 6795  11.344  13.390   8.854 -0.0307 -0.0967  0.0002
  425loPI   C6A 6796  11.509  12.975   8.767  0.2015 -0.2925  0.1045
  425loPI   C1B 6797  11.739  13.463   9.731 -0.1363  0.3437  0.0819
  425loPI   C2B 6798  12.058  13.178   9.636  0.2072 -0.2917  0.0050
  425loPI   C3B 6799  12.395  13.039   9.331  0.0855  0.0392  0.0013
  425loPI   C4B 6800  12.601  13.020   8.985  0.0144  0.0145 -0.2571
  426loPI    C1 6801  11.233   9.497  10.835  0.1865 -0.0053 -0.1191
  426loPI    C2 6802  11.342   9.317  10.495  0.1390 -0.0513 -0.1100
  426loPI    C3 6803  11.605   9.355  10.794  0.1374 -0.1413 -0.0969
  426loPI   PO4 6804  11.060   9.698  10.709  0.1392  0.1677 -0.0236
  426loPI   GL1 6805  10.853   9.902  10.393 -0.3607  0.0990  0.0871
  426loPI   GL2 6806  10.972   9.543  10.222  0.1741 -0.0018 -0.2043
  426loPI   C1A 6807  10.672  10.178  10.114  0.2980 -0.2936  0.2481
  426loPI   C2A 6808  10.650  10.213   9.627 -0.2652 -0.2421  0.2438
  426loPI   C3A 6809  10.797  10.286   9.110 -0.1735  0.1766 -0.0123
  426loPI   C4A 6810  10.917  10.343   8.759 -0.0967 -0.2070  0.2686
  426loPI   C5A 6811  11.012  10.200   8.366 -0.1200  0.0640 -0.1758
  426loPI   C6A 6812  11.374  10.210   8.031 -0.1053 -0.3942 -0.2237
  426loPI   C1B 6813  10.976   9.828   9.840  0.0149  0.1315 -0.0458
  426loPI   C2B 6814  11.102  10.017   9.478  0.0701  0.1073 -0.6086
  426loPI   C3B 6815  11.391   9.938   9.135  0.1593  0.1918 -0.0211
  426loPI   C4B 6816  11.316  10.001   8.658 -0.0302  0.1355 -0.0358
  427loPI    C1 6817  10.040  12.630  10.643 -0.1099 -0.1685  0.1422
  427loPI    C2 6818   9.814  12.497  10.945 -0.2245  0.0905  0.1733
  427loPI    C3 6819   9.744  12.858  10.787  0.0381  0.0882  0.0471
  427loPI   PO4 6820  10.069  12.348  10.513 -0.1518 -0.0279  0.1345
  427loPI   GL1 6821   9.843  12.145  10.100  0.2697  0.0528 -0.3458
  427loPI   GL2 6822   9.910  11.886  10.151  0.0425  0.0462  0.0611
  427loPI   C1A 6823   9.695  12.338   9.900  0.3218 -0.1193 -0.0654
  427loPI   C2A 6824   9.545  12.402   9.524 -0.2786 -0.0116  0.2384
  427loPI   C3A 6825   9.424  12.254   9.088 -0.2701  0.0474 -0.2262
  427loPI   C4A 6826   9.358  12.026   8.766  0.1868 -0.5365  0.3167
  427loPI   C5A 6827   9.295  12.120   8.290  0.0720  0.0474 -0.1170
  427loPI   C6A 6828   9.410  12.234   7.810  0.0643  0.1019  0.2567
  427loPI   C1B 6829  10.024  11.905   9.677  0.1018 -0.2936 -0.0193
  427loPI   C2B 6830   9.854  12.009   9.253  0.2283  0.2429 -0.0666
  427loPI   C3B 6831   9.903  11.964   8.885  0.0434  0.1560  0.0869
  427loPI   C4B 6832   9.870  11.848   8.490 -0.1194 -0.2180  0.0225
  428loPI    C1 6833  13.621   5.269  10.387 -0.1593  0.1948  0.0931
  428loPI    C2 6834  13.241   5.375  10.450 -0.1759  0.0290  0.2826
  428loPI    C3 6835  13.465   5.244  10.754 -0.0035  0.0086  0.1485
  428loPI   PO4 6836  13.571   5.166  10.124  0.1072 -0.1793 -0.1017
  428loPI   GL1 6837  13.667   4.951   9.792 -0.2271 -0.0589 -0.1776
  428loPI   GL2 6838  13.369   4.974   9.699 -0.1662  0.2673 -0.0470
  428loPI   C1A 6839  14.145   5.039   9.571  0.2109  0.1384  0.2419
  428loPI   C2A 6840  14.117   5.131   9.042 -0.0524 -0.1851 -0.4834
  428loPI   C3A 6841  14.211   5.199   8.600 -0.1261  0.2340  0.0815
  428loPI   C4A 6842  14.003   5.268   8.262 -0.0550 -0.0343 -0.0925
  428loPI   C5A 6843  13.759   5.437   7.862 -0.1228 -0.1429 -0.1940
  428loPI   C6A 6844  13.294   5.500   7.765  0.0260 -0.1530 -0.0429
  428loPI   C1B 6845  13.639   4.937   9.316 -0.1216  0.1241 -0.2230
  428loPI   C2B 6846  13.702   4.998   8.838  0.1882 -0.4305  0.2152
  428loPI   C3B 6847  13.581   5.057   8.375  0.1313  0.1044 -0.1178
  428loPI   C4B 6848  13.406   5.085   7.950 -0.1041  0.1976  0.0773
  429loPI    C1 6849   7.642   7.233  10.835 -0.1724  0.0405 -0.0070
  429loPI    C2 6850   7.476   7.261  11.198 -0.0278 -0.0919  0.0700
  429loPI    C3 6851   7.868   7.190  11.162 -0.0878 -0.3469 -0.1114
  429loPI   PO4 6852   7.407   7.119  10.654  0.1494  0.2316 -0.4400
  429loPI   GL1 6853   7.416   7.363  10.251  0.1454  0.0908  0.0073
  429loPI   GL2 6854   7.281   7.041  10.159 -0.1394  0.3829  0.3167
  429loPI   C1A 6855   7.355   7.527   9.865  0.0568 -0.3005 -0.1014
  429loPI   C2A 6856   7.514   7.506   9.493 -0.0434  0.0074 -0.0179
  429loPI   C3A 6857   7.477   7.537   9.039 -0.1548  0.1510  0.0747
  429loPI   C4A 6858   7.394   7.458   8.620  0.1041 -0.1121 -0.2324
  429loPI   C5A 6859   7.349   7.434   8.155  0.0218  0.1130 -0.6204
  429loPI   C6A 6860   7.405   7.377   7.820 -0.2693  0.0004  0.2440
  429loPI   C1B 6861   7.225   7.115   9.617 -0.3907 -0.3351 -0.1879
  429loPI   C2B 6862   7.277   6.935   9.161  0.0601  0.1771  0.0703
  429loPI   C3B 6863   7.400   6.837   8.700  0.1458 -0.0181  0.0889
  429loPI   C4B 6864   7.531   7.002   8.396 -0.1352 -0.0593 -0.3157
  430loPI    C1 6865  11.924  12.960  10.506  0.1958 -0.1454  0.3365
  430loPI    C2 6866  12.314  13.035  10.456  0.1282  0.0425  0.0683
  430loPI    C3 6867  12.085  13.294  10.657  0.1080  0.0148  0.0812
  430loPI   PO4 6868  11.815  12.899  10.248 -0.0212 -0.0834  0.1228
  430loPI   GL1 6869  11.504  13.052   9.913 -0.0314 -0.4974 -0.1306
  430loPI   GL2 6870  11.294  13.212   9.744 -0.0346 -0.0788 -0.1034
  430loPI   C1A 6871  11.600  12.816   9.522  0.3208 -0.0576 -0.0765
  430loPI   C2A 6872  11.710  12.614   9.158  0.0062 -0.2309  0.1666
  430loPI   C3A 6873  11.754  12.572   8.691  0.0049 -0.1985  0.3218
  430loPI   C4A 6874  11.788  12.825   8.318 -0.2044  0.2393 -0.2880
  430loPI   C5A 6875  11.896  13.181   8.422  0.3536  0.0286 -0.1473
  430loPI   C6A 6876  11.987  13.507   8.211  0.2955 -0.3098 -0.1002
  430loPI   C1B 6877  11.097  12.932   9.576  0.0585 -0.0249  0.2345
  430loPI   C2B 6878  11.136  12.966   9.141 -0.1028 -0.1762  0.1227
  430loPI   C3B 6879  10.921  12.814   8.721 -0.0330  0.0715 -0.0561
  430loPI   C4B 6880  10.838  12.861   8.271  0.0424 -0.3990 -0.0756
  431loPI    C1 6881   7.165  14.941  10.496  0.1317 -0.2706  0.2002
  431loPI    C2 6882   6.858  14.906  10.750 -0.0823 -0.2455 -0.0505
  431loPI    C3 6883   7.078  15.240  10.748 -0.2625 -0.1252 -0.0967
  431loPI   PO4 6884   7.054  14.888  10.284 -0.1267  0.0350  0.2330
  431loPI   GL1 6885   7.340  14.792   9.907  0.1089 -0.0510  0.3117
  431loPI   GL2 6886   7.181  15.057   9.837 -0.3882  0.3534 -0.2407
  431loPI   C1A 6887   7.521  14.474   9.503  0.0928  0.3066  0.0572
  431loPI   C2A 6888   7.826  14.129   9.522 -0.1276 -0.1808  0.0625
  431loPI   C3A 6889   8.065  13.844   9.195 -0.0393  0.1455 -0.2892
  431loPI   C4A 6890   8.326  13.703   8.883 -0.0602 -0.0440 -0.1152
  431loPI   C5A 6891   8.424  13.663   8.497 -0.1075  0.0822 -0.5365
  431loPI   C6A 6892   8.570  13.886   8.184 -0.0889 -0.1619  0.1001
  431loPI   C1B 6893   7.520  15.031   9.467 -0.0070 -0.0919 -0.0977
  431loPI   C2B 6894   7.547  15.094   9.046 -0.0897 -0.2539 -0.1996
  431loPI   C3B 6895   7.783  15.230   8.757  0.2008 -0.3384  0.0789
  431loPI   C4B 6896   7.960  15.327   8.333 -0.1075 -0.0112 -0.1500
  432loPI    C1 6897   2.760  15.706  10.290  0.1330 -0.0835  0.5150
  432loPI    C2 6898   2.993  16.029  10.249  0.1193 -0.1367 -0.0577
  432loPI    C3 6899   2.621  16.067  10.392  0.0868  0.1158 -0.2031
  432loPI   PO4 6900   2.725  15.682   9.971 -0.1396 -0.0570 -0.0002
  432loPI   GL1 6901   2.994  15.694   9.647 -0.2778  0.1390  0.0027
  432loPI   GL2 6902   2.819  15.985   9.507  0.0241  0.1811 -0.5305
  432loPI   C1A 6903   2.792  15.603   9.242  0.0477 -0.1059 -0.0476
  432loPI   C2A 6904   2.862  15.773   8.792 -0.0090 -0.0649  0.0733
  432loPI   C3A 6905   2.742  15.793   8.292 -0.1653 -0.2120 -0.0468
  432loPI   C4A 6906   2.859  15.648   7.926 -0.0195  0.1433 -0.0624
  432loPI   C5A 6907   2.764  15.361   7.624 -0.0317 -0.1585  0.0312
  432loPI   C6A 6908   2.785  14.910   7.634 -0.0599  0.3129  0.2294
  432loPI   C1B 6909   2.727  16.228   9.148  0.2055  0.0104 -0.4050
  432loPI   C2B 6910   2.340  16.245   8.893 -0.1942  0.0223 -0.1612
  432loPI   C3B 6911   2.069  16.212   8.523 -0.0219  0.0802  0.2260
  432loPI   C4B 6912   1.769  16.066   8.478 -0.1858  0.0431 -0.0126
  433loPI    C1 6913   4.432   2.098  10.830 -0.1520  0.1380  0.0055
  433loPI    C2 6914   4.116   1.861  10.766 -0.0302 -0.0849  0.2118
  433loPI    C3 6915   4.077   2.190  10.991 -0.1508 -0.0237  0.1029
  433loPI   PO4 6916   4.525   2.059  10.543 -0.1419  0.3333 -0.1549
  433loPI   GL1 6917   4.574   2.247  10.158 -0.1463 -0.1896  0.3444
  433loPI   GL2 6918   4.637   1.977   9.967  0.2286  0.0108  0.0982
  433loPI   C1A 6919   4.489   2.408   9.735  0.0179  0.2857  0.1598
  433loPI   C2A 6920   4.708   2.414   9.272  0.0792  0.1063  0.0922
  433loPI   C3A 6921   4.738   2.463   8.821 -0.2187 -0.3000 -0.4168
  433loPI   C4A 6922   4.513   2.497   8.441  0.1725  0.0121 -0.0840
  433loPI   C5A 6923   4.512   2.575   8.002  0.1002 -0.2017 -0.1466
  433loPI   C6A 6924   4.579   2.365   7.637  0.0697 -0.1056  0.1226
  433loPI   C1B 6925   4.686   1.997   9.562 -0.2193  0.3028  0.1267
  433loPI   C2B 6926   4.779   1.845   9.116 -0.2805 -0.2464  0.2654
  433loPI   C3B 6927   5.118   1.620   8.957  0.0817  0.0160 -0.0834
  433loPI   C4B 6928   5.378   1.376   8.736  0.0544 -0.1729 -0.0666
  434loPI    C1 6929   9.010  15.306  10.448 -0.0569 -0.0271 -0.0583
  434loPI    C2 6930   9.023  14.937  10.603  0.2684 -0.0278 -0.0816
  434loPI    C3 6931   9.294  15.210  10.712  0.0473  0.1973 -0.0868
  434loPI   PO4 6932   8.985  15.270  10.211 -0.0570  0.1050  0.1341
  434loPI   GL1 6933   9.210  15.207   9.860 -0.0066  0.1192  0.0094
  434loPI   GL2 6934   9.364  14.980   9.729 -0.4712  0.1015  0.1632
  434loPI   C1A 6935   9.319  15.505   9.498  0.3048  0.1479 -0.2042
  434loPI   C2A 6936   9.612  15.434   9.072  0.1033 -0.0483 -0.3251
  434loPI   C3A 6937   9.587  15.405   8.690  0.0171  0.0034  0.0704
  434loPI   C4A 6938   9.449  15.679   8.298 -0.1970 -0.1361  0.2505
  434loPI   C5A 6939   9.241  15.952   8.139  0.2780 -0.0271 -0.0134
  434loPI   C6A 6940   9.334  16.011   7.786 -0.0791  0.0152  0.2554
  434loPI   C1B 6941   9.374  15.064   9.343  0.0773  0.4370 -0.0381
  434loPI   C2B 6942   9.292  14.781   8.939 -0.0212  0.1639  0.4530
  434loPI   C3B 6943   9.407  14.739   8.555 -0.3557  0.0347 -0.0926
  434loPI   C4B 6944   9.418  14.438   8.276  0.3563  0.0218  0.0435
  435loPI    C1 6945   8.304  10.441  10.554  0.0453 -0.0305  0.0989
  435loPI    C2 6946   8.167  10.675  10.847 -0.0439  0.3682 -0.2511
  435loPI    C3 6947   8.505  10.771  10.656  0.1051  0.0192 -0.1705
  435loPI   PO4 6948   8.060  10.400  10.433 -0.1537  0.1157  0.0027
  435loPI   GL1 6949   8.166  10.045  10.186  0.1407  0.2834  0.0391
  435loPI   GL2 6950   8.370   9.940  10.193  0.1707  0.0226 -0.0749
  435loPI   C1A 6951   7.755  10.198   9.901  0.1024 -0.2010  0.1611
  435loPI   C2A 6952   7.555  10.128   9.465 -0.2740 -0.0332 -0.0793
  435loPI   C3A 6953   7.508  10.134   9.058  0.2886  0.2891  0.3031
  435loPI   C4A 6954   7.434  10.189   8.567  0.2130  0.0859  0.0718
  435loPI   C5A 6955   7.042  10.090   8.282 -0.1290 -0.0621 -0.1546
  435loPI   C6A 6956   6.697   9.959   8.051  0.2578 -0.0634  0.2534
  435loPI   C1B 6957   8.443   9.995   9.775 -0.0730 -0.0828  0.1452
  435loPI   C2B 6958   8.479   9.920   9.450 -0.0404  0.1328  0.0356
  435loPI   C3B 6959   8.490   9.918   9.094  0.1552 -0.1311  0.1544
  435loPI   C4B 6960   8.505  10.049   8.630  0.3613  0.0491 -0.0779
  436loPI    C1 6961  16.997  13.541  10.584  0.0690  0.1167  0.0747
  436loPI    C2 6962  16.987  13.820  10.871  0.3652  0.0947  0.1098
  436loPI    C3 6963  17.135  13.457  10.950  0.0881 -0.0385  0.0322
  436loPI   PO4 6964  17.092  13.657  10.353 -0.0025 -0.0901  0.2448
  436loPI   GL1 6965  16.864  13.446  10.008  0.0794 -0.0257 -0.0358
  436loPI   GL2 6966  16.684  13.351   9.607  0.0817 -0.1032  0.0765
  436loPI   C1A 6967  17.021  13.715   9.708  0.0718 -0.2514  0.0689
  436loPI   C2A 6968  16.984  13.633   9.316 -0.1329  0.0300  0.0254
  436loPI   C3A 6969  16.866  13.528   8.932 -0.1559 -0.1386 -0.1652
  436loPI   C4A 6970  17.158  13.502   8.624  0.1099 -0.0996 -0.1868
  436loPI   C5A 6971  17.281  13.552   8.245 -0.2891  0.1034 -0.0111
  436loPI   C6A 6972  17.487  13.301   7.975  0.0989  0.0213 -0.1168
  436loPI   C1B 6973  16.852  13.135   9.311 -0.1815 -0.1078  0.2555
  436loPI   C2B 6974  17.073  12.975   8.946 -0.0592 -0.1813 -0.1549
  436loPI   C3B 6975  17.028  13.062   8.476 -0.0129 -0.1511  0.2440
  436loPI   C4B 6976  16.961  13.230   8.073 -0.2817  0.2826  0.1330
  437loPI    C1 6977  13.617   2.448  10.657 -0.1108 -0.1650 -0.1667
  437loPI    C2 6978  13.527   2.059  10.667 -0.1847 -0.1449 -0.0115
  437loPI    C3 6979  13.830   2.199  10.886  0.0774 -0.1728 -0.3476
  437loPI   PO4 6980  13.546   2.509  10.376 -0.2410  0.1054  0.0716
  437loPI   GL1 6981  13.609   2.657   9.906  0.0679  0.1935 -0.0577
  437loPI   GL2 6982  13.571   2.209   9.759  0.0766 -0.3372 -0.0825
  437loPI   C1A 6983  13.526   2.864   9.552  0.0131 -0.1328 -0.1393
  437loPI   C2A 6984  13.455   2.922   9.163 -0.1153 -0.2765  0.2037
  437loPI   C3A 6985  13.331   2.970   8.707  0.1332  0.1271  0.0237
  437loPI   C4A 6986  13.384   2.858   8.270 -0.1051 -0.3074  0.0981
  437loPI   C5A 6987  13.204   2.733   7.852 -0.2481 -0.0321 -0.0001
  437loPI   C6A 6988  13.238   2.353   7.650  0.0556 -0.3734  0.3299
  437loPI   C1B 6989  13.746   2.049   9.400  0.2361  0.0787 -0.1260
  437loPI   C2B 6990  13.679   2.163   9.008  0.1634 -0.1066  0.0221
  437loPI   C3B 6991  13.723   2.007   8.560 -0.1208  0.2152 -0.0127
  437loPI   C4B 6992  14.076   1.846   8.376 -0.0377  0.1116  0.1492
  438loPI    C1 6993  17.482  15.778  10.752  0.0940  0.0116  0.0046
  438loPI    C2 6994  17.576  15.422  10.906 -0.0170 -0.0526 -0.0749
  438loPI    C3 6995  17.672  15.756  11.103 -0.0069 -0.1290  0.0513
  438loPI   PO4 6996  17.453  15.649  10.503  0.0362  0.2008  0.1624
  438loPI   GL1 6997  17.434  15.636  10.119 -0.1121  0.0092 -0.0619
  438loPI   GL2 6998  17.489  15.339  10.094 -0.1002  0.1226 -0.0734
  438loPI   C1A 6999  17.428  15.820   9.664  0.3039  0.1341  0.0567
  438loPI   C2A 7000  17.694  15.938   9.299  0.0141 -0.3130  0.1155
  438loPI   C3A 7001  17.685  15.965   8.931  0.0102  0.2698 -0.2351
  438loPI   C4A 7002  17.692  16.008   8.511 -0.2151 -0.1574  0.0053
  438loPI   C5A 7003  17.697  15.729   8.212  0.0257  0.0599 -0.1661
  438loPI   C6A 7004  17.620  15.239   8.283  0.1834 -0.0027 -0.0770
  438loPI   C1B 7005  17.434  15.170   9.673  0.0871  0.0186 -0.3892
  438loPI   C2B 7006  17.399  15.170   9.338 -0.1358 -0.0760  0.0032
  438loPI   C3B 7007  17.063  15.288   8.943  0.2186  0.0945  0.0610
  438loPI   C4B 7008  16.725  15.277   8.612  0.0191  0.0902  0.2368
  439loPI    C1 7009  16.458  17.771  10.385 -0.0344  0.1207 -0.0691
  439loPI    C2 7010  16.511  17.691  10.774  0.0361 -0.3062 -0.1614
  439loPI    C3 7011  16.588  18.057  10.632 -0.0227 -0.1378  0.2303
  439loPI   PO4 7012  16.219  17.676  10.326 -0.0603 -0.0413  0.2485
  439loPI   GL1 7013  15.997  17.392  10.051  0.0550  0.1171  0.1659
  439loPI   GL2 7014  15.601  17.307  10.014 -0.1468 -0.1853 -0.0142
  439loPI   C1A 7015  16.195  17.458   9.710 -0.1711 -0.0333  0.4195
  439loPI   C2A 7016  16.415  17.578   9.318  0.0453  0.0455 -0.0519
  439loPI   C3A 7017  16.449  17.578   8.806  0.1362  0.0176  0.2749
  439loPI   C4A 7018  16.497  17.634   8.365 -0.0428 -0.0173  0.3142
  439loPI   C5A 7019  16.447  17.909   8.120 -0.0302 -0.1117  0.0749
  439loPI   C6A 7020  16.175  18.200   8.075  0.0082 -0.1254  0.2297
  439loPI   C1B 7021  15.673  17.408   9.684  0.1024  0.0093 -0.2892
  439loPI   C2B 7022  15.636  17.432   9.300  0.0803 -0.0205 -0.2973
  439loPI   C3B 7023  15.521  17.519   8.905  0.1496 -0.3832  0.2900
  439loPI   C4B 7024  15.139  17.596   8.641  0.0277 -0.0921  0.1397
  440loPI    C1 7025   1.523   1.719  10.575 -0.0597  0.2187 -0.0174
  440loPI    C2 7026   1.144   1.712  10.448  0.0046  0.0971 -0.2066
  440loPI    C3 7027   1.224   1.692  10.839 -0.1825  0.0843 -0.1680
  440loPI   PO4 7028   1.641   1.691  10.383 -0.1579 -0.0787 -0.1567
  440loPI   GL1 7029   1.783   1.638   9.932 -0.1830  0.2098 -0.1322
  440loPI   GL2 7030   2.014   1.854   9.814 -0.0310 -0.0376 -0.3048
  440loPI   C1A 7031   1.772   1.416   9.526  0.2044 -0.2789  0.1261
  440loPI   C2A 7032   1.837   1.352   9.189 -0.0890  0.0593  0.1381
  440loPI   C3A 7033   1.973   1.445   8.806  0.0110  0.1038  0.1332
  440loPI   C4A 7034   1.972   1.532   8.396 -0.1643  0.4516 -0.0416
  440loPI   C5A 7035   2.163   1.517   8.020  0.1027 -0.1269 -0.0356
  440loPI   C6A 7036   2.328   1.426   7.669 -0.0300 -0.1735  0.1741
  440loPI   C1B 7037   2.006   1.857   9.388 -0.1522  0.2562 -0.0117
  440loPI   C2B 7038   2.007   1.914   8.995 -0.2964  0.0712  0.2117
  440loPI   C3B 7039   2.275   1.863   8.658  0.0592  0.2402 -0.4962
  440loPI   C4B 7040   2.494   1.555   8.501  0.1027 -0.1078  0.0402
  441loPI    C1 7041  15.244   6.515  10.497 -0.0272 -0.0274  0.0344
  441loPI    C2 7042  15.205   6.603  10.886  0.1799 -0.1490  0.0839
  441loPI    C3 7043  15.536   6.421  10.754  0.1511 -0.0251 -0.1652
  441loPI   PO4 7044  15.215   6.683  10.361 -0.0545  0.1921  0.0619
  441loPI   GL1 7045  15.132   6.894   9.971  0.3061  0.0588 -0.3563
  441loPI   GL2 7046  14.821   6.879  10.066  0.1430  0.0034 -0.0357
  441loPI   C1A 7047  15.183   6.722   9.561 -0.0148  0.1213 -0.0588
  441loPI   C2A 7048  15.244   6.608   9.167  0.2363 -0.2466  0.0194
  441loPI   C3A 7049  15.328   6.302   8.849 -0.2171 -0.2689 -0.0100
  441loPI   C4A 7050  15.303   6.312   8.456 -0.1162  0.2565 -0.0614
  441loPI   C5A 7051  15.316   6.497   8.061 -0.2335 -0.0093 -0.0502
  441loPI   C6A 7052  15.404   6.920   7.821 -0.0353 -0.1970  0.1276
  441loPI   C1B 7053  14.717   6.702   9.714 -0.1270  0.1721 -0.0342
  441loPI   C2B 7054  14.744   6.489   9.301  0.0687  0.2595  0.4227
  441loPI   C3B 7055  14.824   6.420   8.827  0.2462  0.4306 -0.0865
  441loPI   C4B 7056  15.094   6.720   8.635  0.0661  0.2325 -0.1934
  442loPI    C1 7057  12.654  13.400  10.700 -0.1037 -0.0437 -0.2807
  442loPI    C2 7058  12.404  13.490  11.000  0.1625  0.1867 -0.1235
  442loPI    C3 7059  12.485  13.108  10.915 -0.1548  0.1134 -0.1047
  442loPI   PO4 7060  12.556  13.540  10.428  0.0690 -0.1795  0.3527
  442loPI   GL1 7061  12.817  13.770  10.091  0.0325  0.2452 -0.1138
  442loPI   GL2 7062  12.743  14.053   9.980  0.1823 -0.1486  0.0487
  442loPI   C1A 7063  12.962  13.323   9.905  0.1148  0.0177  0.0393
  442loPI   C2A 7064  12.962  13.121   9.434  0.0049 -0.1069  0.0558
  442loPI   C3A 7065  13.132  13.227   8.971 -0.0732  0.0670  0.2632
  442loPI   C4A 7066  13.338  13.551   8.677 -0.1582  0.0429  0.1107
  442loPI   C5A 7067  13.599  13.558   8.325  0.0542  0.1347 -0.2526
  442loPI   C6A 7068  13.749  13.325   8.022 -0.3372 -0.1870 -0.1761
  442loPI   C1B 7069  12.754  13.831   9.586  0.0213  0.1593  0.1751
  442loPI   C2B 7070  12.718  13.529   9.211 -0.0917 -0.1911  0.2680
  442loPI   C3B 7071  12.684  13.463   8.773  0.0664  0.1586  0.0422
  442loPI   C4B 7072  12.865  13.270   8.424 -0.2075  0.1499 -0.0475
  443loPI    C1 7073   1.603   9.710  10.638  0.0508 -0.0316 -0.0636
  443loPI    C2 7074   1.362   9.470  10.849  0.0026 -0.0029 -0.0860
  443loPI    C3 7075   1.534   9.785  11.025  0.1964 -0.1462 -0.0143
  443loPI   PO4 7076   1.710   9.527  10.419 -0.0670 -0.0776  0.0691
  443loPI   GL1 7077   2.004   9.382   9.969 -0.2734  0.2759 -0.0405
  443loPI   GL2 7078   1.985   9.683   9.995 -0.0973  0.2799 -0.1631
  443loPI   C1A 7079   1.967   9.129   9.603 -0.1296 -0.0243  0.1833
  443loPI   C2A 7080   1.865   9.121   9.204  0.1907 -0.2113 -0.4770
  443loPI   C3A 7081   1.778   9.121   8.739  0.0020  0.1163 -0.2219
  443loPI   C4A 7082   1.716   9.070   8.302  0.2124 -0.2030  0.2378
  443loPI   C5A 7083   1.810   8.777   7.983 -0.1315  0.0225 -0.1459
  443loPI   C6A 7084   2.186   8.935   7.689  0.1823 -0.1857 -0.0402
  443loPI   C1B 7085   2.016   9.622   9.534  0.0657 -0.0503 -0.1558
  443loPI   C2B 7086   1.689   9.555   9.231 -0.0469  0.0640  0.2584
  443loPI   C3B 7087   1.582   9.621   8.717  0.1584  0.1356  0.1818
  443loPI   C4B 7088   1.623   9.681   8.227  0.1496  0.1433 -0.0060
  444loPI    C1 7089   8.473  15.200  10.412  0.1120  0.1427 -0.1141
  444loPI    C2 7090   8.303  15.515  10.592 -0.0450  0.1717 -0.3092
  444loPI    C3 7091   8.640  15.357  10.739 -0.0327  0.3533 -0.1393
  444loPI   PO4 7092   8.378  15.251  10.194 -0.0128  0.0569  0.1129
  444loPI   GL1 7093   8.382  15.433   9.831 -0.1137 -0.2327 -0.0312
  444loPI   GL2 7094   8.713  15.385   9.775  0.0047 -0.0966 -0.1091
  444loPI   C1A 7095   8.320  15.462   9.419 -0.1607 -0.0185  0.6328
  444loPI   C2A 7096   8.435  15.458   8.999  0.0058 -0.3029  0.0539
  444loPI   C3A 7097   8.754  15.543   8.661  0.2179 -0.2817  0.1449
  444loPI   C4A 7098   8.846  15.661   8.279  0.0775  0.2498 -0.2534
  444loPI   C5A 7099   8.890  15.666   7.839  0.0834  0.0158  0.2532
  444loPI   C6A 7100   8.631  15.708   7.432 -0.3476 -0.0153  0.0725
  444loPI   C1B 7101   8.774  15.232   9.298  0.0543 -0.0325 -0.2652
  444loPI   C2B 7102   8.850  15.036   8.918 -0.1219 -0.3069 -0.0813
  444loPI   C3B 7103   8.674  15.090   8.521  0.0411  0.1545  0.0779
  444loPI   C4B 7104   8.461  15.390   8.337 -0.0698  0.1638 -0.1004
  445loPI    C1 7105   1.338   2.651  10.337  0.0644  0.2843 -0.3733
  445loPI    C2 7106   1.475   2.909  10.610 -0.0696 -0.1778  0.1491
  445loPI    C3 7107   1.727   2.747  10.345  0.1195  0.0544  0.1826
  445loPI   PO4 7108   1.129   2.735  10.200 -0.0770 -0.0801 -0.1007
  445loPI   GL1 7109   1.103   2.886   9.835 -0.1143  0.0965 -0.0586
  445loPI   GL2 7110   1.228   3.213   9.730  0.0902 -0.1658 -0.1878
  445loPI   C1A 7111   0.885   2.823   9.528  0.0307 -0.0004 -0.1378
  445loPI   C2A 7112   0.738   3.118   9.117 -0.3166 -0.0513 -0.1708
  445loPI   C3A 7113   0.513   3.466   8.864  0.2892 -0.0299  0.0845
  445loPI   C4A 7114   0.356   3.639   8.495  0.2577  0.0540 -0.1175
  445loPI   C5A 7115   0.212   3.965   8.084 -0.0104  0.2029  0.3579
  445loPI   C6A 7116   0.326   3.935   7.630  0.1506 -0.1157 -0.0428
  445loPI   C1B 7117   1.539   3.247   9.467  0.0674 -0.0383  0.0049
  445loPI   C2B 7118   1.350   3.135   8.935  0.0313 -0.2409  0.1394
  445loPI   C3B 7119   1.226   3.110   8.439 -0.3833 -0.4583 -0.0453
  445loPI   C4B 7120   1.245   3.118   7.942 -0.1825  0.0802 -0.1445
  446loPI    C1 7121  11.938  14.316  10.667  0.2252  0.2462  0.2682
  446loPI    C2 7122  11.669  14.469  10.920  0.1138  0.1377  0.2166
  446loPI    C3 7123  11.828  14.109  10.991 -0.0407  0.0344  0.0477
  446loPI   PO4 7124  11.868  14.435  10.418  0.0031 -0.0311 -0.0074
  446loPI   GL1 7125  11.928  14.464  10.014 -0.0898 -0.2198 -0.1608
  446loPI   GL2 7126  11.707  14.674   9.995  0.2086 -0.2814  0.1555
  446loPI   C1A 7127  11.824  14.351   9.611 -0.2662 -0.1231  0.1346
  446loPI   C2A 7128  11.874  14.247   9.169 -0.1781  0.2103 -0.0425
  446loPI   C3A 7129  11.975  14.185   8.796 -0.0429  0.0875 -0.0663
  446loPI   C4A 7130  12.202  14.111   8.354 -0.2190  0.3728 -0.1996
  446loPI   C5A 7131  12.393  13.800   8.161 -0.0169 -0.0676  0.3161
  446loPI   C6A 7132  12.748  13.903   7.882  0.0867  0.0316 -0.0800
  446loPI   C1B 7133  11.458  14.689   9.625  0.1294  0.0439 -0.0071
  446loPI   C2B 7134  11.645  14.729   9.221  0.1980  0.1729  0.0687
  446loPI   C3B 7135  11.505  14.754   8.890 -0.1274  0.2244 -0.1551
  446loPI   C4B 7136  11.441  14.703   8.450  0.2278  0.2164 -0.0024
  447loPI    C1 7137   2.417  12.984  10.660  0.1352  0.0339  0.1303
  447loPI    C2 7138   2.569  12.656  10.833  0.3169  0.1600  0.2124
  447loPI    C3 7139   2.361  12.920  11.051  0.0635  0.0390  0.1210
  447loPI   PO4 7140   2.265  12.936  10.476 -0.1005 -0.0892  0.1075
  447loPI   GL1 7141   2.271  12.786  10.030  0.0087 -0.3440 -0.0222
  447loPI   GL2 7142   2.588  13.054  10.015 -0.0187 -0.1301  0.1599
  447loPI   C1A 7143   2.293  12.940   9.619  0.2264  0.1357 -0.1690
  447loPI   C2A 7144   2.516  12.926   9.201 -0.0232  0.2573 -0.2521
  447loPI   C3A 7145   2.449  13.097   8.800 -0.3361 -0.3065 -0.0241
  447loPI   C4A 7146   2.680  13.106   8.398 -0.2272 -0.2475  0.1247
  447loPI   C5A 7147   2.751  13.048   7.975 -0.2029  0.2970 -0.3834
  447loPI   C6A 7148   3.163  13.113   7.826  0.0300 -0.4970 -0.0033
  447loPI   C1B 7149   2.801  13.103   9.582 -0.0471  0.0520 -0.0942
  447loPI   C2B 7150   3.014  13.054   9.167 -0.0854 -0.2497  0.1931
  447loPI   C3B 7151   2.968  12.975   8.812 -0.3466 -0.1623  0.1212
  447loPI   C4B 7152   3.113  12.828   8.345 -0.1611  0.2973 -0.0496
  448loPI    C1 7153  13.576   3.511  10.529  0.0800 -0.0097 -0.1107
  448loPI    C2 7154  13.933   3.418  10.376  0.1873 -0.0519  0.1599
  448loPI    C3 7155  13.902   3.529  10.759 -0.1038 -0.1465  0.1662
  448loPI   PO4 7156  13.511   3.673  10.216 -0.0033  0.2557 -0.0794
  448loPI   GL1 7157  13.567   3.897   9.825  0.1357 -0.3582  0.0937
  448loPI   GL2 7158  13.417   4.051   9.693  0.2572 -0.0525 -0.2230
  448loPI   C1A 7159  13.900   3.867   9.492 -0.1953  0.3306 -0.2436
  448loPI   C2A 7160  13.904   3.911   9.075 -0.0167  0.1997  0.1348
  448loPI   C3A 7161  13.963   3.900   8.651 -0.0096 -0.2318  0.5239
  448loPI   C4A 7162  14.019   3.969   8.123 -0.1873  0.0572 -0.0102
  448loPI   C5A 7163  14.365   4.028   8.016 -0.1898 -0.0688 -0.0469
  448loPI   C6A 7164  14.620   3.752   7.640 -0.1632 -0.1182  0.2289
  448loPI   C1B 7165  13.399   4.014   9.249  0.1397 -0.2189  0.0741
  448loPI   C2B 7166  13.522   4.126   8.786 -0.1718 -0.0525 -0.4343
  448loPI   C3B 7167  13.624   4.278   8.308 -0.2891 -0.2962  0.2190
  448loPI   C4B 7168  13.780   4.318   7.842 -0.1021 -0.0868 -0.0437
  449loPI    C1 7169   6.417   9.952  10.727  0.0462 -0.2240  0.0486
  449loPI    C2 7170   6.125  10.012  10.994  0.0345 -0.1500  0.0194
  449loPI    C3 7171   6.368  10.313  10.892 -0.0484 -0.1413 -0.1567
  449loPI   PO4 7172   6.381   9.813  10.463  0.0621 -0.0805 -0.1143
  449loPI   GL1 7173   6.294   9.961  10.083  0.1744 -0.4780 -0.0743
  449loPI   GL2 7174   5.952   9.871  10.042  0.0254  0.0190 -0.0885
  449loPI   C1A 7175   6.393   9.883   9.669 -0.0283  0.0330 -0.0694
  449loPI   C2A 7176   6.550   9.890   9.217 -0.3057  0.0800 -0.0345
  449loPI   C3A 7177   6.627   9.720   8.842  0.1625  0.0144  0.0353
  449loPI   C4A 7178   6.951   9.628   8.509  0.5159 -0.0907  0.2173
  449loPI   C5A 7179   7.397   9.655   8.370  0.5082  0.0188  0.0267
  449loPI   C6A 7180   7.769   9.808   8.287 -0.0008  0.1616 -0.0587
  449loPI   C1B 7181   5.925   9.772   9.611 -0.3009 -0.1480  0.1701
  449loPI   C2B 7182   6.022   9.614   9.208  0.0100 -0.4316  0.5055
  449loPI   C3B 7183   6.168   9.341   8.925  0.4763  0.1387  0.0653
  449loPI   C4B 7184   6.561   9.247   8.684 -0.1986  0.0476 -0.2079
  450loPI    C1 7185   5.458   2.976  10.237  0.0638  0.0489  0.1820
  450loPI    C2 7186   5.129   3.122  10.063  0.0158 -0.3404 -0.0652
  450loPI    C3 7187   5.279   3.300  10.388 -0.3164 -0.0363 -0.0730
  450loPI   PO4 7188   5.520   2.796  10.074 -0.0928 -0.2114  0.0438
  450loPI   GL1 7189   5.333   2.599   9.770 -0.0690 -0.2126 -0.0671
  450loPI   GL2 7190   5.483   2.315   9.920 -0.0281 -0.0940  0.0399
  450loPI   C1A 7191   5.463   2.837   9.372  0.0149  0.0093 -0.0935
  450loPI   C2A 7192   5.584   2.482   9.039  0.1423 -0.0043  0.0395
  450loPI   C3A 7193   5.613   2.365   8.565  0.0233 -0.0537 -0.1135
  450loPI   C4A 7194   5.912   2.614   8.291 -0.2616  0.0163 -0.0342
  450loPI   C5A 7195   6.136   2.834   8.006 -0.2158  0.1330  0.0302
  450loPI   C6A 7196   5.898   3.218   7.740 -0.0432 -0.0643  0.1274
  450loPI   C1B 7197   5.686   2.352   9.480  0.0544 -0.1818 -0.1161
  450loPI   C2B 7198   5.997   2.213   9.121  0.2446  0.0979 -0.1758
  450loPI   C3B 7199   6.115   2.012   8.809  0.0238  0.3073 -0.0583
  450loPI   C4B 7200   6.294   1.940   8.451  0.0276 -0.1599 -0.0973
  451loPI    C1 7201  16.942   3.516  10.546 -0.2005 -0.0703 -0.1651
  451loPI    C2 7202  16.609   3.680  10.695 -0.0867  0.0664 -0.0578
  451loPI    C3 7203  16.961   3.743  10.875  0.0501  0.2120 -0.3682
  451loPI   PO4 7204  16.875   3.526  10.250  0.1196 -0.1312 -0.2931
  451loPI   GL1 7205  16.595   3.515   9.927  0.0344 -0.1976 -0.1250
  451loPI   GL2 7206  16.458   3.346   9.682  0.1394  0.1517 -0.4945
  451loPI   C1A 7207  16.629   3.948   9.753  0.2348  0.2116  0.1580
  451loPI   C2A 7208  16.550   4.181   9.451 -0.1286  0.1629 -0.0996
  451loPI   C3A 7209  16.437   4.142   9.006  0.2971 -0.1630  0.1015
  451loPI   C4A 7210  16.510   3.986   8.665 -0.1367 -0.1407 -0.1196
  451loPI   C5A 7211  16.647   4.109   8.246  0.1679 -0.0823 -0.0256
  451loPI   C6A 7212  16.567   3.993   7.781 -0.0442 -0.3349  0.2189
  451loPI   C1B 7213  16.336   3.503   9.306  0.1221 -0.0202 -0.1323
  451loPI   C2B 7214  16.293   3.425   8.896  0.1826  0.1391  0.0070
  451loPI   C3B 7215  16.359   3.445   8.489 -0.1059 -0.0668 -0.2755
  451loPI   C4B 7216  16.387   3.716   8.131  0.0086  0.1849  0.2293
  452loPI    C1 7217   8.585   7.729  10.956 -0.2183  0.1672 -0.0210
  452loPI    C2 7218   8.327   7.760  11.260 -0.0127  0.1945  0.1525
  452loPI    C3 7219   8.621   8.028  11.220  0.2612 -0.0911  0.2170
  452loPI   PO4 7220   8.415   7.704  10.724  0.2553  0.1079  0.0309
  452loPI   GL1 7221   8.397   7.601  10.302 -0.1581 -0.0137  0.2843
  452loPI   GL2 7222   8.405   7.259  10.224 -0.1669 -0.3251  0.0882
  452loPI   C1A 7223   8.199   7.814  10.044 -0.3110  0.1851 -0.0951
  452loPI   C2A 7224   8.323   7.936   9.714 -0.1110  0.0217  0.0634
  452loPI   C3A 7225   8.334   8.087   9.295  0.1699  0.0671 -0.3392
  452loPI   C4A 7226   8.301   8.020   8.892  0.0252 -0.3657 -0.0258
  452loPI   C5A 7227   7.979   7.962   8.639 -0.0230  0.2422 -0.2123
  452loPI   C6A 7228   7.618   7.830   8.330  0.1991  0.0900  0.1934
  452loPI   C1B 7229   8.359   7.415   9.747  0.1186  0.0417  0.0702
  452loPI   C2B 7230   8.486   7.548   9.298 -0.0499  0.1838 -0.2946
  452loPI   C3B 7231   8.573   7.563   8.839 -0.1289  0.1427 -0.2677
  452loPI   C4B 7232   8.369   7.646   8.499 -0.1102  0.3196 -0.3594
  453loPI    C1 7233   1.652   5.012  10.853  0.0523  0.0643 -0.0871
  453loPI    C2 7234   1.856   5.078  11.190  0.1567 -0.0604 -0.1249
  453loPI    C3 7235   1.494   4.909  11.206 -0.1019  0.4822 -0.0294
  453loPI   PO4 7236   1.856   4.878  10.699 -0.2832 -0.0057 -0.0967
  453loPI   GL1 7237   1.702   4.719  10.326  0.1041  0.2523  0.1107
  453loPI   GL2 7238   1.946   4.521  10.150  0.0086  0.4296  0.0870
  453loPI   C1A 7239   1.461   4.438  10.166  0.0025  0.0388  0.1356
  453loPI   C2A 7240   1.483   4.169   9.783 -0.1800  0.2341  0.1396
  453loPI   C3A 7241   1.507   4.130   9.357  0.3321 -0.2933  0.2285
  453loPI   C4A 7242   1.401   4.018   8.924  0.1008 -0.2449 -0.1834
  453loPI   C5A 7243   1.513   4.110   8.562 -0.2650 -0.1914 -0.3325
  453loPI   C6A 7244   1.696   4.127   8.200 -0.0491 -0.0028 -0.1347
  453loPI   C1B 7245   1.690   4.671   9.711  0.1849 -0.0147 -0.0652
  453loPI   C2B 7246   1.735   4.678   9.333  0.0125 -0.0745  0.0476
  453loPI   C3B 7247   1.771   4.857   8.961  0.4005 -0.0266 -0.0633
  453loPI   C4B 7248   1.710   4.973   8.568  0.2168 -0.1821 -0.0407
  454loPI    C1 7249  13.426  15.443  10.197 -0.1414  0.0295 -0.2022
  454loPI    C2 7250  13.293  15.610  10.535  0.2958 -0.0391  0.0108
  454loPI    C3 7251  13.614  15.762  10.350  0.0083  0.0530 -0.4288
  454loPI   PO4 7252  13.315  15.167  10.208 -0.1678  0.2414  0.0531
  454loPI   GL1 7253  13.104  15.000   9.891  0.1157  0.0707  0.1055
  454loPI   GL2 7254  13.064  14.774   9.834  0.1356  0.1158 -0.0672
  454loPI   C1A 7255  12.983  15.201   9.500  0.0010 -0.1576  0.2692
  454loPI   C2A 7256  13.204  15.275   9.063  0.0513  0.2820 -0.3403
  454loPI   C3A 7257  13.146  15.560   8.958  0.1181 -0.0194  0.0143
  454loPI   C4A 7258  13.234  15.571   8.527 -0.0089 -0.2015 -0.0341
  454loPI   C5A 7259  13.085  15.697   8.161 -0.1133 -0.1667  0.0131
  454loPI   C6A 7260  12.837  15.652   7.748 -0.1149  0.2643  0.2126
  454loPI   C1B 7261  13.152  14.744   9.398  0.2103  0.3241 -0.2361
  454loPI   C2B 7262  13.280  14.630   9.009 -0.1426 -0.0607 -0.0809
  454loPI   C3B 7263  13.362  14.325   8.689 -0.3004  0.2723 -0.1938
  454loPI   C4B 7264  13.423  14.088   8.405 -0.0812 -0.1297 -0.1987
  455loPI    C1 7265  15.320   8.579  10.313  0.1237 -0.2085 -0.0049
  455loPI    C2 7266  15.391   8.942  10.467  0.2694 -0.2393  0.0015
  455loPI    C3 7267  15.074   8.732  10.590 -0.0603  0.0618 -0.3109
  455loPI   PO4 7268  15.467   8.628  10.122 -0.0808 -0.0275  0.1492
  455loPI   GL1 7269  15.579   8.909   9.719 -0.2410 -0.2018 -0.0641
  455loPI   GL2 7270  15.462   9.173   9.707 -0.2418 -0.2812  0.0352
  455loPI   C1A 7271  15.855   8.838   9.449  0.0722  0.0785 -0.1759
  455loPI   C2A 7272  15.915   8.736   9.019  0.0302  0.1890 -0.2427
  455loPI   C3A 7273  15.955   8.865   8.546 -0.1490  0.2283  0.0567
  455loPI   C4A 7274  16.018   8.609   8.156 -0.1260  0.0092 -0.0132
  455loPI   C5A 7275  16.096   8.149   8.025 -0.0189 -0.3057  0.0226
  455loPI   C6A 7276  15.873   7.823   7.768 -0.0621  0.0570  0.1962
  455loPI   C1B 7277  15.465   9.146   9.237 -0.0016 -0.0265  0.2524
  455loPI   C2B 7278  15.654   9.138   8.866  0.2577 -0.0986 -0.1502
  455loPI   C3B 7279  15.612   9.212   8.520 -0.0931 -0.0890  0.1498
  455loPI   C4B 7280  15.484   9.520   8.279 -0.1197  0.1477 -0.1392
  456loPI    C1 7281  17.504   9.894  10.436 -0.2760  0.3460  0.1387
  456loPI    C2 7282  17.757  10.183  10.325  0.0641 -0.0056 -0.0267
  456loPI    C3 7283  17.822   9.980  10.663  0.0158 -0.1116 -0.0806
  456loPI   PO4 7284  17.432   9.699  10.229  0.1652 -0.0724 -0.0680
  456loPI   GL1 7285  17.506   9.824   9.797  0.2876 -0.1175  0.1718
  456loPI   GL2 7286  17.767   9.954   9.889 -0.1037 -0.2276 -0.1282
  456loPI   C1A 7287  17.380   9.970   9.395  0.0534 -0.3746  0.0374
  456loPI   C2A 7288  17.259   9.872   9.007 -0.0341 -0.2878  0.4343
  456loPI   C3A 7289  17.188   9.924   8.582 -0.1502 -0.0560 -0.3573
  456loPI   C4A 7290  17.130   9.926   8.186 -0.0729 -0.0130 -0.1860
  456loPI   C5A 7291  16.950   9.509   7.995  0.1253  0.3153  0.1074
  456loPI   C6A 7292  16.715   9.461   7.598 -0.1846 -0.1707  0.0481
  456loPI   C1B 7293  17.791   9.765   9.415 -0.2702 -0.1068  0.0352
  456loPI   C2B 7294  17.711   9.664   8.902  0.1157  0.1616 -0.1698
  456loPI   C3B 7295  17.844   9.603   8.570 -0.0014  0.2073  0.1073
  456loPI   C4B 7296  17.674   9.520   8.193  0.0248  0.0241 -0.2630
  457loPI    C1 7297   2.527   7.344  10.336 -0.1654  0.0000 -0.2166
  457loPI    C2 7298   2.820   7.614  10.301 -0.1944  0.0346 -0.1936
  457loPI    C3 7299   2.720   7.473  10.662 -0.2699  0.0939 -0.1913
  457loPI   PO4 7300   2.650   7.144  10.123 -0.0364 -0.2951  0.1039
  457loPI   GL1 7301   2.501   6.890   9.917 -0.1649 -0.0961 -0.0537
  457loPI   GL2 7302   2.375   7.247   9.772  0.0856 -0.0697  0.2014
  457loPI   C1A 7303   2.488   6.792   9.427 -0.0849 -0.2102  0.0005
  457loPI   C2A 7304   2.482   6.727   8.916 -0.1357 -0.2615 -0.1753
  457loPI   C3A 7305   2.496   6.643   8.550  0.4316 -0.1785 -0.3721
  457loPI   C4A 7306   2.701   6.920   8.227 -0.0419  0.2675 -0.1372
  457loPI   C5A 7307   2.805   7.149   7.858  0.0831 -0.0214 -0.1192
  457loPI   C6A 7308   2.786   7.338   7.425  0.0607  0.1437 -0.0535
  457loPI   C1B 7309   2.488   7.293   9.288 -0.2906 -0.0224 -0.3289
  457loPI   C2B 7310   2.417   7.275   8.946 -0.0133 -0.0860 -0.2745
  457loPI   C3B 7311   2.457   7.149   8.606 -0.0740  0.1228 -0.3514
  457loPI   C4B 7312   2.313   7.302   8.177 -0.0035  0.1266  0.0618
  458loPI    C1 7313  12.071   5.560  10.872  0.0665  0.0090  0.0134
  458loPI    C2 7314  12.006   5.166  10.847  0.0188  0.0264 -0.1499
  458loPI    C3 7315  11.930   5.360  11.189 -0.0753 -0.0845 -0.1071
  458loPI   PO4 7316  12.206   5.589  10.605 -0.0598 -0.2858  0.1454
  458loPI   GL1 7317  12.188   5.786  10.156 -0.2681 -0.2170 -0.0395
  458loPI   GL2 7318  12.124   5.533   9.991 -0.1567  0.1016  0.4644
  458loPI   C1A 7319  12.344   6.069   9.800  0.1938 -0.0172  0.3083
  458loPI   C2A 7320  12.346   5.998   9.301 -0.1350  0.1560 -0.0481
  458loPI   C3A 7321  12.390   6.390   8.873  0.1355 -0.3802 -0.0115
  458loPI   C4A 7322  12.542   6.811   8.798 -0.0248 -0.0401 -0.0354
  458loPI   C5A 7323  12.837   6.812   8.396  0.0219 -0.1308  0.2582
  458loPI   C6A 7324  13.089   6.834   8.057  0.0946  0.1061 -0.1357
  458loPI   C1B 7325  12.240   5.589   9.572  0.1716 -0.0514 -0.1017
  458loPI   C2B 7326  12.298   5.474   9.167 -0.1058  0.0278  0.0055
  458loPI   C3B 7327  12.138   5.339   8.766 -0.1245 -0.0536 -0.3940
  458loPI   C4B 7328  12.250   5.423   8.304  0.1416 -0.0144  0.1709
  459loPI    C1 7329  14.898  17.917  10.595  0.0086 -0.1309 -0.2530
  459loPI    C2 7330  15.254  18.044  10.727 -0.1114  0.0013 -0.0509
  459loPI    C3 7331  15.102  17.699  10.861 -0.0356 -0.0828 -0.1792
  459loPI   PO4 7332  14.971  17.907  10.260 -0.1296 -0.1000 -0.0744
  459loPI   GL1 7333  14.787  17.731   9.864 -0.2549  0.0667  0.0274
  459loPI   GL2 7334  14.958  18.131   9.819  0.1377 -0.1624 -0.1796
  459loPI   C1A 7335  14.766  17.709   9.403 -0.1366  0.1461  0.4511
  459loPI   C2A 7336  14.707  17.782   8.974 -0.0727 -0.3113  0.0256
  459loPI   C3A 7337  14.768  17.847   8.530  0.5219 -0.3257 -0.0832
  459loPI   C4A 7338  14.855  18.025   8.176 -0.0572 -0.0039  0.3622
  459loPI   C5A 7339  14.856  18.229   7.721  0.1182  0.0073  0.3151
  459loPI   C6A 7340  14.751  18.145   7.317 -0.1087 -0.0957 -0.3061
  459loPI   C1B 7341  14.973  18.189   9.333  0.2397  0.1463  0.1312
  459loPI   C2B 7342  14.826  18.370   8.932  0.2709  0.0112 -0.0902
  459loPI   C3B 7343  14.781  18.449   8.490  0.0279 -0.1606  0.1349
  459loPI   C4B 7344  15.185  18.427   8.140 -0.2379  0.0964  0.1632
  460loPI    C1 7345  14.821   8.587  10.101  0.2427 -0.1295 -0.1210
  460loPI    C2 7346  15.094   8.682   9.825  0.0845  0.2853 -0.1418
  460loPI    C3 7347  15.004   8.942  10.116  0.1286 -0.0809  0.2085
  460loPI   PO4 7348  14.863   8.370  10.184 -0.0176 -0.0710 -0.0481
  460loPI   GL1 7349  14.844   8.013   9.853  0.0374 -0.2103 -0.0206
  460loPI   GL2 7350  14.987   7.742   9.693 -0.0773  0.0605 -0.1365
  460loPI   C1A 7351  14.651   8.030   9.403 -0.2105  0.1923  0.2977
  460loPI   C2A 7352  14.487   8.191   8.991 -0.1845 -0.0543 -0.1449
  460loPI   C3A 7353  14.541   8.227   8.598  0.0849  0.0405  0.0041
  460loPI   C4A 7354  14.639   8.509   8.168 -0.0062  0.0903  0.1394
  460loPI   C5A 7355  15.100   8.742   8.068 -0.0282 -0.1832 -0.0508
  460loPI   C6A 7356  15.338   9.038   8.115  0.1828 -0.2088  0.6183
  460loPI   C1B 7357  14.946   7.631   9.273  0.1654  0.3289 -0.1503
  460loPI   C2B 7358  14.828   7.373   8.833 -0.0843 -0.1996 -0.2555
  460loPI   C3B 7359  14.836   7.374   8.414  0.2079  0.1988 -0.0486
  460loPI   C4B 7360  14.651   7.272   7.956 -0.0401 -0.1057 -0.1167
  461loPI    C1 7361   2.201   7.013  10.454  0.3038  0.0678  0.0977
  461loPI    C2 7362   2.482   6.728  10.431  0.1182 -0.1011 -0.1321
  461loPI    C3 7363   2.171   6.683  10.679  0.0850 -0.1021 -0.1738
  461loPI   PO4 7364   2.146   7.081  10.170 -0.1296  0.0037 -0.1178
  461loPI   GL1 7365   1.961   7.005   9.915 -0.3741  0.0366 -0.0156
  461loPI   GL2 7366   1.658   7.116   9.796 -0.2698  0.2494  0.0632
  461loPI   C1A 7367   1.986   6.861   9.538  0.0529 -0.0294 -0.3151
  461loPI   C2A 7368   2.075   6.936   9.102  0.3194 -0.1455  0.0177
  461loPI   C3A 7369   2.019   6.923   8.753  0.1633 -0.2713  0.0737
  461loPI   C4A 7370   2.082   6.845   8.347 -0.0774  0.1986  0.1100
  461loPI   C5A 7371   2.163   6.667   7.981 -0.3020 -0.0350  0.0681
  461loPI   C6A 7372   2.091   6.377   7.801  0.1823  0.1837 -0.0255
  461loPI   C1B 7373   1.615   7.086   9.311  0.1999  0.0521 -0.3377
  461loPI   C2B 7374   1.573   7.145   8.853 -0.1306  0.1433 -0.0935
  461loPI   C3B 7375   1.434   7.219   8.392 -0.2688  0.0801  0.1062
  461loPI   C4B 7376   1.181   7.150   8.018 -0.1944 -0.0309  0.2648
  462loPI    C1 7377  12.644   0.617  10.124 -0.1377  0.0751  0.0221
  462loPI    C2 7378  12.645   0.879  10.427  0.3305  0.1351 -0.0231
  462loPI    C3 7379  12.630   0.486  10.502  0.0480  0.1594  0.0598
  462loPI   PO4 7380  12.853   0.768   9.938 -0.0933  0.0494  0.1687
  462loPI   GL1 7381  12.923   0.895   9.538 -0.0122 -0.3417 -0.0499
  462loPI   GL2 7382  12.529   0.807   9.582  0.0105 -0.1702  0.0853
  462loPI   C1A 7383  12.764   0.669   9.164 -0.1231 -0.3780 -0.1046
  462loPI   C2A 7384  12.864   0.553   8.822 -0.0454 -0.2378 -0.0124
  462loPI   C3A 7385  12.658   0.524   8.531 -0.3870  0.2333 -0.2297
  462loPI   C4A 7386  12.574   0.795   8.249 -0.0898  0.0746 -0.0189
  462loPI   C5A 7387  12.578   1.033   7.875  0.1051 -0.1919  0.0140
  462loPI   C6A 7388  12.470   0.847   7.508  0.0832  0.1851  0.0264
  462loPI   C1B 7389  12.224   1.078   9.286  0.0724 -0.0337 -0.3123
  462loPI   C2B 7390  12.142   1.173   8.750 -0.1591 -0.2248  0.3643
  462loPI   C3B 7391  11.741   1.177   8.530 -0.3214 -0.1147 -0.0793
  462loPI   C4B 7392  11.643   1.150   8.176 -0.0206 -0.0755  0.2787
  463loPI    C1 7393  15.997   0.344  10.463  0.0471  0.0195 -0.0469
  463loPI    C2 7394  16.229   0.133  10.711  0.0735  0.1695  0.0574
  463loPI    C3 7395  15.917   0.339  10.855 -0.0546  0.0642 -0.0666
  463loPI   PO4 7396  15.964   0.241  10.225 -0.2389 -0.0804 -0.4772
  463loPI   GL1 7397  16.025   0.461   9.873  0.1823  0.1450  0.0669
  463loPI   GL2 7398  16.288   0.718   9.665 -0.0514 -0.1031  0.1521
  463loPI   C1A 7399  16.027   0.220   9.554 -0.0366 -0.0291 -0.0939
  463loPI   C2A 7400  15.965  -0.068   9.189  0.2750 -0.3121 -0.2145
  463loPI   C3A 7401  15.837  -0.091   8.840  0.1451 -0.2042  0.1942
  463loPI   C4A 7402  15.723  -0.056   8.424 -0.0076  0.2057 -0.0654
  463loPI   C5A 7403  15.668  -0.154   8.039 -0.0710  0.2992  0.0439
  463loPI   C6A 7404  15.835  -0.200   7.663 -0.1858 -0.2738 -0.1002
  463loPI   C1B 7405  16.271   0.618   9.246 -0.2942 -0.0415 -0.0355
  463loPI   C2B 7406  16.462   0.696   8.871  0.0411  0.0040  0.1903
  463loPI   C3B 7407  16.460   0.872   8.446 -0.2281  0.1899  0.2210
  463loPI   C4B 7408  16.666   0.885   8.070 -0.1263 -0.2295 -0.0176
  464loPI    C1 7409  10.552   3.625  10.755 -0.1390  0.0679 -0.0943
  464loPI    C2 7410  10.386   3.263  10.788 -0.0598  0.0292 -0.1194
  464loPI    C3 7411  10.325   3.537  11.072 -0.0922 -0.0151 -0.0834
  464loPI   PO4 7412  10.419   3.715  10.552  0.1980 -0.0158 -0.0932
  464loPI   GL1 7413  10.505   3.909  10.206 -0.2110 -0.1666  0.0111
  464loPI   GL2 7414  10.537   3.533   9.997 -0.1382  0.0268  0.1891
  464loPI   C1A 7415  10.472   4.154   9.835 -0.0610  0.1157 -0.1995
  464loPI   C2A 7416  10.401   4.114   9.385 -0.1177 -0.0290 -0.0390
  464loPI   C3A 7417  10.208   4.300   9.044 -0.0008 -0.1327  0.0924
  464loPI   C4A 7418  10.141   4.313   8.665  0.0882 -0.1152  0.0754
  464loPI   C5A 7419  10.261   4.419   8.273 -0.0181  0.2131  0.0941
  464loPI   C6A 7420  10.226   4.693   7.911 -0.3120 -0.2745 -0.0764
  464loPI   C1B 7421  10.725   3.689   9.556  0.0706  0.1272 -0.0515
  464loPI   C2B 7422  10.923   3.359   9.287  0.2450 -0.4421 -0.0194
  464loPI   C3B 7423  10.781   3.230   8.836  0.0332 -0.1827 -0.1057
  464loPI   C4B 7424  10.646   3.465   8.466  0.0539 -0.4117 -0.1737
  465loPI    C1 7425  15.195   7.168  10.414  0.0570  0.0908 -0.4263
  465loPI    C2 7426  14.884   7.395  10.524 -0.0076 -0.1410 -0.1154
  465loPI    C3 7427  14.872   6.999  10.580  0.3451 -0.1522 -0.0982
  465loPI   PO4 7428  15.269   7.394  10.148  0.0827  0.0515 -0.2894
  465loPI   GL1 7429  15.606   7.418   9.838  0.0024  0.0059  0.1740
  465loPI   GL2 7430  15.465   7.152   9.652  0.3655  0.1192  0.0847
  465loPI   C1A 7431  15.863   7.493   9.501  0.2550 -0.0908  0.1755
  465loPI   C2A 7432  15.824   7.423   9.086 -0.1455 -0.2187  0.0052
  465loPI   C3A 7433  15.738   7.238   8.710  0.1348 -0.2839  0.2188
  465loPI   C4A 7434  15.328   7.268   8.487  0.1235  0.0690  0.2569
  465loPI   C5A 7435  15.253   7.321   8.052 -0.0882  0.1728 -0.2225
  465loPI   C6A 7436  15.033   7.614   7.798  0.2671  0.1408 -0.0138
  465loPI   C1B 7437  15.432   7.106   9.245 -0.3131 -0.0258 -0.2192
  465loPI   C2B 7438  15.528   6.818   8.854 -0.2424  0.1697  0.1096
  465loPI   C3B 7439  15.577   6.727   8.439  0.0508 -0.0110  0.0435
  465loPI   C4B 7440  15.855   6.516   8.175  0.1741  0.3149 -0.0258
  466loPI    C1 7441  17.477   3.537  10.772  0.2817  0.1783 -0.1638
  466loPI    C2 7442  17.795   3.493  11.010 -0.0849 -0.1130  0.2914
  466loPI    C3 7443  17.672   3.189  10.782  0.0389  0.0437  0.0106
  466loPI   PO4 7444  17.458   3.787  10.639 -0.0222  0.2811 -0.1652
  466loPI   GL1 7445  17.690   3.986  10.304 -0.1242  0.0470 -0.1956
  466loPI   GL2 7446  17.494   3.829  10.062  0.2682 -0.0025 -0.1593
  466loPI   C1A 7447  17.771   4.245   9.953 -0.0877 -0.0793  0.0055
  466loPI   C2A 7448  17.744   4.406   9.509  0.0908  0.2914 -0.0908
  466loPI   C3A 7449  17.984   4.501   9.145 -0.0011 -0.1514  0.3096
  466loPI   C4A 7450  17.991   4.436   8.659 -0.2734 -0.1353  0.0715
  466loPI   C5A 7451  18.222   4.333   8.236  0.1488  0.2698 -0.0873
  466loPI   C6A 7452  18.365   4.324   7.689 -0.2418 -0.1533  0.0783
  466loPI   C1B 7453  17.448   3.939   9.678 -0.0513 -0.1285  0.0979
  466loPI   C2B 7454  17.462   4.100   9.257  0.0114  0.2768 -0.0069
  466loPI   C3B 7455  17.528   4.228   8.807  0.0356  0.0936 -0.0290
  466loPI   C4B 7456  17.596   4.347   8.389 -0.1063 -0.1430 -0.2274
  467loPI    C1 7457  15.128   0.607  10.260  0.0910 -0.1633 -0.0189
  467loPI    C2 7458  14.850   0.872  10.148  0.1766 -0.1712 -0.2556
  467loPI    C3 7459  14.989   0.874  10.523  0.2452  0.1810 -0.2792
  467loPI   PO4 7460  15.091   0.449  10.162  0.0578  0.1458  0.1886
  467loPI   GL1 7461  14.976   0.264   9.723 -0.1298  0.2030 -0.3417
  467loPI   GL2 7462  14.711   0.131   9.554 -0.2020  0.1134 -0.0633
  467loPI   C1A 7463  15.204   0.271   9.393 -0.0600 -0.1232  0.2981
  467loPI   C2A 7464  15.291   0.045   9.008  0.0336  0.0413  0.0331
  467loPI   C3A 7465  15.289   0.186   8.586 -0.2299  0.3513 -0.2415
  467loPI   C4A 7466  15.062   0.468   8.387  0.0517 -0.2599  0.1539
  467loPI   C5A 7467  14.865   0.481   8.105 -0.2384 -0.1002  0.0407
  467loPI   C6A 7468  14.608   0.281   7.772 -0.0539 -0.2594 -0.0711
  467loPI   C1B 7469  14.465   0.231   9.175 -0.2955  0.1368  0.0287
  467loPI   C2B 7470  14.626   0.450   8.773 -0.1577  0.1385  0.0619
  467loPI   C3B 7471  14.580   0.756   8.445 -0.1153  0.0899  0.3617
  467loPI   C4B 7472  14.658   1.123   8.150 -0.1422  0.3076 -0.0079
  468loPI    C1 7473   4.017   0.653  10.459  0.2057 -0.0338 -0.1870
  468loPI    C2 7474   4.071   1.016  10.300 -0.1576  0.1772  0.1536
  468loPI    C3 7475   3.774   0.953  10.560 -0.1591 -0.3916  0.0284
  468loPI   PO4 7476   4.022   0.524  10.213 -0.1678  0.0008 -0.1583
  468loPI   GL1 7477   4.218   0.478   9.852  0.1233 -0.0100 -0.1167
  468loPI   GL2 7478   4.162   0.842   9.801 -0.0259  0.1737  0.1765
  468loPI   C1A 7479   4.187   0.578   9.393 -0.0975 -0.0767  0.0436
  468loPI   C2A 7480   4.359   0.531   8.951 -0.0991 -0.2485 -0.1281
  468loPI   C3A 7481   4.251   0.518   8.469  0.0294 -0.2268  0.0438
  468loPI   C4A 7482   4.349   0.515   8.031 -0.2982 -0.0210  0.0169
  468loPI   C5A 7483   4.736   0.262   7.885  0.0887  0.0867  0.1584
  468loPI   C6A 7484   5.111   0.109   7.789  0.0595  0.0280 -0.0825
  468loPI   C1B 7485   4.047   1.177   9.642  0.0575 -0.0036  0.0712
  468loPI   C2B 7486   3.922   1.423   9.341  0.0856 -0.1013 -0.1520
  468loPI   C3B 7487   3.812   1.710   9.048  0.3421 -0.1066 -0.0208
  468loPI   C4B 7488   3.808   1.770   8.582 -0.0940  0.1996  0.1567
  469loPI    C1 7489   3.892  18.026  10.344 -0.0854  0.3681  0.0282
  469loPI    C2 7490   3.632  17.900  10.067  0.0572  0.1061  0.0110
  469loPI    C3 7491   3.509  18.142  10.361 -0.2555 -0.1779  0.1214
  469loPI   PO4 7492   4.098  18.061  10.222 -0.1138 -0.0323 -0.0073
  469loPI   GL1 7493   4.140  17.836   9.840  0.2153  0.2122  0.1451
  469loPI   GL2 7494   4.047  17.642   9.791 -0.1525 -0.3687  0.1484
  469loPI   C1A 7495   3.754  18.083   9.627  0.2913  0.1643 -0.3541
  469loPI   C2A 7496   3.494  18.233   9.231 -0.1059  0.2279  0.1267
  469loPI   C3A 7497   3.551  18.405   8.830  0.5589 -0.1072  0.0061
  469loPI   C4A 7498   3.628  18.146   8.354  0.0856 -0.0472  0.0981
  469loPI   C5A 7499   3.424  17.864   8.013  0.2935 -0.0208 -0.1496
  469loPI   C6A 7500   3.364  17.538   7.629 -0.0841 -0.0499  0.3367
  469loPI   C1B 7501   3.957  17.741   9.303 -0.1510 -0.1861 -0.0080
  469loPI   C2B 7502   3.969  18.055   8.924  0.1072 -0.0546  0.2234
  469loPI   C3B 7503   4.104  18.046   8.505 -0.1156  0.1288  0.2554
  469loPI   C4B 7504   4.273  17.982   8.118  0.0489 -0.2383  0.0364
  470loPI    C1 7505   4.797   1.090  10.560  0.0047 -0.0427  0.0417
  470loPI    C2 7506   4.564   0.996  10.872 -0.2002 -0.0729 -0.1183
  470loPI    C3 7507   4.929   1.148  10.933 -0.0682 -0.4805  0.1411
  470loPI   PO4 7508   4.587   1.173  10.418 -0.0984  0.0488  0.2528
  470loPI   GL1 7509   4.453   1.162   9.975  0.1085 -0.2052  0.0844
  470loPI   GL2 7510   4.594   1.113   9.715 -0.0347 -0.1054  0.2178
  470loPI   C1A 7511   4.332   1.501   9.816  0.1347  0.0814 -0.0397
  470loPI   C2A 7512   4.442   1.598   9.475  0.2722 -0.1610  0.2370
  470loPI   C3A 7513   4.372   1.555   8.983  0.0613  0.2571 -0.1907
  470loPI   C4A 7514   4.341   1.374   8.603  0.2518  0.1205 -0.0534
  470loPI   C5A 7515   4.336   1.711   8.390 -0.0151  0.1734  0.1868
  470loPI   C6A 7516   4.168   1.602   7.935 -0.2087 -0.0497 -0.0019
  470loPI   C1B 7517   4.419   1.051   9.271 -0.1895  0.1125  0.0451
  470loPI   C2B 7518   4.155   1.047   8.944 -0.3613 -0.0996 -0.0641
  470loPI   C3B 7519   3.852   1.259   8.870  0.0572 -0.3071  0.0890
  470loPI   C4B 7520   3.430   1.458   8.702 -0.0574  0.1695  0.2570
  471loPI    C1 7521  14.437   5.929  10.465  0.0104  0.1641 -0.0008
  471loPI    C2 7522  14.808   5.955  10.319  0.1871 -0.1730  0.3703
  471loPI    C3 7523  14.748   5.820  10.691 -0.3038 -0.0314  0.3497
  471loPI   PO4 7524  14.356   6.149  10.378 -0.0799 -0.0457  0.1028
  471loPI   GL1 7525  14.592   6.399  10.071 -0.0693 -0.0356 -0.0449
  471loPI   GL2 7526  14.968   6.344  10.117  0.0475  0.1186 -0.0813
  471loPI   C1A 7527  14.518   6.226   9.665  0.5051 -0.1005 -0.2523
  471loPI   C2A 7528  14.619   5.974   9.389  0.0598  0.0989 -0.3358
  471loPI   C3A 7529  14.635   5.983   8.918 -0.0520  0.0912  0.4048
  471loPI   C4A 7530  14.824   6.140   8.468 -0.2557 -0.1656 -0.2790
  471loPI   C5A 7531  14.825   6.515   8.101  0.2411 -0.1856 -0.0430
  471loPI   C6A 7532  14.862   6.856   8.113  0.1898 -0.0815 -0.1924
  471loPI   C1B 7533  15.018   6.234   9.641 -0.2311 -0.1958  0.1273
  471loPI   C2B 7534  15.067   6.074   9.242 -0.0430  0.0441  0.0154
  471loPI   C3B 7535  15.069   5.874   8.813 -0.3464 -0.1338  0.2349
  471loPI   C4B 7536  15.190   5.780   8.404 -0.0423 -0.1307 -0.1224
  472loPI    C1 7537  16.450   5.494  11.124  0.1231 -0.0345 -0.0061
  472loPI    C2 7538  16.842   5.520  11.196  0.0990 -0.3385  0.2552
  472loPI    C3 7539  16.580   5.591  11.490 -0.0398 -0.2529  0.1119
  472loPI   PO4 7540  16.442   5.480  10.861 -0.1302 -0.1884 -0.2870
  472loPI   GL1 7541  16.542   5.687  10.372 -0.0220  0.0234  0.0735
  472loPI   GL2 7542  16.850   5.600  10.218 -0.1094 -0.1181  0.0429
  472loPI   C1A 7543  16.585   6.007  10.003  0.3788  0.0030  0.0517
  472loPI   C2A 7544  16.435   6.066   9.612 -0.1772 -0.1149  0.0478
  472loPI   C3A 7545  16.327   6.286   9.247  0.1769 -0.0021 -0.1088
  472loPI   C4A 7546  16.511   6.149   8.968  0.4694  0.2001  0.2116
  472loPI   C5A 7547  16.866   6.378   8.668 -0.1439  0.0623  0.2059
  472loPI   C6A 7548  16.854   6.677   8.384 -0.0095  0.1234  0.2926
  472loPI   C1B 7549  16.821   5.596   9.770 -0.3191 -0.1613  0.2060
  472loPI   C2B 7550  16.992   5.537   9.419  0.0700  0.0228  0.3466
  472loPI   C3B 7551  17.035   5.503   9.112  0.1308 -0.0314  0.2635
  472loPI   C4B 7552  17.009   5.422   8.768 -0.0674  0.0129 -0.0269
  473loPI    C1 7553   4.579   9.120  10.388  0.1457  0.2308  0.3711
  473loPI    C2 7554   4.616   8.783  10.176 -0.3145  0.3178  0.1386
  473loPI    C3 7555   4.796   8.817  10.531 -0.1333 -0.1098  0.0936
  473loPI   PO4 7556   4.270   9.171  10.303  0.0327  0.1079 -0.0803
  473loPI   GL1 7557   4.030   9.251   9.890 -0.2390  0.0158  0.2021
  473loPI   GL2 7558   3.820   9.614   9.988 -0.0615  0.1772  0.2540
  473loPI   C1A 7559   4.237   9.258   9.540 -0.3552  0.2185 -0.0787
  473loPI   C2A 7560   4.218   9.184   9.124 -0.2591  0.1032  0.1260
  473loPI   C3A 7561   4.227   9.080   8.696  0.2447 -0.3124 -0.0008
  473loPI   C4A 7562   4.209   9.334   8.334 -0.1793 -0.2743 -0.0994
  473loPI   C5A 7563   4.396   9.631   8.130 -0.0455 -0.0910 -0.0415
  473loPI   C6A 7564   4.651   9.945   7.940  0.0954 -0.2420 -0.2071
  473loPI   C1B 7565   3.986   9.655   9.606 -0.0116  0.0204 -0.1818
  473loPI   C2B 7566   4.025   9.677   9.158 -0.0942  0.0661  0.0651
  473loPI   C3B 7567   4.109   9.737   8.725  0.0860 -0.2758  0.3362
  473loPI   C4B 7568   4.480   9.933   8.838  0.0967  0.2170 -0.0319
  474POPI    C1 7569  10.527   1.914  10.061 -0.0042 -0.0783  0.0185
  474POPI    C2 7570  10.463   1.927  10.455  0.0178 -0.4549  0.0381
  474POPI    C3 7571  10.837   1.914  10.314  0.0167 -0.1014 -0.0071
  474POPI   PO4 7572  10.393   2.101   9.899  0.1003 -0.1214  0.2664
  474POPI   GL1 7573  10.230   2.324   9.550  0.2495 -0.2486 -0.1365
  474POPI   GL2 7574  10.387   2.682   9.590  0.1323 -0.0435 -0.0983
  474POPI   C1A 7575  10.327   2.377   9.194 -0.0556  0.2109  0.4032
  474POPI   D2A 7576  10.223   2.502   8.673  0.0284  0.2022 -0.1650
  474POPI   C3A 7577  10.129   2.183   8.333  0.1726  0.0165 -0.2862
  474POPI   C4A 7578   9.932   2.210   7.848 -0.0631 -0.0632  0.0352
  474POPI   C1B 7579  10.519   2.844   9.132 -0.0326  0.1604 -0.1943
  474POPI   C2B 7580  10.329   3.061   8.757 -0.0089 -0.0981 -0.0050
  474POPI   C3B 7581  10.336   3.078   8.325  0.3060 -0.1097  0.2665
  474POPI   C4B 7582  10.200   3.514   8.172  0.0611  0.2145  0.1899
  475POPI    C1 7583  13.132  11.900  10.675 -0.0910 -0.1047 -0.1215
  475POPI    C2 7584  13.024  12.118  10.992  0.0775 -0.1369 -0.0411
  475POPI    C3 7585  12.810  11.797  10.888  0.0517 -0.1567  0.0717
  475POPI   PO4 7586  13.181  12.074  10.416 -0.2693 -0.0690  0.0320
  475POPI   GL1 7587  13.225  12.316  10.145 -0.2583 -0.2329  0.4540
  475POPI   GL2 7588  13.465  12.311   9.983  0.0571  0.2756 -0.0232
  475POPI   C1A 7589  12.979  12.478   9.861  0.0782 -0.2144 -0.0584
  475POPI   D2A 7590  12.688  12.677   9.717 -0.1238 -0.0861  0.1059
  475POPI   C3A 7591  12.800  12.664   9.316 -0.1267 -0.1542  0.2006
  475POPI   C4A 7592  13.097  12.596   8.985 -0.1244  0.0766  0.2457
  475POPI   C1B 7593  13.454  11.909   9.752  0.1232 -0.3151 -0.0783
  475POPI   C2B 7594  13.050  11.666   9.532  0.1605  0.0334 -0.1230
  475POPI   C3B 7595  12.891  11.598   9.127 -0.0591  0.0047 -0.0217
  475POPI   C4B 7596  12.498  11.726   8.692 -0.1864  0.1884  0.0440
  476POPI    C1 7597  15.567  10.416  10.687 -0.0597 -0.1333 -0.2917
  476POPI    C2 7598  15.178  10.508  10.665 -0.0223  0.0963 -0.0406
  476POPI    C3 7599  15.291  10.132  10.741 -0.2001  0.0729  0.1152
  476POPI   PO4 7600  15.663  10.625  10.484  0.1572 -0.0064 -0.0815
  476POPI   GL1 7601  15.822  10.583  10.117 -0.4314 -0.0594  0.0072
  476POPI   GL2 7602  16.200  10.546  10.131  0.1183 -0.0282  0.5335
  476POPI   C1A 7603  15.682  10.640   9.652  0.2716 -0.2014 -0.1477
  476POPI   D2A 7604  15.478  10.850   9.363 -0.1795  0.1583  0.0223
  476POPI   C3A 7605  15.510  11.330   9.199 -0.0107  0.1524 -0.0353
  476POPI   C4A 7606  15.344  11.325   8.756  0.2520 -0.0323 -0.2790
  476POPI   C1B 7607  16.225  10.618   9.688 -0.0515 -0.0071  0.1012
  476POPI   C2B 7608  16.063  10.481   9.238 -0.1722 -0.0829 -0.0640
  476POPI   C3B 7609  15.662  10.483   9.052 -0.2374 -0.0769 -0.0463
  476POPI   C4B 7610  15.403  10.707   8.702  0.0424 -0.2273  0.0909
  477POPI    C1 7611  17.115  10.695  10.103 -0.0351 -0.0585 -0.0189
  477POPI    C2 7612  17.258  10.448  10.384  0.0690  0.0756  0.0471
  477POPI    C3 7613  16.912  10.641  10.444 -0.0954 -0.1765 -0.0730
  477POPI   PO4 7614  17.375  10.872  10.031  0.0257 -0.0002 -0.0150
  477POPI   GL1 7615  17.455  11.247   9.693 -0.1982 -0.1175 -0.0119
  477POPI   GL2 7616  17.614  11.546   9.778 -0.0661 -0.0555  0.2952
  477POPI   C1A 7617  17.359  11.163   9.290 -0.2386  0.1537  0.2998
  477POPI   D2A 7618  17.311  11.080   8.902 -0.2330 -0.0163 -0.1095
  477POPI   C3A 7619  17.391  10.938   8.453  0.2057 -0.4141 -0.0958
  477POPI   C4A 7620  17.310  10.868   8.021 -0.2099 -0.0688  0.1437
  477POPI   C1B 7621  17.861  11.403   9.397 -0.1250  0.0776 -0.0773
  477POPI   C2B 7622  17.748  11.270   8.937  0.2529 -0.0652 -0.0697
  477POPI   C3B 7623  17.840  11.104   8.567  0.2015 -0.0352  0.2853
  477POPI   C4B 7624  17.929  10.870   8.214  0.3486 -0.0748 -0.0648
  478POPI    C1 7625   3.298  12.912  10.287 -0.1163  0.3532 -0.0877
  478POPI    C2 7626   3.207  13.076  10.640 -0.1374  0.5038 -0.1624
  478POPI    C3 7627   2.915  12.959  10.393 -0.1233  0.1011  0.0049
  478POPI   PO4 7628   3.579  12.922  10.280  0.0524 -0.1386 -0.3317
  478POPI   GL1 7629   3.779  12.756  10.071  0.1492 -0.1528  0.0063
  478POPI   GL2 7630   3.528  12.587   9.885 -0.0358 -0.3245  0.1771
  478POPI   C1A 7631   3.985  12.767   9.669 -0.2209 -0.1371 -0.0285
  478POPI   D2A 7632   3.955  12.944   9.324 -0.1470 -0.0219 -0.2206
  478POPI   C3A 7633   3.793  12.569   8.976  0.0361  0.3323  0.2475
  478POPI   C4A 7634   3.723  12.213   8.761 -0.0193  0.0005  0.2126
  478POPI   C1B 7635   3.465  12.479   9.388  0.0750 -0.3802 -0.0396
  478POPI   C2B 7636   3.321  12.631   9.015 -0.1363  0.1431 -0.0041
  478POPI   C3B 7637   3.501  12.630   8.588 -0.0795 -0.1187  0.2740
  478POPI   C4B 7638   3.420  12.367   8.196  0.1246  0.0127 -0.1591
  479POPI    C1 7639   2.694  14.954  10.602  0.3177  0.0140  0.1788
  479POPI    C2 7640   2.402  15.044  10.860 -0.0195  0.0218 -0.1955
  479POPI    C3 7641   2.463  14.664  10.752  0.3159 -0.0179  0.1146
  479POPI   PO4 7642   2.632  15.004  10.376 -0.0654  0.0287  0.2166
  479POPI   GL1 7643   2.582  14.851   9.992  0.1435  0.4312 -0.1186
  479POPI   GL2 7644   2.649  14.817   9.749  0.0310  0.2283 -0.0337
  479POPI   C1A 7645   2.176  14.732   9.727 -0.2541 -0.1494  0.0039
  479POPI   D2A 7646   2.262  14.402   9.446  0.3303  0.2168 -0.1423
  479POPI   C3A 7647   2.262  14.377   8.976 -0.0837 -0.2114  0.2347
  479POPI   C4A 7648   2.252  14.423   8.493  0.1412  0.0574 -0.0097
  479POPI   C1B 7649   2.513  14.882   9.272  0.0357  0.4331  0.1257
  479POPI   C2B 7650   2.582  14.855   8.900  0.0433  0.0133  0.1822
  479POPI   C3B 7651   2.493  14.886   8.483  0.2055  0.1586  0.2102
  479POPI   C4B 7652   2.346  14.739   8.111 -0.1062 -0.1292 -0.0464
  480POPI    C1 7653  13.995  15.590  10.860  0.1503  0.0575  0.0228
  480POPI    C2 7654  13.606  15.676  10.893  0.1443  0.0211  0.0482
  480POPI    C3 7655  13.745  15.328  11.031  0.1938  0.0536  0.0804
  480POPI   PO4 7656  14.083  15.650  10.591  0.1157 -0.0725 -0.0737
  480POPI   GL1 7657  14.020  15.450  10.194  0.0217 -0.1719 -0.1870
  480POPI   GL2 7658  14.381  15.499  10.134 -0.1898 -0.0926 -0.1344
  480POPI   C1A 7659  13.754  15.667   9.892 -0.2542 -0.1888  0.2788
  480POPI   D2A 7660  13.838  15.925   9.504 -0.2981  0.1025 -0.0752
  480POPI   C3A 7661  13.839  15.950   9.003  0.3157 -0.2347 -0.1197
  480POPI   C4A 7662  13.817  15.825   8.669  0.0886  0.1028  0.0031
  480POPI   C1B 7663  14.298  15.297   9.752 -0.3449 -0.1014 -0.0537
  480POPI   C2B 7664  14.160  15.140   9.272  0.4797  0.2228  0.0354
  480POPI   C3B 7665  14.499  15.030   8.930  0.0515  0.0263 -0.0403
  480POPI   C4B 7666  14.810  14.918   8.539  0.0392  0.0800 -0.0415
  481POPI    C1 7667  17.728   2.024  10.233  0.3123  0.0381  0.0864
  481POPI    C2 7668  17.366   1.970  10.395  0.1940  0.1576 -0.1338
  481POPI    C3 7669  17.610   2.252  10.539  0.1572  0.1489 -0.0542
  481POPI   PO4 7670  17.663   1.959   9.875  0.2165 -0.4767 -0.2126
  481POPI   GL1 7671  17.365   1.790   9.599 -0.0403 -0.1882  0.3028
  481POPI   GL2 7672  17.368   1.594   9.827 -0.3040 -0.2416 -0.0937
  481POPI   C1A 7673  17.726   1.771   9.246  0.3037 -0.0929 -0.2738
  481POPI   D2A 7674  17.693   1.831   8.820 -0.1300  0.3810 -0.0660
  481POPI   C3A 7675  17.699   2.071   8.497  0.2915 -0.1207  0.1742
  481POPI   C4A 7676  17.804   2.085   8.029 -0.0294  0.0990 -0.2116
  481POPI   C1B 7677  17.426   1.378   9.362 -0.0195 -0.2004  0.0944
  481POPI   C2B 7678  17.609   1.263   9.055  0.0448  0.0343  0.1702
  481POPI   C3B 7679  17.750   1.312   8.709 -0.1953 -0.1477 -0.2823
  481POPI   C4B 7680  17.996   1.645   8.429  0.0749  0.0725 -0.0300
  482POPI    C1 7681   7.529   1.737  10.640  0.0756 -0.1469 -0.2772
  482POPI    C2 7682   7.275   1.992  10.465  0.0627 -0.0323 -0.0944
  482POPI    C3 7683   7.243   1.916  10.857  0.1074 -0.2665 -0.1348
  482POPI   PO4 7684   7.619   1.593  10.399  0.1873 -0.1821  0.2632
  482POPI   GL1 7685   7.298   1.531  10.108  0.1068  0.0789 -0.3089
  482POPI   GL2 7686   7.476   1.296   9.986 -0.1397 -0.0147 -0.0516
  482POPI   C1A 7687   7.441   1.930   9.818  0.0200  0.4253 -0.1422
  482POPI   D2A 7688   7.365   2.110   9.472 -0.2964  0.0011  0.2017
  482POPI   C3A 7689   7.302   2.034   9.056  0.0869  0.0457 -0.0730
  482POPI   C4A 7690   7.237   2.227   8.754 -0.1189  0.3003 -0.2349
  482POPI   C1B 7691   7.335   1.162   9.479  0.2529 -0.2268  0.1926
  482POPI   C2B 7692   7.250   1.113   9.066 -0.0780 -0.1621  0.1951
  482POPI   C3B 7693   7.369   1.265   8.656 -0.3699  0.0390  0.0359
  482POPI   C4B 7694   7.486   1.106   8.283 -0.0471 -0.3484  0.0610
  483POPI    C1 7695   7.428   0.606  10.455  0.0327 -0.0225  0.0415
  483POPI    C2 7696   7.706   0.777  10.224  0.0579  0.0938  0.1563
  483POPI    C3 7697   7.721   0.823  10.621 -0.0442 -0.0186  0.1736
  483POPI   PO4 7698   7.192   0.620  10.381  0.2695  0.0358 -0.1604
  483POPI   GL1 7699   7.074   0.867  10.101  0.1717 -0.0257  0.1308
  483POPI   GL2 7700   6.909   1.000   9.824  0.0073 -0.2429  0.0303
  483POPI   C1A 7701   7.321   0.749   9.781 -0.1054  0.0214 -0.0163
  483POPI   D2A 7702   7.089   0.772   9.430 -0.2312 -0.0408  0.1224
  483POPI   C3A 7703   7.151   0.601   9.035 -0.2434  0.0706 -0.2475
  483POPI   C4A 7704   7.271   0.731   8.660 -0.2616  0.1322 -0.3066
  483POPI   C1B 7705   6.990   1.407   9.787 -0.1064 -0.0724 -0.0142
  483POPI   C2B 7706   6.992   1.773   9.514  0.2618 -0.0160 -0.1124
  483POPI   C3B 7707   6.916   2.201   9.390  0.1757 -0.1265  0.1177
  483POPI   C4B 7708   7.042   2.507   9.198  0.1304  0.1361 -0.0732
  484POPI    C1 7709   5.772   7.942  10.676 -0.0227 -0.1639 -0.0920
  484POPI    C2 7710   5.539   8.231  10.528 -0.0719 -0.1938 -0.0730
  484POPI    C3 7711   5.401   7.991  10.816  0.0440 -0.0973  0.0642
  484POPI   PO4 7712   5.875   7.865  10.437  0.0159  0.0168  0.1000
  484POPI   GL1 7713   6.179   8.009  10.102  0.0279 -0.0799  0.1731
  484POPI   GL2 7714   5.945   8.100   9.933  0.3191  0.0550  0.3280
  484POPI   C1A 7715   6.257   7.879   9.646 -0.1323  0.2007  0.1505
  484POPI   D2A 7716   6.502   7.607   9.237  0.4255 -0.0561  0.2829
  484POPI   C3A 7717   6.341   7.728   8.880  0.1547  0.0776  0.0618
  484POPI   C4A 7718   6.500   7.962   8.476  0.0650  0.1046 -0.2766
  484POPI   C1B 7719   5.855   8.179   9.473 -0.0467 -0.1625 -0.1031
  484POPI   C2B 7720   5.979   8.052   8.993 -0.3176 -0.0077  0.2452
  484POPI   C3B 7721   6.027   8.168   8.491 -0.0119 -0.0357 -0.1797
  484POPI   C4B 7722   5.887   8.017   8.074  0.0539  0.1700  0.0257
  485POPI    C1 7723   4.684  13.443  10.297  0.0755 -0.1622  0.1725
  485POPI    C2 7724   4.419  13.312  10.568 -0.1093  0.0177  0.0817
  485POPI    C3 7725   4.723  13.547  10.682 -0.0060 -0.1618  0.1809
  485POPI   PO4 7726   4.662  13.263  10.159 -0.1269  0.4914  0.2647
  485POPI   GL1 7727   4.810  13.206   9.694  0.0563  0.0246  0.0546
  485POPI   GL2 7728   4.486  13.461   9.730 -0.1506 -0.1425 -0.0431
  485POPI   C1A 7729   4.806  13.180   9.256  0.2112 -0.1243  0.1375
  485POPI   D2A 7730   4.725  13.276   8.903 -0.1005  0.1149 -0.1503
  485POPI   C3A 7731   5.040  13.225   8.738 -0.0286  0.1031 -0.1204
  485POPI   C4A 7732   5.350  13.080   8.417 -0.0120 -0.0451  0.1239
  485POPI   C1B 7733   4.345  13.401   9.293 -0.0662 -0.0629 -0.1648
  485POPI   C2B 7734   4.246  13.352   8.923  0.0707 -0.0670  0.1427
  485POPI   C3B 7735   3.960  12.956   8.722  0.1102 -0.1114  0.2432
  485POPI   C4B 7736   3.930  12.734   8.355 -0.0661 -0.1937  0.1168
  486POPI    C1 7737  13.552   7.127  10.695 -0.0358 -0.0330 -0.0076
  486POPI    C2 7738  13.296   7.007  10.978 -0.0835 -0.1278 -0.0900
  486POPI    C3 7739  13.687   6.935  11.018 -0.0937 -0.1691 -0.0634
  486POPI   PO4 7740  13.518   7.054  10.457 -0.1356 -0.3342  0.2317
  486POPI   GL1 7741  13.527   7.316  10.044  0.1827  0.0199  0.2240
  486POPI   GL2 7742  13.293   7.317  10.056 -0.0000 -0.0566  0.0527
  486POPI   C1A 7743  13.472   7.650   9.810  0.1140 -0.0503  0.1822
  486POPI   D2A 7744  13.551   7.812   9.457  0.2985 -0.1642 -0.1729
  486POPI   C3A 7745  13.386   7.866   8.969 -0.1835  0.2226 -0.1215
  486POPI   C4A 7746  13.504   8.088   8.580  0.0701  0.0724 -0.1859
  486POPI   C1B 7747  13.163   7.331   9.588 -0.0240 -0.1976  0.0221
  486POPI   C2B 7748  13.318   7.361   9.162  0.0644 -0.1241  0.0878
  486POPI   C3B 7749  13.391   7.423   8.707  0.0152 -0.0759 -0.2917
  486POPI   C4B 7750  13.361   7.447   8.277 -0.0768 -0.2343  0.1073
  487POPI    C1 7751  11.300   0.536  10.422  0.0558 -0.3190 -0.0168
  487POPI    C2 7752  11.189   0.868  10.616  0.0802 -0.1776 -0.2412
  487POPI    C3 7753  11.403   0.587  10.805 -0.0504 -0.1257 -0.0131
  487POPI   PO4 7754  11.282   0.597  10.203 -0.0259 -0.0132 -0.1302
  487POPI   GL1 7755  11.514   0.765   9.817 -0.0876  0.1010  0.0648
  487POPI   GL2 7756  11.230   0.935   9.747 -0.2503 -0.1738 -0.1587
  487POPI   C1A 7757  11.698   0.955   9.472  0.0546  0.1329  0.1544
  487POPI   D2A 7758  11.699   1.177   9.054 -0.0849 -0.4288 -0.0422
  487POPI   C3A 7759  11.337   1.076   8.868  0.0320 -0.0460 -0.1838
  487POPI   C4A 7760  11.263   0.768   8.474  0.2754  0.1652 -0.0727
  487POPI   C1B 7761  11.198   0.928   9.304  0.4109  0.0494  0.0725
  487POPI   C2B 7762  11.125   0.643   8.958 -0.0617  0.0994 -0.1970
  487POPI   C3B 7763  10.890   0.315   8.910  0.4181  0.0028  0.1197
  487POPI   C4B 7764  10.670   0.161   9.194 -0.0158 -0.2558 -0.0826
  488POPI    C1 7765   4.036   8.375  10.635  0.0285  0.1856  0.0759
  488POPI    C2 7766   4.211   8.446  10.988  0.0440  0.2847  0.0488
  488POPI    C3 7767   4.259   8.092  10.808 -0.0060  0.2157  0.1702
  488POPI   PO4 7768   3.802   8.361  10.477 -0.0289 -0.0639  0.1544
  488POPI   GL1 7769   3.776   8.470   9.890  0.1068 -0.1783 -0.0395
  488POPI   GL2 7770   3.884   8.158   9.727 -0.0529 -0.1686 -0.2631
  488POPI   C1A 7771   3.614   8.573   9.472 -0.1286  0.1276 -0.3343
  488POPI   D2A 7772   3.437   8.682   9.072 -0.0986  0.0689 -0.0360
  488POPI   C3A 7773   3.475   8.900   8.744 -0.0912 -0.1346 -0.2881
  488POPI   C4A 7774   3.858   8.994   8.402 -0.0017  0.0396  0.1610
  488POPI   C1B 7775   3.984   8.297   9.319  0.1427 -0.2128 -0.1484
  488POPI   C2B 7776   4.204   8.223   9.007 -0.0487  0.0706  0.1309
  488POPI   C3B 7777   4.319   8.231   8.575 -0.2449 -0.1148  0.1206
  488POPI   C4B 7778   4.705   8.317   8.316  0.0934  0.1029 -0.1432
  489POPI    C1 7779   1.044  13.841  10.843 -0.1828 -0.1349 -0.2570
  489POPI    C2 7780   0.644  13.842  10.825 -0.1996  0.0696  0.0489
  489POPI    C3 7781   0.843  14.184  10.884  0.0236 -0.0290 -0.1147
  489POPI   PO4 7782   1.210  13.747  10.581 -0.0255 -0.2510 -0.1061
  489POPI   GL1 7783   1.394  13.886  10.216  0.2249 -0.2685 -0.0023
  489POPI   GL2 7784   1.126  13.724  10.054  0.1699 -0.3045 -0.0071
  489POPI   C1A 7785   1.550  13.738   9.789 -0.1786  0.1465  0.2007
  489POPI   D2A 7786   1.751  13.515   9.426  0.0104 -0.0036  0.1248
  489POPI   C3A 7787   1.466  13.169   9.413 -0.0486  0.0097 -0.0412
  489POPI   C4A 7788   1.417  12.790   9.549 -0.0762  0.0252 -0.1541
  489POPI   C1B 7789   0.987  13.972   9.793 -0.0601  0.0231  0.0273
  489POPI   C2B 7790   0.609  13.922   9.751 -0.0783 -0.0957  0.0698
  489POPI   C3B 7791   0.419  13.883   9.422  0.0742  0.0209 -0.0093
  489POPI   C4B 7792   0.477  13.920   8.940  0.4180 -0.0841 -0.0116
  490POPI    C1 7793  16.890  16.983  10.507 -0.3218 -0.1576 -0.0666
  490POPI    C2 7794  16.855  17.373  10.588  0.0260 -0.0521 -0.3956
  490POPI    C3 7795  17.090  17.142  10.815  0.1597  0.0208 -0.4584
  490POPI   PO4 7796  16.941  17.049  10.264 -0.4055  0.2887  0.1748
  490POPI   GL1 7797  17.007  16.961   9.866 -0.0946  0.1991  0.1797
  490POPI   GL2 7798  17.013  16.663   9.931  0.1727  0.0748  0.0582
  490POPI   C1A 7799  17.259  16.729   9.469 -0.2708  0.1007  0.1922
  490POPI   D2A 7800  17.020  16.683   9.016  0.3241 -0.0545 -0.3190
  490POPI   C3A 7801  17.067  16.761   8.620 -0.0082 -0.0747  0.0001
  490POPI   C4A 7802  16.775  16.861   8.392 -0.0537 -0.0533 -0.0724
  490POPI   C1B 7803  16.827  16.523   9.529 -0.1180 -0.1165  0.2072
  490POPI   C2B 7804  16.716  16.293   9.070 -0.0916  0.1916 -0.2274
  490POPI   C3B 7805  16.703  16.368   8.663  0.0265  0.0507 -0.0644
  490POPI   C4B 7806  16.781  16.290   8.253 -0.1151  0.0260 -0.1796
  491POPI    C1 7807  17.927   3.568  10.469 -0.0216 -0.1660  0.1761
  491POPI    C2 7808  18.305   3.575  10.339 -0.0718 -0.0405  0.0350
  491POPI    C3 7809  18.227   3.610  10.730  0.0555  0.0715  0.0512
  491POPI   PO4 7810  17.823   3.437  10.343  0.0929  0.1307 -0.1881
  491POPI   GL1 7811  17.725   3.294   9.969  0.1397 -0.0969  0.0898
  491POPI   GL2 7812  17.944   2.939   9.951  0.0951 -0.1423 -0.2547
  491POPI   C1A 7813  17.554   3.372   9.641 -0.3533 -0.0420  0.2553
  491POPI   D2A 7814  17.472   3.593   9.216  0.2050  0.1833  0.3385
  491POPI   C3A 7815  17.358   3.774   8.878 -0.0832  0.1810  0.2058
  491POPI   C4A 7816  17.327   3.886   8.480  0.2246 -0.3449  0.1602
  491POPI   C1B 7817  17.755   2.875   9.552 -0.1022 -0.0555 -0.1610
  491POPI   C2B 7818  17.705   3.004   9.039  0.0582  0.1028  0.0815
  491POPI   C3B 7819  17.584   2.878   8.615 -0.1701 -0.1424  0.2535
  491POPI   C4B 7820  17.608   3.009   8.133  0.1329  0.0094  0.0926
  492POPI    C1 7821   7.868   7.682  10.814  0.1529 -0.0972 -0.0367
  492POPI    C2 7822   7.896   7.715  10.416 -0.1154 -0.0025 -0.0494
  492POPI    C3 7823   7.543   7.766  10.597 -0.0320 -0.2308  0.1843
  492POPI   PO4 7824   7.964   7.902  10.907  0.1047  0.0635  0.1856
  492POPI   GL1 7825   7.840   8.325  10.761 -0.0399 -0.0766 -0.0583
  492POPI   GL2 7826   7.961   8.622  10.589  0.3562 -0.1037 -0.1689
  492POPI   C1A 7827   7.639   8.175  10.307 -0.2390  0.0214  0.2390
  492POPI   D2A 7828   7.690   7.882  10.003 -0.0711 -0.0118  0.2006
  492POPI   C3A 7829   7.799   7.924   9.638 -0.2880 -0.0620 -0.2030
  492POPI   C4A 7830   7.791   7.973   9.233  0.0499 -0.0496  0.0815
  492POPI   C1B 7831   7.882   8.684  10.198 -0.0954  0.0734 -0.0430
  492POPI   C2B 7832   7.589   8.452   9.847  0.2690 -0.0229 -0.0192
  492POPI   C3B 7833   7.541   8.363   9.464 -0.0056 -0.2788  0.0005
  492POPI   C4B 7834   7.445   8.499   9.074  0.3613  0.0097 -0.2342
  493POPI    C1 7835   8.537   6.895  10.553 -0.0206  0.0015 -0.0257
  493POPI    C2 7836   8.484   6.854  10.947  0.4378  0.0028  0.0406
  493POPI    C3 7837   8.668   7.179  10.803  0.0990  0.0952 -0.1927
  493POPI   PO4 7838   8.302   6.812  10.487 -0.0336 -0.0110  0.0631
  493POPI   GL1 7839   8.073   6.912  10.200  0.1418  0.2709  0.4889
  493POPI   GL2 7840   7.845   7.188  10.330  0.1208 -0.2044  0.1158
  493POPI   C1A 7841   8.262   6.858   9.865  0.0858  0.0330 -0.1508
  493POPI   D2A 7842   8.225   7.043   9.435 -0.1728 -0.1822 -0.0100
  493POPI   C3A 7843   8.301   6.951   8.995  0.2396  0.0552  0.3229
  493POPI   C4A 7844   8.391   7.070   8.629 -0.1478 -0.1067  0.0015
  493POPI   C1B 7845   7.830   7.338   9.853  0.0281 -0.2176  0.1204
  493POPI   C2B 7846   8.000   7.527   9.373 -0.2278 -0.1601  0.2637
  493POPI   C3B 7847   8.008   7.506   8.868 -0.0504 -0.0614  0.2808
  493POPI   C4B 7848   7.930   7.349   8.450  0.0845 -0.2009  0.1353
  494POPI    C1 7849   4.755   6.026  10.227  0.0077 -0.0296  0.1335
  494POPI    C2 7850   4.509   5.726  10.323  0.1481 -0.1082  0.2507
  494POPI    C3 7851   4.572   6.023  10.583 -0.0128  0.0391  0.1239
  494POPI   PO4 7852   5.012   5.878  10.074  0.0884 -0.1134  0.0262
  494POPI   GL1 7853   5.062   5.653   9.723  0.0052  0.0922 -0.0503
  494POPI   GL2 7854   4.912   5.899   9.561  0.0470 -0.0694 -0.1909
  494POPI   C1A 7855   5.260   5.236   9.485  0.0423  0.1807  0.1845
  494POPI   D2A 7856   5.176   5.106   9.030  0.0332 -0.2407  0.2521
  494POPI   C3A 7857   4.848   4.787   9.122 -0.0264 -0.0234  0.4379
  494POPI   C4A 7858   4.397   4.837   9.132  0.2606  0.1909 -0.4719
  494POPI   C1B 7859   4.661   6.325   9.367  0.3393  0.0225  0.1016
  494POPI   C2B 7860   4.530   6.679   9.074 -0.1070 -0.3356 -0.1257
  494POPI   C3B 7861   4.494   6.731   8.590  0.0741 -0.1533 -0.1021
  494POPI   C4B 7862   4.688   6.846   8.271  0.0402 -0.0676  0.1271
  495POPI    C1 7863  18.257  10.396  10.854  0.0585 -0.3466  0.1784
  495POPI    C2 7864  18.279  10.072  11.088 -0.2594 -0.1956  0.4252
  495POPI    C3 7865  18.236  10.434  11.252  0.0631 -0.0272  0.1501
  495POPI   PO4 7866  18.267  10.207  10.544 -0.0745  0.1988 -0.1305
  495POPI   GL1 7867  18.141  10.366  10.127 -0.3374 -0.1777 -0.1957
  495POPI   GL2 7868  18.496  10.206  10.076  0.0725 -0.4442 -0.0965
  495POPI   C1A 7869  18.208  10.491   9.732  0.1537  0.1678 -0.0460
  495POPI   D2A 7870  18.317  10.564   9.378  0.2011  0.0271 -0.0322
  495POPI   C3A 7871  18.116  10.563   8.928  0.1974  0.0581  0.1945
  495POPI   C4A 7872  18.061  10.432   8.457  0.2696  0.0111 -0.0086
  495POPI   C1B 7873  18.717  10.326   9.737 -0.3909 -0.0623  0.0249
  495POPI   C2B 7874  18.796  10.278   9.261 -0.2445 -0.2032  0.1346
  495POPI   C3B 7875  18.707  10.197   8.771 -0.0953 -0.1856  0.0149
  495POPI   C4B 7876  18.545  10.373   8.367 -0.0469 -0.0337 -0.2270
  496POPI    C1 7877   3.653   1.723  10.687  0.0815  0.0766  0.2021
  496POPI    C2 7878   3.360   1.672  10.955  0.0223 -0.0319  0.1177
  496POPI    C3 7879   3.632   1.960  11.008 -0.0594  0.0249  0.2321
  496POPI   PO4 7880   3.698   1.510  10.494 -0.1946 -0.2121 -0.1844
  496POPI   GL1 7881   3.830   1.557  10.024 -0.4238  0.0181 -0.1998
  496POPI   GL2 7882   3.951   1.891  10.107 -0.0836 -0.1578  0.2618
  496POPI   C1A 7883   3.663   1.725   9.651  0.1501  0.2186 -0.1406
  496POPI   D2A 7884   3.377   1.545   9.287  0.1887 -0.0098 -0.0606
  496POPI   C3A 7885   3.056   1.533   9.419 -0.1601  0.1743 -0.0645
  496POPI   C4A 7886   2.709   1.404   9.521  0.2572  0.0675 -0.0640
  496POPI   C1B 7887   4.149   2.029   9.766 -0.2744  0.0599  0.1620
  496POPI   C2B 7888   4.286   1.987   9.291  0.0814 -0.0749  0.2635
  496POPI   C3B 7889   4.389   2.057   8.869  0.1050 -0.3697 -0.0459
  496POPI   C4B 7890   4.686   1.993   8.521 -0.1137 -0.0567  0.0721
  497POPI    C1 7891   8.580   4.709  10.557  0.0753 -0.0790  0.0825
  497POPI    C2 7892   8.823   5.016  10.638  0.1857 -0.2027  0.2261
  497POPI    C3 7893   8.489   4.965  10.851  0.1870 -0.2044  0.2277
  497POPI   PO4 7894   8.550   4.752  10.255 -0.1408  0.1485  0.0255
  497POPI   GL1 7895   8.749   5.064  10.054  0.1397 -0.0791 -0.0376
  497POPI   GL2 7896   8.539   5.006   9.819  0.2171  0.0330  0.3109
  497POPI   C1A 7897   8.835   5.432   9.863  0.1677 -0.1333 -0.1098
  497POPI   D2A 7898   9.018   5.750   9.634  0.1490  0.2844 -0.0592
  497POPI   C3A 7899   9.232   5.738   9.268 -0.0588  0.1167 -0.0288
  497POPI   C4A 7900   9.425   5.496   9.117 -0.3247 -0.0096 -0.0955
  497POPI   C1B 7901   8.526   5.145   9.380  0.0492  0.2106  0.3147
  497POPI   C2B 7902   8.616   5.177   8.962 -0.1668  0.1167 -0.5773
  497POPI   C3B 7903   9.036   5.240   8.818  0.1262  0.0068  0.1959
  497POPI   C4B 7904   9.383   5.027   8.784 -0.2499  0.0569 -0.1422
  498POPI    C1 7905  12.000   7.386  10.814 -0.1267  0.2522 -0.0256
  498POPI    C2 7906  11.788   7.469  11.143 -0.1287  0.0739  0.0193
  498POPI    C3 7907  12.110   7.234  11.167 -0.2851 -0.1615 -0.1489
  498POPI   PO4 7908  11.856   7.642  10.646 -0.1501  0.1400 -0.0868
  498POPI   GL1 7909  12.001   7.776  10.333  0.0845 -0.0741 -0.1367
  498POPI   GL2 7910  11.965   7.702  10.004  0.0512  0.1529  0.0750
  498POPI   C1A 7911  12.429   7.804  10.170  0.1578  0.2882 -0.2482
  498POPI   D2A 7912  12.552   7.785   9.735 -0.0404  0.2577 -0.1218
  498POPI   C3A 7913  12.328   7.770   9.324 -0.0842  0.2335  0.0184
  498POPI   C4A 7914  11.972   7.777   8.981  0.0630  0.2378 -0.1799
  498POPI   C1B 7915  11.869   7.772   9.571 -0.1654 -0.2487 -0.0438
  498POPI   C2B 7916  11.558   7.655   9.225 -0.0959  0.6191  0.0383
  498POPI   C3B 7917  11.265   7.482   9.184  0.2747  0.1907 -0.1778
  498POPI   C4B 7918  10.919   7.570   9.397  0.0724  0.3687  0.0533
  499POPI    C1 7919  10.434   6.591  10.890 -0.1028 -0.2138 -0.1950
  499POPI    C2 7920  10.112   6.815  10.965  0.0981  0.0380 -0.0721
  499POPI    C3 7921  10.179   6.485  11.180 -0.0515  0.0109 -0.0656
  499POPI   PO4 7922  10.499   6.543  10.621  0.1182  0.0607  0.0990
  499POPI   GL1 7923  10.539   6.748  10.260  0.1647 -0.1579 -0.2161
  499POPI   GL2 7924  10.631   7.171  10.254  0.0172 -0.0995  0.2707
  499POPI   C1A 7925  10.685   6.672   9.767 -0.2004 -0.0953  0.1449
  499POPI   D2A 7926  11.023   6.586   9.397  0.2988  0.1952 -0.1925
  499POPI   C3A 7927  11.131   6.989   9.148 -0.1007  0.0271  0.1264
  499POPI   C4A 7928  11.175   7.185   8.759  0.2022  0.1497 -0.1803
  499POPI   C1B 7929  10.550   7.149   9.863 -0.0763  0.0634 -0.0029
  499POPI   C2B 7930  10.683   7.064   9.468 -0.2836  0.1123 -0.1230
  499POPI   C3B 7931  10.625   6.804   9.093  0.1785 -0.2454  0.1579
  499POPI   C4B 7932  10.571   6.766   8.644  0.3587 -0.0677 -0.0953
  500POPI    C1 7933  11.389  11.724  10.853  0.1899  0.0555 -0.0553
  500POPI    C2 7934  11.070  11.966  10.850  0.0582 -0.1161 -0.1066
  500POPI    C3 7935  11.215  11.832  11.197  0.1632  0.0754 -0.0748
  500POPI   PO4 7936  11.327  11.492  10.634  0.0398  0.1565 -0.0551
  500POPI   GL1 7937  11.542  11.478  10.229 -0.3385 -0.2789  0.1390
  500POPI   GL2 7938  11.810  11.636  10.119  0.0071 -0.0537 -0.1432
  500POPI   C1A 7939  11.875  11.098   9.985  0.0073 -0.1900 -0.2573
  500POPI   D2A 7940  11.999  10.873   9.537  0.1061  0.2767  0.3002
  500POPI   C3A 7941  11.887  10.595   9.287  0.1225 -0.1565  0.1993
  500POPI   C4A 7942  11.856  10.294   9.068  0.0103 -0.2301 -0.0430
  500POPI   C1B 7943  11.697  11.485   9.739 -0.1286  0.0972 -0.2638
  500POPI   C2B 7944  11.716  11.530   9.305 -0.0389 -0.0326  0.0216
  500POPI   C3B 7945  11.548  11.457   8.910  0.0927 -0.3096 -0.2678
  500POPI   C4B 7946  11.523  11.505   8.398  0.1545  0.0287  0.1654
  501POPI    C1 7947  14.332  13.162  10.505 -0.1270  0.2097 -0.1284
  501POPI    C2 7948  14.235  13.126  10.892  0.1375  0.1747 -0.0630
  501POPI    C3 7949  13.997  12.971  10.611 -0.0977  0.2709  0.0800
  501POPI   PO4 7950  14.664  13.248  10.636  0.2348 -0.3034  0.3153
  501POPI   GL1 7951  14.864  13.364  10.285 -0.0970  0.0642  0.2723
  501POPI   GL2 7952  14.898  13.190  10.011 -0.0379  0.0850  0.1641
  501POPI   C1A 7953  14.795  13.727  10.019  0.1433 -0.0576 -0.2251
  501POPI   D2A 7954  14.678  14.159   9.963  0.0911 -0.1239  0.1417
  501POPI   C3A 7955  14.593  14.399   9.644 -0.0228  0.2552 -0.1637
  501POPI   C4A 7956  14.366  14.782   9.521 -0.0994  0.2202 -0.2461
  501POPI   C1B 7957  14.659  13.331   9.551  0.0194  0.3727 -0.0470
  501POPI   C2B 7958  14.523  13.378   9.151  0.2703  0.0622  0.0743
  501POPI   C3B 7959  14.549  13.291   8.620  0.0774  0.0004 -0.0380
  501POPI   C4B 7960  14.734  13.313   8.225  0.1306 -0.0814  0.2422
  502POPI    C1 7961  15.607   1.165  10.226 -0.1001 -0.1567  0.2110
  502POPI    C2 7962  15.399   1.309  10.535  0.0720 -0.0592  0.2829
  502POPI    C3 7963  15.686   1.530  10.367  0.1878 -0.2320  0.2505
  502POPI   PO4 7964  15.342   1.055  10.087  0.0196 -0.1783 -0.2300
  502POPI   GL1 7965  15.254   0.760   9.788  0.2026 -0.1595  0.0465
  502POPI   GL2 7966  14.920   0.734   9.671 -0.0821  0.0433 -0.0537
  502POPI   C1A 7967  15.225   0.825   9.311 -0.0125  0.0723  0.0208
  502POPI   D2A 7968  15.392   1.046   8.907 -0.4742 -0.3848  0.2821
  502POPI   C3A 7969  15.436   0.886   8.469  0.5071 -0.0410 -0.2517
  502POPI   C4A 7970  15.674   0.897   8.050 -0.1493  0.2796 -0.0162
  502POPI   C1B 7971  14.788   0.626   9.303  0.2471 -0.1947  0.1125
  502POPI   C2B 7972  15.046   0.498   8.983  0.0407  0.1848 -0.1874
  502POPI   C3B 7973  15.421   0.551   8.862 -0.1014 -0.0357 -0.0484
  502POPI   C4B 7974  15.692   0.429   8.550 -0.0290  0.0522  0.0238
  503POPI    C1 7975   5.622  17.991  10.565  0.0163 -0.0114 -0.2708
  503POPI    C2 7976   5.847  17.729  10.363 -0.0106  0.0085 -0.3268
  503POPI    C3 7977   6.020  17.998  10.604  0.0098 -0.1442 -0.1684
  503POPI   PO4 7978   5.491  18.072  10.403  0.3140 -0.1436  0.5256
  503POPI   GL1 7979   5.491  17.813  10.020 -0.1049  0.2571  0.1558
  503POPI   GL2 7980   5.699  17.718   9.785  0.1342  0.2576  0.0441
  503POPI   C1A 7981   5.287  17.817   9.599  0.1224  0.0396 -0.0810
  503POPI   D2A 7982   5.274  17.682   9.168 -0.1244  0.1891 -0.2445
  503POPI   C3A 7983   5.161  17.882   8.899 -0.1375 -0.2026 -0.2318
  503POPI   C4A 7984   5.100  17.675   8.520 -0.2422 -0.3649 -0.0593
  503POPI   C1B 7985   5.776  17.538   9.359 -0.1071 -0.1134  0.2082
  503POPI   C2B 7986   5.933  17.396   8.871  0.3525 -0.1759  0.0744
  503POPI   C3B 7987   5.915  17.509   8.357 -0.1109 -0.1468  0.2198
  503POPI   C4B 7988   6.143  17.562   8.020 -0.1157 -0.2049 -0.0052
  504POPI    C1 7989  11.222   3.322  10.358  0.2559 -0.1474  0.0593
  504POPI    C2 7990  10.853   3.472  10.392  0.3039 -0.0275  0.0567
  504POPI    C3 7991  11.075   3.412  10.719  0.2926 -0.0735  0.0559
  504POPI   PO4 7992  11.332   3.430  10.140  0.0714 -0.3970 -0.0857
  504POPI   GL1 7993  11.068   3.535   9.894  0.0185  0.1271 -0.0852
  504POPI   GL2 7994  10.975   3.830  10.015  0.0327 -0.0126  0.1308
  504POPI   C1A 7995  11.212   3.759   9.486  0.2903 -0.2006 -0.1805
  504POPI   D2A 7996  11.189   3.783   9.080 -0.0532 -0.0810  0.1456
  504POPI   C3A 7997  11.150   3.587   8.694  0.1500 -0.1679  0.0217
  504POPI   C4A 7998  11.261   3.604   8.242 -0.0725 -0.1284 -0.2694
  504POPI   C1B 7999  10.906   4.119   9.674 -0.2929  0.0051 -0.0933
  504POPI   C2B 8000  11.024   4.226   9.243 -0.2632 -0.0091 -0.2289
  504POPI   C3B 8001  11.192   4.429   8.817  0.0545 -0.1172  0.1013
  504POPI   C4B 8002  11.274   4.787   8.540  0.1464  0.1357 -0.3118
  505POPI    C1 8003  17.660   1.000  10.430 -0.0824  0.1702 -0.2660
  505POPI    C2 8004  17.285   0.954  10.562  0.0457  0.1915  0.1184
  505POPI    C3 8005  17.578   1.039  10.820  0.2978  0.2910 -0.1946
  505POPI   PO4 8006  17.645   1.092  10.177  0.1375 -0.0077  0.1359
  505POPI   GL1 8007  17.667   0.925   9.787 -0.1473 -0.2545 -0.0916
  505POPI   GL2 8008  17.833   1.248   9.703 -0.1271  0.0852  0.1670
  505POPI   C1A 8009  17.700   0.912   9.370  0.1396  0.0100  0.0140
  505POPI   D2A 8010  17.817   0.797   8.888 -0.0873 -0.1442 -0.0378
  505POPI   C3A 8011  17.935   0.779   8.385 -0.0245 -0.1500  0.0499
  505POPI   C4A 8012  18.010   1.181   8.193 -0.0658  0.1628  0.2196
  505POPI   C1B 8013  18.022   1.372   9.340  0.0157  0.2886 -0.0275
  505POPI   C2B 8014  18.151   1.378   8.986  0.3381  0.0201  0.1557
  505POPI   C3B 8015  18.370   1.490   8.609  0.0419  0.3920 -0.0810
  505POPI   C4B 8016  18.430   1.480   8.182 -0.0756 -0.0219 -0.1043
  506POPI    C1 8017  17.671   4.922  10.834  0.0637 -0.1439  0.0798
  506POPI    C2 8018  17.672   5.321  10.800  0.2024 -0.1636 -0.1780
  506POPI    C3 8019  17.524   5.148  11.129 -0.2743  0.0843 -0.2534
  506POPI   PO4 8020  17.625   4.756  10.610  0.0450 -0.2504  0.1411
  506POPI   GL1 8021  17.373   4.846  10.233  0.0282  0.1333  0.0701
  506POPI   GL2 8022  17.107   4.977  10.134 -0.0248 -0.6318 -0.1088
  506POPI   C1A 8023  17.708   4.770   9.939  0.0121  0.0584 -0.1176
  506POPI   D2A 8024  18.149   4.738   9.610 -0.1116 -0.1121  0.0519
  506POPI   C3A 8025  18.377   5.117   9.671 -0.0717  0.0922  0.2209
  506POPI   C4A 8026  18.458   5.473   9.817 -0.1137  0.1422  0.1103
  506POPI   C1B 8027  17.023   5.112   9.715  0.1085  0.4273  0.0162
  506POPI   C2B 8028  17.195   5.024   9.294 -0.2246  0.1269  0.0216
  506POPI   C3B 8029  17.059   4.894   8.941 -0.1076  0.1011  0.2508
  506POPI   C4B 8030  17.214   4.680   8.593  0.1979 -0.1369 -0.0351
  507POPI    C1 8031  17.145  17.766  10.704 -0.1796 -0.0037  0.1701
  507POPI    C2 8032  16.933  17.950  10.989  0.0712  0.4013  0.1032
  507POPI    C3 8033  17.329  18.003  10.969  0.1107  0.0625 -0.0846
  507POPI   PO4 8034  16.958  17.845  10.406 -0.0525  0.0281 -0.2640
  507POPI   GL1 8035  16.726  18.094  10.113 -0.2189  0.0765  0.1748
  507POPI   GL2 8036  16.501  17.903   9.921  0.0898  0.3938  0.3180
  507POPI   C1A 8037  17.167  18.164   9.871  0.1281 -0.0234 -0.0311
  507POPI   D2A 8038  17.094  18.504   9.541  0.0770  0.3029  0.3555
  507POPI   C3A 8039  17.204  18.493   9.010 -0.1130 -0.0837  0.3677
  507POPI   C4A 8040  17.070  18.499   8.589  0.0551  0.1237 -0.0776
  507POPI   C1B 8041  16.787  18.122   9.570 -0.0786  0.1009 -0.1975
  507POPI   C2B 8042  16.931  18.115   9.102  0.0065 -0.0762  0.2887
  507POPI   C3B 8043  16.718  18.113   8.732  0.0225 -0.3517  0.0695
  507POPI   C4B 8044  16.532  18.311   8.453  0.1820 -0.0384 -0.1456
  508POPI    C1 8045   4.622  14.494  10.492  0.0109  0.1030 -0.1014
  508POPI    C2 8046   4.437  14.716  10.768 -0.1485 -0.0445 -0.0874
  508POPI    C3 8047   4.343  14.330  10.727  0.1553 -0.1218 -0.0833
  508POPI   PO4 8048   4.587  14.618  10.203  0.1707 -0.3093 -0.1960
  508POPI   GL1 8049   4.672  14.453   9.808  0.0763  0.0137 -0.2884
  508POPI   GL2 8050   4.913  14.452   9.739 -0.2681 -0.2597  0.4098
  508POPI   C1A 8051   4.457  14.461   9.382 -0.3190  0.1776  0.1488
  508POPI   D2A 8052   4.313  14.532   8.918 -0.2054  0.0648 -0.2690
  508POPI   C3A 8053   4.339  14.216   8.551  0.0723  0.0561 -0.1258
  508POPI   C4A 8054   4.481  14.180   8.216  0.0208 -0.1204  0.1229
  508POPI   C1B 8055   4.913  14.476   9.248  0.0987  0.0836 -0.0744
  508POPI   C2B 8056   4.733  14.152   8.956  0.1832  0.1267  0.0209
  508POPI   C3B 8057   4.519  13.742   8.740  0.0977 -0.2734 -0.1556
  508POPI   C4B 8058   4.578  13.509   8.430 -0.0843  0.0507  0.0872
  509POPI    C1 8059  17.685  17.702  10.572 -0.1744 -0.0113 -0.0184
  509POPI    C2 8060  17.553  17.332  10.647 -0.2956  0.0200 -0.0740
  509POPI    C3 8061  17.670  17.567  10.948 -0.1872 -0.0747 -0.0415
  509POPI   PO4 8062  17.682  17.684  10.255 -0.0351  0.5302  0.2159
  509POPI   GL1 8063  17.408  17.776   9.945  0.0098 -0.2524  0.0755
  509POPI   GL2 8064  17.041  17.688   9.948  0.2224 -0.1760  0.0330
  509POPI   C1A 8065  17.289  17.939   9.443  0.0715 -0.0695 -0.0137
  509POPI   D2A 8066  17.518  17.657   9.179 -0.0692 -0.1294 -0.0623
  509POPI   C3A 8067  17.675  17.743   8.757 -0.0747 -0.0459  0.0413
  509POPI   C4A 8068  17.643  17.927   8.327  0.2818 -0.0175 -0.1628
  509POPI   C1B 8069  16.829  17.614   9.584  0.1525  0.1705  0.1256
  509POPI   C2B 8070  16.886  17.621   9.229  0.0390  0.3022  0.1763
  509POPI   C3B 8071  17.008  17.642   8.826  0.0649  0.0002  0.0893
  509POPI   C4B 8072  17.208  18.014   8.702 -0.5095  0.4227  0.4391
  510POPI    C1 8073  12.024  16.870  10.342 -0.0844 -0.0294  0.1330
  510POPI    C2 8074  11.868  16.874  10.710 -0.2694  0.1123  0.0548
  510POPI    C3 8075  11.629  16.914  10.392 -0.1322 -0.1871 -0.0898
  510POPI   PO4 8076  12.308  16.857  10.316  0.0949 -0.0789 -0.0560
  510POPI   GL1 8077  12.631  16.843   9.933 -0.1149 -0.0745 -0.0226
  510POPI   GL2 8078  12.400  16.584   9.833  0.2350  0.1490 -0.2885
  510POPI   C1A 8079  12.867  16.914   9.575 -0.0580  0.2561 -0.0147
  510POPI   D2A 8080  12.973  16.977   9.203 -0.0902  0.1951 -0.2080
  510POPI   C3A 8081  13.235  16.999   8.844  0.4233  0.0362  0.0612
  510POPI   C4A 8082  13.318  17.012   8.456  0.0109  0.2400  0.1136
  510POPI   C1B 8083  12.232  16.611   9.416  0.2902 -0.0980  0.0432
  510POPI   C2B 8084  12.149  16.450   9.053  0.0835 -0.0344  0.0319
  510POPI   C3B 8085  12.287  16.482   8.656 -0.0054  0.0918 -0.2073
  510POPI   C4B 8086  12.177  16.508   8.345  0.1940  0.1804  0.2789
  511POPI    C1 8087  11.704   6.506  10.452  0.1525  0.0234  0.0461
  511POPI    C2 8088  11.415   6.722  10.280  0.2164  0.0605 -0.0155
  511POPI    C3 8089  11.397   6.639  10.671  0.1050  0.0331 -0.0261
  511POPI   PO4 8090  11.938   6.698  10.389 -0.1330  0.0972 -0.0190
  511POPI   GL1 8091  12.113   6.888   9.941  0.3296 -0.0106  0.0758
  511POPI   GL2 8092  11.770   6.959   9.979 -0.0372  0.2002  0.1014
  511POPI   C1A 8093  11.976   6.919   9.543 -0.2596 -0.0184  0.1858
  511POPI   D2A 8094  11.639   7.206   9.343  0.2277 -0.2620 -0.4935
  511POPI   C3A 8095  11.741   7.279   8.968  0.0267 -0.1902  0.0334
  511POPI   C4A 8096  11.556   7.622   8.731 -0.1588  0.2110  0.0517
  511POPI   C1B 8097  11.516   6.802   9.749 -0.1525  0.2553  0.0542
  511POPI   C2B 8098  11.509   6.712   9.344  0.2571 -0.0398 -0.2758
  511POPI   C3B 8099  11.618   6.788   8.923 -0.3448  0.1501  0.2203
  511POPI   C4B 8100  11.655   6.590   8.509 -0.1769  0.1639 -0.3171
  512POPI    C1 8101  10.705   2.984  10.586 -0.1228  0.0234  0.0970
  512POPI    C2 8102  10.816   3.063  10.962  0.1297 -0.2657  0.0868
  512POPI    C3 8103  10.571   2.757  10.886 -0.2039  0.0048  0.0470
  512POPI   PO4 8104  10.836   2.970  10.429  0.1883  0.0565 -0.0860
  512POPI   GL1 8105  10.682   2.988   9.991 -0.3603 -0.0767  0.0975
  512POPI   GL2 8106  11.041   3.027   9.972 -0.3005  0.0894  0.2751
  512POPI   C1A 8107  10.510   3.137   9.558 -0.1407  0.0624 -0.1442
  512POPI   D2A 8108  10.423   3.411   9.129 -0.4438  0.0738  0.0938
  512POPI   C3A 8109  10.739   3.740   9.003  0.2442 -0.5324  0.0506
  512POPI   C4A 8110  10.925   3.985   8.649  0.1461  0.3507  0.0161
  512POPI   C1B 8111  11.367   3.271   9.549  0.1820  0.2673  0.0236
  512POPI   C2B 8112  11.383   3.284   9.107 -0.1955  0.2049  0.1818
  512POPI   C3B 8113  11.560   3.255   8.664  0.2266  0.0449 -0.1162
  512POPI   C4B 8114  11.584   3.175   8.225 -0.3261  0.0742  0.2021
  513POPI    C1 8115  15.853   8.308  10.146  0.2180  0.2546  0.0434
  513POPI    C2 8116  15.599   8.253  10.450 -0.2208  0.2570 -0.3131
  513POPI    C3 8117  15.857   8.559  10.458  0.1692 -0.0665  0.3082
  513POPI   PO4 8118  15.774   8.334   9.862 -0.1953 -0.0508 -0.1771
  513POPI   GL1 8119  15.823   7.959   9.480 -0.1102  0.0267 -0.0479
  513POPI   GL2 8120  15.496   7.895   9.641  0.1169 -0.0127 -0.1112
  513POPI   C1A 8121  16.082   8.280   9.297  0.4528  0.3559  0.0321
  513POPI   D2A 8122  16.135   8.310   8.798 -0.2385 -0.0341  0.2155
  513POPI   C3A 8123  15.751   8.412   8.674  0.3388  0.2173  0.0928
  513POPI   C4A 8124  15.453   8.142   8.615 -0.0965  0.0217  0.1915
  513POPI   C1B 8125  15.453   7.727   9.244 -0.1379  0.0159  0.0144
  513POPI   C2B 8126  15.408   7.624   8.861  0.2795 -0.3963  0.0792
  513POPI   C3B 8127  15.640   7.699   8.549 -0.1262 -0.1763  0.0991
  513POPI   C4B 8128  15.915   7.925   8.452  0.0690  0.1489 -0.0592
  514POPI    C1 8129  13.938  10.019  10.799  0.1059 -0.0362  0.0027
  514POPI    C2 8130  13.792   9.886  11.147 -0.0863 -0.1264 -0.1107
  514POPI    C3 8131  14.034  10.205  11.140  0.1217 -0.2756  0.1306
  514POPI   PO4 8132  14.060   9.817  10.605  0.0270 -0.1480  0.0207
  514POPI   GL1 8133  13.988   9.750  10.169 -0.2586 -0.1613 -0.3594
  514POPI   GL2 8134  13.893   9.495  10.119 -0.0001 -0.0443  0.1511
  514POPI   C1A 8135  13.977   9.827   9.721  0.1239  0.1588 -0.2186
  514POPI   D2A 8136  14.125  10.024   9.302 -0.0989  0.0459  0.5295
  514POPI   C3A 8137  14.104   9.850   8.924 -0.0868 -0.0280  0.0823
  514POPI   C4A 8138  13.978  10.236   8.654 -0.0740 -0.2678  0.0960
  514POPI   C1B 8139  13.667   9.265   9.791 -0.3562 -0.0289 -0.1856
  514POPI   C2B 8140  13.577   9.151   9.457 -0.0523  0.1154  0.0857
  514POPI   C3B 8141  13.477   9.375   9.090  0.1294 -0.1286  0.1978
  514POPI   C4B 8142  13.253   9.513   8.749 -0.0413  0.1463 -0.1461
  515POPI    C1 8143  12.906   1.914  10.409 -0.0792  0.0107  0.0357
  515POPI    C2 8144  13.208   1.660  10.472  0.0487  0.0962 -0.2181
  515POPI    C3 8145  12.902   1.673  10.728  0.2140 -0.0570 -0.0085
  515POPI   PO4 8146  12.882   1.859  10.110 -0.2744 -0.0700 -0.1093
  515POPI   GL1 8147  12.702   1.649   9.794  0.2269 -0.1150  0.0649
  515POPI   GL2 8148  12.780   1.318   9.666 -0.1289  0.0407 -0.1212
  515POPI   C1A 8149  12.877   1.701   9.303 -0.2590  0.2472 -0.0480
  515POPI   D2A 8150  13.021   1.557   8.865 -0.0812  0.0284 -0.0693
  515POPI   C3A 8151  12.847   1.745   8.543 -0.1714  0.1113  0.3059
  515POPI   C4A 8152  12.763   1.940   8.113 -0.0383 -0.3026 -0.2151
  515POPI   C1B 8153  12.772   1.208   9.189  0.2098 -0.2774 -0.0304
  515POPI   C2B 8154  12.599   1.088   8.845  0.1933 -0.4633  0.1368
  515POPI   C3B 8155  12.793   1.148   8.520 -0.2877  0.0222  0.2556
  515POPI   C4B 8156  13.215   1.378   8.372 -0.0413 -0.0082 -0.1564
  516POPI    C1 8157   7.120  17.704  10.557 -0.0035  0.0106 -0.2081
  516POPI    C2 8158   7.326  17.368  10.622 -0.2116 -0.0774  0.0113
  516POPI    C3 8159   7.262  17.624  10.922 -0.2082  0.0712 -0.1139
  516POPI   PO4 8160   6.873  17.629  10.457 -0.1832  0.1590  0.2369
  516POPI   GL1 8161   6.740  17.736  10.008  0.0826  0.2971  0.0438
  516POPI   GL2 8162   6.723  17.546   9.815 -0.1246 -0.3484 -0.3058
  516POPI   C1A 8163   6.758  18.073   9.746  0.1055 -0.2094  0.2025
  516POPI   D2A 8164   6.813  18.415   9.571  0.0665  0.0366 -0.0274
  516POPI   C3A 8165   7.028  18.450   9.238  0.0749  0.1102 -0.0094
  516POPI   C4A 8166   7.238  18.515   8.909  0.0632  0.0228 -0.0512
  516POPI   C1B 8167   6.718  17.609   9.327 -0.0499 -0.1944  0.1592
  516POPI   C2B 8168   6.896  17.775   8.813 -0.2889  0.2340  0.5930
  516POPI   C3B 8169   6.905  17.479   8.497 -0.0686  0.0952  0.0809
  516POPI   C4B 8170   6.772  17.263   8.162  0.2808 -0.1547 -0.2527
  517POPI    C1 8171   9.897  17.629  10.400  0.1086 -0.1349  0.1893
  517POPI    C2 8172   9.588  17.405  10.519  0.0355 -0.1797 -0.0789
  517POPI    C3 8173   9.905  17.233  10.346  0.2073 -0.1325  0.1827
  517POPI   PO4 8174   9.815  17.821  10.414 -0.0284 -0.2363  0.1675
  517POPI   GL1 8175   9.773  17.873   9.933 -0.2323 -0.0422  0.1083
  517POPI   GL2 8176   9.551  17.618   9.994 -0.1907 -0.1841 -0.3434
  517POPI   C1A 8177   9.795  18.005   9.584  0.1906 -0.0839  0.2039
  517POPI   D2A 8178   9.761  18.004   9.143 -0.0233 -0.0623  0.2416
  517POPI   C3A 8179   9.528  18.006   8.761  0.2269  0.0211 -0.3043
  517POPI   C4A 8180   9.594  18.003   8.338 -0.0428 -0.2214  0.2510
  517POPI   C1B 8181   9.425  17.656   9.563 -0.0126  0.1266 -0.1179
  517POPI   C2B 8182   9.231  17.809   9.178  0.0284  0.1681  0.0629
  517POPI   C3B 8183   9.003  17.906   8.819  0.1411  0.0392  0.3066
  517POPI   C4B 8184   9.064  17.701   8.397 -0.0627 -0.0309 -0.1854
  518POPI    C1 8185   0.206   8.091  10.305 -0.1837 -0.0456 -0.1925
  518POPI    C2 8186   0.475   8.041  10.597 -0.0664  0.0543 -0.2826
  518POPI    C3 8187   0.091   8.108  10.688 -0.0181  0.1563 -0.1502
  518POPI   PO4 8188   0.293   7.934  10.170 -0.0495  0.1929 -0.3223
  518POPI   GL1 8189   0.360   7.868   9.832  0.1123 -0.2250  0.2708
  518POPI   GL2 8190   0.633   8.047   9.826  0.1290 -0.0391 -0.1876
  518POPI   C1A 8191   0.234   7.893   9.424 -0.0874  0.2144 -0.1606
  518POPI   D2A 8192   0.072   7.801   9.006  0.1078  0.0919  0.2632
  518POPI   C3A 8193   0.112   7.795   8.584  0.0094  0.0088 -0.1111
  518POPI   C4A 8194  -0.062   7.890   8.145 -0.1161 -0.0397  0.0834
  518POPI   C1B 8195   0.658   8.092   9.371 -0.4222 -0.0909 -0.1044
  518POPI   C2B 8196   0.560   8.077   8.983 -0.0109 -0.0263 -0.2328
  518POPI   C3B 8197   0.534   8.308   8.549  0.0363  0.2336  0.0137
  518POPI   C4B 8198   0.405   8.257   8.153  0.0539  0.1091  0.0826
  519POPI    C1 8199   9.473  14.666  10.628 -0.1293  0.1213 -0.0231
  519POPI    C2 8200   9.276  14.440  10.892  0.1605 -0.0426  0.0570
  519POPI    C3 8201   9.483  14.759  11.017  0.1508 -0.0159  0.0051
  519POPI   PO4 8202   9.318  14.531  10.382 -0.3313 -0.0007 -0.3220
  519POPI   GL1 8203   9.098  14.682  10.053  0.2212  0.0882 -0.0483
  519POPI   GL2 8204   8.875  14.856   9.889  0.1272  0.1475 -0.1041
  519POPI   C1A 8205   9.241  14.516   9.688  0.0308 -0.2882  0.0332
  519POPI   D2A 8206   9.513  14.576   9.326 -0.0922 -0.0988 -0.0846
  519POPI   C3A 8207   9.928  14.300   9.235  0.3839  0.2021  0.0822
  519POPI   C4A 8208  10.188  14.099   8.884  0.0949 -0.0141  0.0859
  519POPI   C1B 8209   8.852  14.806   9.572  0.1040 -0.2103  0.1782
  519POPI   C2B 8210   8.752  14.502   9.231 -0.2249 -0.0310  0.0910
  519POPI   C3B 8211   8.859  14.568   8.752 -0.0278  0.3422 -0.1447
  519POPI   C4B 8212   8.965  14.733   8.363 -0.0233  0.0191  0.1375
  520POPI    C1 8213   8.872  16.129  10.398  0.3070  0.0622 -0.1549
  520POPI    C2 8214   9.082  15.788  10.415  0.1447 -0.0335 -0.0457
  520POPI    C3 8215   9.205  16.109  10.619  0.0756 -0.1512  0.1849
  520POPI   PO4 8216   8.836  16.200  10.139 -0.2031 -0.0708  0.0173
  520POPI   GL1 8217   8.758  15.978   9.780  0.0184  0.1771 -0.1850
  520POPI   GL2 8218   9.044  15.758   9.883 -0.1749  0.5078 -0.2540
  520POPI   C1A 8219   8.784  15.742   9.442  0.0218 -0.0665  0.3092
  520POPI   D2A 8220   8.960  15.802   9.162  0.0545  0.0208 -0.1426
  520POPI   C3A 8221   9.153  15.428   8.938  0.0123  0.0415 -0.0630
  520POPI   C4A 8222   9.143  15.181   8.519  0.2075  0.4763  0.2735
  520POPI   C1B 8223   9.263  16.013   9.534  0.3486  0.1620 -0.0742
  520POPI   C2B 8224   9.458  15.979   9.226  0.0507  0.3527  0.2273
  520POPI   C3B 8225   9.456  15.843   8.844 -0.2247 -0.0871 -0.0965
  520POPI   C4B 8226   9.102  15.843   8.641  0.2582 -0.0178  0.0493
  521POPI    C1 8227   1.165   5.241  11.166 -0.2215  0.1492 -0.0327
  521POPI    C2 8228   0.978   4.925  11.324 -0.0200 -0.0468 -0.1808
  521POPI    C3 8229   0.926   5.288  11.483 -0.0704 -0.1900  0.1361
  521POPI   PO4 8230   1.110   5.241  10.883 -0.0531 -0.1246 -0.3370
  521POPI   GL1 8231   1.252   4.928  10.467  0.1784  0.0649 -0.3131
  521POPI   GL2 8232   1.028   4.627  10.329  0.2613 -0.3464 -0.3106
  521POPI   C1A 8233   1.341   4.934   9.996 -0.1447  0.1602 -0.0299
  521POPI   D2A 8234   1.282   5.143   9.611 -0.0408 -0.1299 -0.1209
  521POPI   C3A 8235   1.323   4.992   9.271  0.4081  0.0055 -0.0374
  521POPI   C4A 8236   1.296   5.072   8.815  0.1978 -0.0267  0.2103
  521POPI   C1B 8237   0.843   4.800   9.990 -0.1164  0.0930  0.0600
  521POPI   C2B 8238   0.828   4.930   9.576 -0.1781 -0.0642 -0.1464
  521POPI   C3B 8239   0.889   4.862   9.149  0.3359 -0.2253 -0.3125
  521POPI   C4B 8240   0.910   4.712   8.864  0.5061  0.0980 -0.0393
  522POPI    C1 8241   6.055   2.355  10.683  0.2320 -0.0359  0.3735
  522POPI    C2 8242   5.758   2.127  10.822 -0.0705  0.1436  0.0380
  522POPI    C3 8243   5.841   2.475  10.999  0.0095  0.0467  0.1938
  522POPI   PO4 8244   6.019   2.262  10.359  0.3077  0.1708 -0.1730
  522POPI   GL1 8245   5.993   2.019   9.965 -0.2370 -0.2740 -0.2865
  522POPI   GL2 8246   5.847   1.587   9.968  0.0931 -0.0788 -0.0274
  522POPI   C1A 8247   6.106   2.065   9.568 -0.0318 -0.0202  0.0592
  522POPI   D2A 8248   6.422   2.410   9.424  0.0683 -0.2138 -0.0150
  522POPI   C3A 8249   6.482   2.427   9.013  0.0509 -0.2229  0.0099
  522POPI   C4A 8250   6.762   2.469   8.626 -0.0557 -0.0584 -0.1307
  522POPI   C1B 8251   5.956   1.515   9.540 -0.0290 -0.0472 -0.3134
  522POPI   C2B 8252   6.125   1.667   9.211 -0.0668  0.1454  0.0183
  522POPI   C3B 8253   6.331   1.558   8.830 -0.2954  0.0426  0.2910
  522POPI   C4B 8254   6.708   1.511   8.588  0.3436  0.0549  0.2258
  523POPI    C1 8255   0.997   3.060  10.622 -0.1002  0.2662 -0.0503
  523POPI    C2 8256   1.034   2.671  10.706  0.3524  0.2949 -0.0918
  523POPI    C3 8257   1.043   2.941  11.001  0.0629  0.2787 -0.0653
  523POPI   PO4 8258   0.853   3.112  10.356  0.1319  0.2844  0.0474
  523POPI   GL1 8259   0.794   3.293   9.992  0.2054  0.1604  0.1270
  523POPI   GL2 8260   0.643   3.006   9.930  0.0001 -0.3709  0.1076
  523POPI   C1A 8261   0.721   3.342   9.580 -0.1380  0.1752 -0.0063
  523POPI   D2A 8262   1.019   3.460   9.308  0.2518 -0.1901 -0.1011
  523POPI   C3A 8263   1.025   3.547   8.931 -0.3720  0.0897  0.0507
  523POPI   C4A 8264   0.896   3.721   8.570  0.1003 -0.1038 -0.1255
  523POPI   C1B 8265   0.432   2.931   9.632 -0.0952 -0.0912  0.1970
  523POPI   C2B 8266   0.317   2.883   9.181 -0.1857 -0.0545 -0.2784
  523POPI   C3B 8267   0.292   3.002   8.818  0.0008  0.0056  0.0811
  523POPI   C4B 8268   0.182   3.111   8.491  0.0480 -0.2103 -0.1777
  524DPPI    C1 8269   6.367   0.023  10.658 -0.1017  0.2505  0.2619
  524DPPI    C2 8270   6.529  -0.334  10.736 -0.0684  0.1696 -0.1532
  524DPPI    C3 8271   6.314  -0.146  11.017  0.0987 -0.0719  0.1431
  524DPPI   PO4 8272   6.215   0.051  10.431 -0.0122 -0.2046  0.1106
  524DPPI   GL1 8273   5.919  -0.188  10.159  0.1341  0.2498  0.1591
  524DPPI   GL2 8274   5.966  -0.255   9.927  0.0198  0.0910  0.0587
  524DPPI   C1A 8275   5.508  -0.140   9.759  0.1692  0.4375  0.1094
  524DPPI   C2A 8276   5.413  -0.141   9.314 -0.0793 -0.0830 -0.0527
  524DPPI   C3A 8277   5.370  -0.025   8.964  0.0253  0.0571  0.1545
  524DPPI   C4A 8278   5.486   0.074   8.485  0.2321 -0.0781 -0.1111
  524DPPI   C1B 8279   5.853  -0.322   9.501 -0.0414 -0.0282 -0.0807
  524DPPI   C2B 8280   5.855  -0.102   9.073  0.0225  0.2209 -0.1720
  524DPPI   C3B 8281   5.910  -0.145   8.626 -0.1491  0.0449 -0.0421
  524DPPI   C4B 8282   6.145  -0.433   8.614  0.1919 -0.0200 -0.0346
  525DPPI    C1 8283  14.332   4.133  10.466  0.1799 -0.0349 -0.0570
  525DPPI    C2 8284  14.334   3.742  10.380  0.1546 -0.0314 -0.0734
  525DPPI    C3 8285  14.300   3.863  10.760 -0.0673 -0.0419 -0.0885
  525DPPI   PO4 8286  14.498   4.191  10.321 -0.1743 -0.1653  0.0243
  525DPPI   GL1 8287  14.573   4.230  10.020 -0.3236 -0.0955 -0.0057
  525DPPI   GL2 8288  14.817   4.109   9.834  0.1361  0.1671 -0.1549
  525DPPI   C1A 8289  14.323   4.095   9.676 -0.3235 -0.1142  0.0828
  525DPPI   C2A 8290  14.257   4.206   9.320 -0.1784  0.0466  0.0303
  525DPPI   C3A 8291  14.250   4.257   8.840 -0.3340 -0.1317  0.3282
  525DPPI   C4A 8292  14.285   4.350   8.423  0.0542  0.1632 -0.2825
  525DPPI   C1B 8293  14.990   4.047   9.427 -0.2222 -0.0182  0.0753
  525DPPI   C2B 8294  15.117   3.973   9.018 -0.1231  0.0219 -0.0872
  525DPPI   C3B 8295  15.405   3.994   8.661  0.0693 -0.2895  0.1680
  525DPPI   C4B 8296  15.495   4.103   8.288  0.0444  0.0042 -0.1950
  526DPPI    C1 8297   5.521  16.366  10.580 -0.0926  0.1997  0.2054
  526DPPI    C2 8298   5.195  16.412  10.807 -0.3829 -0.1487 -0.1296
  526DPPI    C3 8299   5.404  16.071  10.822  0.0122  0.0968  0.1318
  526DPPI   PO4 8300   5.447  16.463  10.267  0.3565  0.0242 -0.0409
  526DPPI   GL1 8301   5.418  16.181   9.959 -0.1089 -0.0281  0.0046
  526DPPI   GL2 8302   5.692  16.149   9.844  0.0590  0.1679  0.0661
  526DPPI   C1A 8303   5.440  16.518   9.536  0.0168 -0.0859 -0.1309
  526DPPI   C2A 8304   5.207  16.415   9.061 -0.0050  0.1277 -0.1869
  526DPPI   C3A 8305   5.086  16.368   8.604  0.1898  0.1227  0.2691
  526DPPI   C4A 8306   5.180  16.316   8.209 -0.0203  0.0226 -0.0896
  526DPPI   C1B 8307   5.836  16.261   9.356  0.0611  0.0740  0.1102
  526DPPI   C2B 8308   5.810  16.487   8.981 -0.0176  0.3258  0.2160
  526DPPI   C3B 8309   5.591  16.455   8.530  0.1425  0.0655  0.1027
  526DPPI   C4B 8310   5.753  16.118   8.321 -0.1839 -0.1351  0.1676
  527DPPI    C1 8311   6.571   2.273  10.342 -0.0723  0.0314  0.1109
  527DPPI    C2 8312   6.784   2.030  10.578 -0.0747 -0.1305 -0.0511
  527DPPI    C3 8313   6.534   2.298  10.739  0.0509 -0.1220  0.1330
  527DPPI   PO4 8314   6.467   2.099  10.146  0.1153 -0.2142 -0.1535
  527DPPI   GL1 8315   6.563   1.953   9.788 -0.0705  0.0301 -0.0858
  527DPPI   GL2 8316   6.334   1.676   9.819 -0.1502  0.1111 -0.1662
  527DPPI   C1A 8317   6.542   1.929   9.356  0.1429  0.0629  0.2032
  527DPPI   C2A 8318   6.720   2.046   9.001 -0.0282 -0.1653 -0.2676
  527DPPI   C3A 8319   6.761   2.005   8.524  0.2083 -0.1475  0.1107
  527DPPI   C4A 8320   6.835   1.805   8.180  0.0997  0.0974  0.0622
  527DPPI   C1B 8321   6.544   1.433   9.521 -0.0506 -0.2130 -0.0373
  527DPPI   C2B 8322   6.815   1.406   9.197  0.0114  0.2471 -0.2775
  527DPPI   C3B 8323   7.032   1.616   8.953  0.0012  0.0986 -0.0659
  527DPPI   C4B 8324   7.196   1.710   8.534 -0.1409  0.0150  0.1453
  528DPPI    C1 8325  11.952  15.524  10.222 -0.2837  0.0563  0.0301
  528DPPI    C2 8326  11.743  15.842  10.347 -0.1104  0.1563  0.0691
  528DPPI    C3 8327  11.953  15.625  10.609 -0.0279  0.1576  0.0044
  528DPPI   PO4 8328  11.966  15.616   9.973  0.1214 -0.1675 -0.0646
  528DPPI   GL1 8329  12.192  15.792   9.602 -0.1216  0.0822  0.0527
  528DPPI   GL2 8330  11.993  15.633   9.459  0.0094 -0.2924  0.1886
  528DPPI   C1A 8331  12.394  16.135   9.331  0.1425 -0.0746 -0.2397
  528DPPI   C2A 8332  12.360  16.029   8.829  0.1959 -0.0223 -0.2960
  528DPPI   C3A 8333  12.336  16.029   8.402  0.0107 -0.1961 -0.3251
  528DPPI   C4A 8334  12.350  15.799   7.918 -0.1211 -0.0647  0.2195
  528DPPI   C1B 8335  12.069  15.582   9.007 -0.0559 -0.0605 -0.0898
  528DPPI   C2B 8336  12.088  15.654   8.638  0.3302  0.1007  0.2372
  528DPPI   C3B 8337  12.014  15.507   8.221  0.0081 -0.0395  0.1503
  528DPPI   C4B 8338  12.478  15.230   8.033 -0.1056 -0.0717  0.1684
  529DPPI    C1 8339   2.110   8.413  10.673  0.2122 -0.2153 -0.1797
  529DPPI    C2 8340   2.427   8.593  10.838  0.1507  0.0851 -0.3806
  529DPPI    C3 8341   2.272   8.265  11.007  0.1378  0.3364  0.1130
  529DPPI   PO4 8342   2.103   8.475  10.308  0.1260 -0.2296  0.1348
  529DPPI   GL1 8343   2.393   8.458   9.910 -0.0644  0.0045  0.2044
  529DPPI   GL2 8344   2.332   8.763   9.734 -0.2401  0.2852  0.0338
  529DPPI   C1A 8345   2.305   8.408   9.422  0.0756  0.3335  0.0199
  529DPPI   C2A 8346   2.210   8.225   8.976  0.0878  0.0988 -0.2477
  529DPPI   C3A 8347   2.326   8.358   8.576  0.1392 -0.0500  0.0443
  529DPPI   C4A 8348   2.613   8.325   8.249 -0.0928  0.0421 -0.2347
  529DPPI   C1B 8349   2.348   9.019   9.331 -0.2101 -0.5378 -0.1423
  529DPPI   C2B 8350   2.202   9.251   8.819  0.3133 -0.1058 -0.1581
  529DPPI   C3B 8351   2.023   9.578   8.512  0.2626 -0.1194  0.1467
  529DPPI   C4B 8352   2.055   9.801   8.112  0.2189  0.1350 -0.1025
  530DPPI    C1 8353  13.258   3.167  10.651 -0.0963 -0.2088  0.0985
  530DPPI    C2 8354  12.919   2.997  10.779 -0.0645 -0.0934  0.3416
  530DPPI    C3 8355  13.265   2.798  10.807 -0.1199 -0.2413  0.0232
  530DPPI   PO4 8356  13.126   3.296  10.433  0.1653 -0.0679  0.0794
  530DPPI   GL1 8357  13.064   3.310   9.950 -0.1465  0.1978  0.0329
  530DPPI   GL2 8358  13.235   3.544   9.824  0.0556 -0.0535 -0.0134
  530DPPI   C1A 8359  12.697   3.281   9.765  0.1071  0.0479  0.2462
  530DPPI   C2A 8360  12.591   3.477   9.246  0.0878 -0.0891 -0.0972
  530DPPI   C3A 8361  12.480   3.582   8.845  0.0702 -0.1300 -0.0734
  530DPPI   C4A 8362  12.359   3.719   8.441 -0.1392  0.0465  0.1469
  530DPPI   C1B 8363  13.143   3.286   9.458 -0.2052  0.3806  0.3610
  530DPPI   C2B 8364  12.998   3.289   9.041 -0.0347  0.0081  0.0536
  530DPPI   C3B 8365  12.968   3.342   8.593  0.2444  0.1798  0.1186
  530DPPI   C4B 8366  13.098   3.210   8.109  0.1895  0.0644 -0.0312
  531DPPI    C1 8367  14.741   7.994  10.521 -0.2107  0.0625  0.1499
  531DPPI    C2 8368  14.972   7.867  10.822 -0.0993 -0.0794  0.0061
  531DPPI    C3 8369  15.025   8.233  10.669  0.0371 -0.1145 -0.0321
  531DPPI   PO4 8370  14.708   7.811  10.333 -0.0167  0.1067  0.1258
  531DPPI   GL1 8371  14.736   7.446  10.034  0.2950 -0.1101 -0.1101
  531DPPI   GL2 8372  14.524   7.631   9.872  0.0142  0.2599 -0.1388
  531DPPI   C1A 8373  14.895   7.177   9.637 -0.1093  0.0602 -0.0932
  531DPPI   C2A 8374  14.890   7.033   9.301 -0.3047  0.1908 -0.1170
  531DPPI   C3A 8375  14.730   6.871   8.942 -0.1489 -0.2315  0.0016
  531DPPI   C4A 8376  14.545   6.727   8.445  0.1725 -0.1697 -0.0950
  531DPPI   C1B 8377  14.483   7.512   9.444 -0.0651 -0.1612 -0.2586
  531DPPI   C2B 8378  14.397   7.676   9.078  0.1598 -0.1311  0.0565
  531DPPI   C3B 8379  14.527   7.740   8.644 -0.1776 -0.0992 -0.4761
  531DPPI   C4B 8380  14.609   7.775   8.215  0.0830 -0.0462 -0.0803
  532DPPI    C1 8381   5.142  14.890  10.573 -0.2747  0.2934  0.0226
  532DPPI    C2 8382   4.904  14.903  10.894  0.0701  0.0323  0.2979
  532DPPI    C3 8383   5.276  15.048  10.915  0.0923  0.0242  0.0091
  532DPPI   PO4 8384   4.976  15.077  10.346  0.0716  0.0811  0.0972
  532DPPI   GL1 8385   4.872  15.330   9.987  0.0316 -0.3178 -0.3213
  532DPPI   GL2 8386   4.734  14.968   9.886 -0.1157  0.1064 -0.0497
  532DPPI   C1A 8387   5.074  15.289   9.558  0.1424  0.0666  0.2726
  532DPPI   C2A 8388   5.048  15.274   9.048 -0.1417 -0.1258 -0.1802
  532DPPI   C3A 8389   4.897  15.086   8.601 -0.1033  0.0695 -0.1159
  532DPPI   C4A 8390   4.536  15.106   8.400  0.1152 -0.0424  0.0803
  532DPPI   C1B 8391   4.747  14.870   9.465  0.1200  0.0951 -0.0515
  532DPPI   C2B 8392   4.696  14.897   9.018 -0.0076  0.3813  0.0702
  532DPPI   C3B 8393   4.722  14.643   8.571 -0.1163  0.1670 -0.0371
  532DPPI   C4B 8394   4.754  14.679   8.156  0.0216 -0.0974  0.2227
  533DPPI    C1 8395  11.815   9.739  10.400 -0.1100 -0.0374  0.0226
  533DPPI    C2 8396  12.054   9.466  10.567 -0.0053  0.0005 -0.0647
  533DPPI    C3 8397  12.023   9.830  10.729  0.0656  0.0244 -0.1042
  533DPPI   PO4 8398  11.578   9.729  10.427  0.0046  0.0386  0.0239
  533DPPI   GL1 8399  11.330   9.865  10.207 -0.0926 -0.0473  0.0234
  533DPPI   GL2 8400  11.487  10.060   9.996  0.1126 -0.1511 -0.0095
  533DPPI   C1A 8401  11.409   9.554   9.863 -0.0607  0.5453 -0.3338
  533DPPI   C2A 8402  11.131   9.493   9.489  0.2173 -0.1610 -0.0857
  533DPPI   C3A 8403  11.146   9.342   9.205 -0.2490 -0.2570  0.1005
  533DPPI   C4A 8404  11.241   9.540   8.794  0.3122  0.0302  0.0208
  533DPPI   C1B 8405  11.592  10.075   9.583  0.0558  0.2221  0.1991
  533DPPI   C2B 8406  11.992   9.948   9.431  0.3901  0.2352 -0.0804
  533DPPI   C3B 8407  12.155   9.794   9.172 -0.0514 -0.2929  0.1709
  533DPPI   C4B 8408  12.238   9.587   8.803 -0.1174  0.1508  0.3897
  534DPPI    C1 8409  15.833  16.525  10.664  0.0448  0.2036  0.1532
  534DPPI    C2 8410  15.899  16.637  11.042 -0.0338  0.0483  0.2137
  534DPPI    C3 8411  16.191  16.463  10.831  0.0721  0.3138  0.1366
  534DPPI   PO4 8412  15.817  16.706  10.523 -0.2464  0.1279 -0.0864
  534DPPI   GL1 8413  15.888  16.865  10.085 -0.2088  0.1299 -0.1361
  534DPPI   GL2 8414  15.684  16.533  10.004 -0.1846 -0.2015  0.0841
  534DPPI   C1A 8415  15.970  17.045   9.637 -0.3081 -0.2180  0.0742
  534DPPI   C2A 8416  16.064  17.193   9.265  0.1871 -0.0787 -0.1698
  534DPPI   C3A 8417  16.285  17.190   9.029 -0.0071  0.4290  0.0304
  534DPPI   C4A 8418  16.409  17.175   8.555 -0.2183 -0.2428  0.2049
  534DPPI   C1B 8419  15.839  16.491   9.583 -0.1113  0.0797  0.0904
  534DPPI   C2B 8420  15.885  16.606   9.135 -0.0254  0.1502  0.1151
  534DPPI   C3B 8421  15.909  16.527   8.688 -0.1784 -0.0735 -0.1915
  534DPPI   C4B 8422  15.852  16.431   8.216  0.1400 -0.0171 -0.0082
  535DPPI    C1 8423   7.816   0.293  10.497 -0.2653 -0.1314 -0.3011
  535DPPI    C2 8424   8.032   0.434  10.191 -0.0630  0.1487 -0.0342
  535DPPI    C3 8425   8.216   0.280  10.512 -0.2709 -0.0172  0.0073
  535DPPI   PO4 8426   7.696   0.163  10.404  0.2035  0.0340 -0.0000
  535DPPI   GL1 8427   7.639   0.140  10.060  0.0798  0.0936  0.0408
  535DPPI   GL2 8428   7.532   0.337   9.972  0.1311  0.0671  0.1695
  535DPPI   C1A 8429   7.801   0.029   9.635 -0.2588  0.0674 -0.3449
  535DPPI   C2A 8430   7.617  -0.094   9.225  0.2929  0.0241 -0.2196
  535DPPI   C3A 8431   7.793  -0.013   8.839  0.0309  0.1489 -0.0094
  535DPPI   C4A 8432   8.040  -0.083   8.410  0.2107  0.2991  0.1669
  535DPPI   C1B 8433   7.860   0.562   9.736 -0.1046  0.1170  0.0057
  535DPPI   C2B 8434   8.144   0.723   9.423 -0.0560 -0.2315 -0.1624
  535DPPI   C3B 8435   8.344   0.776   9.169  0.1112  0.0942  0.0575
  535DPPI   C4B 8436   8.400   0.852   8.694  0.0204 -0.1868  0.1357
  536DPPI    C1 8437   2.105  13.492  10.654  0.0915 -0.1477  0.2558
  536DPPI    C2 8438   2.363  13.446  10.956  0.2693 -0.0864  0.1152
  536DPPI    C3 8439   2.383  13.771  10.724  0.1649 -0.1565  0.0069
  536DPPI   PO4 8440   2.053  13.383  10.521 -0.2817  0.0136  0.3455
  536DPPI   GL1 8441   1.879  13.411  10.065 -0.0447  0.1473  0.2413
  536DPPI   GL2 8442   2.191  13.305  10.021  0.1192  0.0479 -0.1383
  536DPPI   C1A 8443   1.825  13.067   9.701 -0.0508  0.0970 -0.1496
  536DPPI   C2A 8444   1.911  12.969   9.297 -0.0713  0.2691  0.2011
  536DPPI   C3A 8445   1.873  12.877   8.834  0.0352  0.2408 -0.1345
  536DPPI   C4A 8446   2.195  12.818   8.512  0.0243  0.0770 -0.1584
  536DPPI   C1B 8447   2.314  13.434   9.552 -0.1654 -0.0200 -0.1799
  536DPPI   C2B 8448   2.230  13.419   9.208 -0.1084 -0.1210 -0.1090
  536DPPI   C3B 8449   2.029  13.523   8.834  0.0783 -0.6730 -0.0327
  536DPPI   C4B 8450   1.726  13.302   8.569  0.0452  0.0837  0.1724
  537DPPI    C1 8451   9.140   6.800  11.005 -0.2271 -0.0358 -0.1740
  537DPPI    C2 8452   8.937   6.927  11.326 -0.2026 -0.0888 -0.1373
  537DPPI    C3 8453   9.287   7.096  11.230 -0.0551 -0.2844  0.0470
  537DPPI   PO4 8454   8.975   6.777  10.794 -0.0219  0.0535  0.0432
  537DPPI   GL1 8455   8.915   6.654  10.357 -0.4123 -0.3577  0.4045
  537DPPI   GL2 8456   9.016   6.953  10.323  0.2053 -0.1198 -0.1249
  537DPPI   C1A 8457   9.196   6.725   9.971 -0.1022  0.1163 -0.1659
  537DPPI   C2A 8458   9.266   6.872   9.595  0.0038  0.2212 -0.4845
  537DPPI   C3A 8459   9.244   6.996   9.137  0.4402  0.2076 -0.0623
  537DPPI   C4A 8460   9.220   6.802   8.799  0.0988  0.1477 -0.0386
  537DPPI   C1B 8461   8.767   6.997  10.044  0.0276 -0.0551 -0.0493
  537DPPI   C2B 8462   8.761   7.156   9.614 -0.2755  0.3437 -0.1746
  537DPPI   C3B 8463   8.728   7.134   9.226 -0.1824  0.0107  0.1088
  537DPPI   C4B 8464   8.838   7.150   8.828  0.2023  0.0150 -0.0048
  538DPPI    C1 8465  18.342  16.639  10.417 -0.1193 -0.2475  0.1105
  538DPPI    C2 8466  18.197  16.879  10.703  0.0598 -0.0078  0.0043
  538DPPI    C3 8467  18.485  16.615  10.789  0.0721  0.0230  0.0575
  538DPPI   PO4 8468  18.291  16.918  10.167 -0.1441  0.0335 -0.0803
  538DPPI   GL1 8469  18.237  17.022   9.780 -0.0464  0.1708 -0.2621
  538DPPI   GL2 8470  18.107  17.296   9.849  0.2913 -0.1657 -0.1367
  538DPPI   C1A 8471  18.396  16.746   9.485 -0.1041 -0.3389 -0.0158
  538DPPI   C2A 8472  18.444  16.562   9.091 -0.2616 -0.0062 -0.1096
  538DPPI   C3A 8473  18.461  16.567   8.626 -0.3373 -0.1310 -0.2710
  538DPPI   C4A 8474  18.356  16.626   8.164  0.0710  0.1069 -0.1574
  538DPPI   C1B 8475  17.822  17.440   9.510 -0.1291  0.0181  0.3428
  538DPPI   C2B 8476  17.811  17.276   9.001 -0.1050 -0.1822  0.4320
  538DPPI   C3B 8477  17.789  17.294   8.584 -0.2581 -0.0384  0.1820
  538DPPI   C4B 8478  18.003  17.129   8.210 -0.0109  0.0798  0.1351
  539DPPI    C1 8479   6.430   7.086  10.459 -0.0877  0.0140 -0.0334
  539DPPI    C2 8480   6.552   7.279  10.787 -0.1115 -0.0608  0.0198
  539DPPI    C3 8481   6.317   6.957  10.820  0.1029 -0.2278 -0.0573
  539DPPI   PO4 8482   6.489   7.208  10.252 -0.1141 -0.2867 -0.2043
  539DPPI   GL1 8483   6.481   7.607   9.941  0.0615  0.1420 -0.1289
  539DPPI   GL2 8484   6.262   7.452   9.861  0.0166  0.1600 -0.0763
  539DPPI   C1A 8485   6.815   7.563   9.722  0.0537 -0.2388 -0.1972
  539DPPI   C2A 8486   7.058   7.534   9.346 -0.2895  0.1469  0.0577
  539DPPI   C3A 8487   7.027   7.378   8.954 -0.0004  0.7484  0.0454
  539DPPI   C4A 8488   6.726   7.482   8.724 -0.0351  0.1148  0.0197
  539DPPI   C1B 8489   6.188   7.099   9.537 -0.1519  0.2230  0.0395
  539DPPI   C2B 8490   6.422   6.653   9.450 -0.1075  0.1382  0.0383
  539DPPI   C3B 8491   6.532   6.350   9.039 -0.0088 -0.2315 -0.0920
  539DPPI   C4B 8492   6.529   6.016   8.762 -0.1271  0.1302  0.1423
  540DPPI    C1 8493  18.132  15.036  10.430  0.0077  0.0547  0.0720
  540DPPI    C2 8494  17.993  15.078  10.803  0.0568 -0.2962  0.1327
  540DPPI    C3 8495  17.754  15.154  10.492  0.0493  0.1076  0.2316
  540DPPI   PO4 8496  18.306  15.135  10.430  0.0607 -0.0905 -0.0421
  540DPPI   GL1 8497  18.279  15.495  10.184  0.0592  0.2699 -0.0476
  540DPPI   GL2 8498  17.986  15.542  10.151  0.0654  0.0145  0.3277
  540DPPI   C1A 8499  18.362  15.578   9.744  0.0474  0.1451 -0.0424
  540DPPI   C2A 8500  18.399  15.353   9.346  0.0304  0.5162  0.0205
  540DPPI   C3A 8501  18.347  15.298   8.916  0.0267 -0.2179  0.1211
  540DPPI   C4A 8502  18.582  15.151   8.607  0.1896  0.0971  0.1044
  540DPPI   C1B 8503  17.989  15.180   9.851  0.1339 -0.1776  0.1348
  540DPPI   C2B 8504  18.105  14.925   9.485 -0.2536  0.0671  0.0386
  540DPPI   C3B 8505  18.149  14.889   9.092  0.1830 -0.0967  0.0005
  540DPPI   C4B 8506  18.161  14.870   8.643 -0.1629  0.1891  0.1067
  541DPPI    C1 8507   1.174  15.082  10.713  0.0972 -0.0377 -0.0913
  541DPPI    C2 8508   0.926  15.241  10.984 -0.0276  0.1011 -0.2845
  541DPPI    C3 8509   1.287  15.403  10.924 -0.0175  0.0978 -0.2335
  541DPPI   PO4 8510   1.000  15.049  10.465 -0.1182  0.3272 -0.1206
  541DPPI   GL1 8511   0.684  14.994  10.091  0.0873  0.0327  0.1815
  541DPPI   GL2 8512   0.340  15.075  10.076 -0.1123 -0.0098 -0.0768
  541DPPI   C1A 8513   0.684  14.888   9.683  0.2275 -0.2357 -0.4144
  541DPPI   C2A 8514   0.725  14.778   9.275 -0.2520 -0.0410  0.1197
  541DPPI   C3A 8515   0.870  14.696   8.949 -0.2682  0.1091 -0.0540
  541DPPI   C4A 8516   0.962  14.444   8.621 -0.3481 -0.1537  0.0979
  541DPPI   C1B 8517   0.143  15.013   9.703 -0.1726 -0.0255  0.0868
  541DPPI   C2B 8518   0.176  14.759   9.314 -0.1154  0.0337  0.2262
  541DPPI   C3B 8519   0.207  14.754   8.893 -0.1038 -0.1278  0.0583
  541DPPI   C4B 8520   0.132  14.694   8.364 -0.4257 -0.0147 -0.0311
  542DPPI    C1 8521   8.018  16.231  10.277 -0.0811  0.2266 -0.2407
  542DPPI    C2 8522   7.991  15.896  10.494 -0.0038  0.3923  0.0286
  542DPPI    C3 8523   8.346  16.073  10.442 -0.0057  0.3012 -0.3179
  542DPPI   PO4 8524   7.868  16.141  10.009  0.2283  0.0814  0.0981
  542DPPI   GL1 8525   7.821  15.990   9.609 -0.2763 -0.1667  0.1128
  542DPPI   GL2 8526   7.866  15.731   9.745 -0.1544  0.3434  0.0118
  542DPPI   C1A 8527   8.000  16.110   9.230  0.2586 -0.0398  0.0168
  542DPPI   C2A 8528   8.089  16.140   8.732 -0.6543 -0.4921  0.0400
  542DPPI   C3A 8529   7.894  16.219   8.327  0.1470 -0.1623 -0.3262
  542DPPI   C4A 8530   7.986  16.521   8.044  0.0261 -0.0708 -0.2719
  542DPPI   C1B 8531   7.849  15.582   9.370 -0.2849 -0.2463 -0.1148
  542DPPI   C2B 8532   7.968  15.627   8.975  0.1756 -0.3056  0.0221
  542DPPI   C3B 8533   8.186  15.664   8.636  0.0995  0.0251  0.0840
  542DPPI   C4B 8534   8.290  15.838   8.288  0.1384 -0.2196  0.1758
  543DPPI    C1 8535   7.740  14.177  10.327 -0.1131  0.0214  0.0481
  543DPPI    C2 8536   7.984  13.904  10.490  0.2082  0.2046 -0.1148
  543DPPI    C3 8537   7.864  14.219  10.705  0.0912  0.1010 -0.0264
  543DPPI   PO4 8538   7.568  14.089  10.280  0.0579  0.1664  0.1166
  543DPPI   GL1 8539   7.492  13.739   9.930  0.2305 -0.0837 -0.1819
  543DPPI   GL2 8540   7.455  13.428   9.939  0.1273  0.0958 -0.1869
  543DPPI   C1A 8541   7.595  13.620   9.505 -0.0237 -0.1235 -0.0868
  543DPPI   C2A 8542   7.787  13.460   9.066  0.2813  0.0588  0.1188
  543DPPI   C3A 8543   7.967  13.413   8.601 -0.2280 -0.0176  0.0074
  543DPPI   C4A 8544   8.024  13.533   8.235 -0.2225 -0.1306 -0.1394
  543DPPI   C1B 8545   7.664  13.115   9.525 -0.0313 -0.0082 -0.0260
  543DPPI   C2B 8546   7.743  12.927   9.125 -0.0753 -0.1513  0.2273
  543DPPI   C3B 8547   7.742  12.949   8.717 -0.0543  0.0835  0.0664
  543DPPI   C4B 8548   7.871  13.027   8.286 -0.0699 -0.0753 -0.0711
  544DPPI    C1 8549  16.246   8.967  10.308  0.0622 -0.0777  0.0406
  544DPPI    C2 8550  15.962   9.069  10.571 -0.1195 -0.2502 -0.0852
  544DPPI    C3 8551  16.334   8.992  10.697 -0.0857  0.1347  0.0618
  544DPPI   PO4 8552  16.273   9.202  10.054 -0.0005  0.0418 -0.0405
  544DPPI   GL1 8553  16.055   9.249   9.659 -0.1392 -0.0330  0.2280
  544DPPI   GL2 8554  15.966   9.584   9.741 -0.3268 -0.0871  0.0089
  544DPPI   C1A 8555  15.848   9.431   9.222 -0.3767 -0.1090 -0.3513
  544DPPI   C2A 8556  15.771   9.649   8.719  0.2276 -0.1878  0.0684
  544DPPI   C3A 8557  15.799   9.924   8.356  0.0941 -0.2024 -0.1667
  544DPPI   C4A 8558  16.027   9.981   8.000 -0.0480 -0.4286  0.1115
  544DPPI   C1B 8559  16.352   9.592   9.427  0.0005 -0.0672  0.3964
  544DPPI   C2B 8560  16.238   9.683   8.946  0.1319 -0.0744 -0.2696
  544DPPI   C3B 8561  16.334   9.858   8.438  0.0663 -0.0287  0.0151
  544DPPI   C4B 8562  16.526   9.899   8.028  0.2006 -0.3035 -0.0287
  545DPPI    C1 8563  17.993  13.114  10.867 -0.0803  0.1849  0.2934
  545DPPI    C2 8564  18.348  13.252  10.989  0.1952  0.0447 -0.3118
  545DPPI    C3 8565  18.276  12.858  10.988  0.1287  0.0567 -0.4169
  545DPPI   PO4 8566  17.909  13.210  10.644  0.0502 -0.1115 -0.3122
  545DPPI   GL1 8567  17.849  13.176  10.288  0.0371 -0.0652 -0.0768
  545DPPI   GL2 8568  17.628  12.826  10.313  0.1029 -0.0040  0.0225
  545DPPI   C1A 8569  17.829  13.431   9.892 -0.1672  0.2856 -0.0328
  545DPPI   C2A 8570  17.752  13.422   9.458  0.0829 -0.0609  0.1126
  545DPPI   C3A 8571  17.874  13.152   9.111 -0.0696 -0.0249  0.1215
  545DPPI   C4A 8572  18.313  13.015   9.039  0.3345  0.1122  0.1007
  545DPPI   C1B 8573  17.588  12.944   9.906  0.0515 -0.0542 -0.2062
  545DPPI   C2B 8574  17.767  12.952   9.555 -0.0713  0.0762 -0.1181
  545DPPI   C3B 8575  18.175  12.993   9.526  0.1892 -0.4293 -0.1345
  545DPPI   C4B 8576  18.429  12.667   9.431  0.2832  0.0377  0.0598
  546DPPI    C1 8577  16.276  11.460  10.276 -0.0464  0.0714 -0.0010
  546DPPI    C2 8578  16.165  11.755  10.522  0.2268 -0.0496  0.2739
  546DPPI    C3 8579  16.553  11.693  10.445  0.1421  0.0559 -0.2813
  546DPPI   PO4 8580  16.155  11.556  10.073 -0.1083 -0.1673 -0.0186
  546DPPI   GL1 8581  16.000  11.455   9.715 -0.2128 -0.0443  0.2970
  546DPPI   GL2 8582  16.285  11.522   9.537 -0.1290  0.0828 -0.4092
  546DPPI   C1A 8583  16.029  11.490   9.160  0.0695  0.0985  0.0155
  546DPPI   C2A 8584  15.837  11.332   8.779 -0.1173  0.1137 -0.0762
  546DPPI   C3A 8585  15.659  11.093   8.426  0.0358  0.1128 -0.0812
  546DPPI   C4A 8586  15.187  11.113   8.321  0.1055  0.1296  0.0837
  546DPPI   C1B 8587  16.492  11.603   9.089 -0.0132  0.3647  0.3911
  546DPPI   C2B 8588  16.573  11.528   8.650  0.1613 -0.0614 -0.1696
  546DPPI   C3B 8589  16.953  11.684   8.383 -0.2178  0.3486 -0.1004
  546DPPI   C4B 8590  17.092  11.782   7.914  0.0894 -0.0069  0.2561
  547DPPI    C1 8591   4.476  15.644  10.749  0.0149  0.1691  0.0696
  547DPPI    C2 8592   4.412  15.325  10.983 -0.0019 -0.0863 -0.2752
  547DPPI    C3 8593   4.782  15.411  10.858  0.0846  0.3324  0.2292
  547DPPI   PO4 8594   4.329  15.692  10.428  0.0841 -0.1720  0.0553
  547DPPI   GL1 8595   4.282  15.412  10.106  0.2128 -0.2050  0.0159
  547DPPI   GL2 8596   4.162  15.747   9.942 -0.3460 -0.1314  0.1161
  547DPPI   C1A 8597   4.459  15.351   9.693  0.3910  0.3936 -0.1689
  547DPPI   C2A 8598   4.517  15.294   9.360  0.0514  0.1367 -0.1235
  547DPPI   C3A 8599   4.546  15.416   8.914 -0.0273 -0.1934 -0.2730
  547DPPI   C4A 8600   4.766  15.590   8.559 -0.2536  0.0677 -0.0687
  547DPPI   C1B 8601   4.229  15.808   9.514 -0.0069 -0.3503 -0.1800
  547DPPI   C2B 8602   4.287  15.893   9.056 -0.0319 -0.0882  0.0935
  547DPPI   C3B 8603   4.230  15.713   8.678 -0.1542 -0.0367  0.0233
  547DPPI   C4B 8604   4.342  15.638   8.260  0.0596  0.0387 -0.2027
  548DPPI    C1 8605   4.204   8.070  10.264  0.2320 -0.1364 -0.0931
  548DPPI    C2 8606   3.835   7.986  10.135  0.1887  0.0997 -0.1263
  548DPPI    C3 8607   3.949   7.872  10.500  0.0407  0.1341 -0.0685
  548DPPI   PO4 8608   4.234   8.307  10.141  0.1903  0.1375 -0.3342
  548DPPI   GL1 8609   4.318   8.441   9.765  0.0874 -0.0973  0.0542
  548DPPI   GL2 8610   4.197   8.782   9.759  0.1363  0.2885  0.0650
  548DPPI   C1A 8611   4.496   8.250   9.383 -0.0610 -0.1017 -0.2294
  548DPPI   C2A 8612   4.750   8.288   9.069 -0.1372  0.3396  0.0937
  548DPPI   C3A 8613   4.925   8.221   8.717 -0.0445  0.1401  0.1332
  548DPPI   C4A 8614   5.337   8.093   8.355  0.0697  0.1726 -0.0622
  548DPPI   C1B 8615   4.252   8.762   9.378 -0.0099  0.1414  0.2999
  548DPPI   C2B 8616   4.045   8.721   9.011  0.0758 -0.3162  0.0222
  548DPPI   C3B 8617   3.930   8.567   8.654 -0.0392  0.1851 -0.2036
  548DPPI   C4B 8618   3.901   8.535   8.155 -0.0478  0.0462  0.0305
  549DPPI    C1 8619   3.974   0.178  10.678 -0.1058  0.1613 -0.0921
  549DPPI    C2 8620   4.258  -0.104  10.666 -0.1443  0.1141  0.0663
  549DPPI    C3 8621   4.206   0.113  10.998 -0.1273  0.2963 -0.0483
  549DPPI   PO4 8622   3.885   0.097  10.436 -0.1125  0.1960  0.1601
  549DPPI   GL1 8623   3.741   0.220   9.987  0.0139  0.3692 -0.0090
  549DPPI   GL2 8624   3.920   0.069   9.951 -0.3506  0.1874 -0.1467
  549DPPI   C1A 8625   3.503   0.255   9.606 -0.2189  0.2241 -0.2475
  549DPPI   C2A 8626   3.120   0.183   9.339 -0.2801  0.1583  0.0850
  549DPPI   C3A 8627   3.047   0.120   8.880 -0.0831 -0.0597 -0.2135
  549DPPI   C4A 8628   3.123  -0.006   8.429 -0.0724  0.2977 -0.1820
  549DPPI   C1B 8629   4.030   0.112   9.565  0.1136 -0.1345  0.0495
  549DPPI   C2B 8630   4.163   0.110   9.169  0.0696  0.2509 -0.1268
  549DPPI   C3B 8631   3.983   0.158   8.750 -0.1024 -0.0918  0.0139
  549DPPI   C4B 8632   4.037   0.136   8.271  0.4404 -0.0636 -0.1457
  550DPPI    C1 8633  14.197  12.429  10.639  0.2551 -0.0081 -0.3447
  550DPPI    C2 8634  14.272  12.099  10.426  0.2568 -0.1547 -0.1200
  550DPPI    C3 8635  14.243  12.078  10.825 -0.0617  0.0608 -0.1279
  550DPPI   PO4 8636  14.380  12.646  10.560  0.1991  0.1348  0.0572
  550DPPI   GL1 8637  14.327  12.764  10.130 -0.4020 -0.2141 -0.3954
  550DPPI   GL2 8638  14.295  12.464   9.996 -0.2053  0.2075 -0.0420
  550DPPI   C1A 8639  14.470  12.888   9.756 -0.0460 -0.1351  0.0958
  550DPPI   C2A 8640  14.544  12.848   9.310 -0.1870  0.1384 -0.0054
  550DPPI   C3A 8641  14.848  12.989   8.943 -0.1226  0.1504  0.0799
  550DPPI   C4A 8642  15.007  13.315   8.771  0.0898 -0.1485  0.3203
  550DPPI   C1B 8643  14.321  12.390   9.517 -0.3215  0.2746 -0.0237
  550DPPI   C2B 8644  14.366  12.470   9.115 -0.2686 -0.1895  0.0337
  550DPPI   C3B 8645  14.487  12.710   8.757  0.1093  0.0401 -0.0952
  550DPPI   C4B 8646  14.300  12.888   8.348 -0.0414 -0.1261 -0.0541
  551DPPI    C1 8647  17.606  16.315  10.886  0.0495  0.0671 -0.0556
  551DPPI    C2 8648  17.976  16.436  10.793  0.0979  0.0620  0.1277
  551DPPI    C3 8649  17.914  16.215  11.121 -0.0723  0.0905  0.1156
  551DPPI   PO4 8650  17.513  16.294  10.574  0.0197 -0.0626 -0.3565
  551DPPI   GL1 8651  17.695  16.111  10.146 -0.1129  0.3213 -0.0867
  551DPPI   GL2 8652  17.496  16.403  10.049  0.2342  0.2585  0.0006
  551DPPI   C1A 8653  17.881  15.966   9.780 -0.2181 -0.0164  0.0952
  551DPPI   C2A 8654  17.914  15.628   9.547 -0.1352  0.1554  0.0589
  551DPPI   C3A 8655  17.873  15.399   9.118  0.0343 -0.2515  0.2300
  551DPPI   C4A 8656  17.719  15.177   8.807 -0.2576  0.2747  0.1212
  551DPPI   C1B 8657  17.587  16.390   9.665 -0.0512  0.1528  0.1812
  551DPPI   C2B 8658  17.530  16.504   9.112 -0.2371  0.0589 -0.2306
  551DPPI   C3B 8659  17.555  16.779   8.778 -0.2377 -0.2598  0.0154
  551DPPI   C4B 8660  17.523  16.884   8.395 -0.0375 -0.1412  0.2229
  552DPPI    C1 8661  16.575  14.464  10.692 -0.0311  0.0137 -0.2050
  552DPPI    C2 8662  16.340  14.786  10.725 -0.0359 -0.0096  0.0077
  552DPPI    C3 8663  16.735  14.820  10.780 -0.0564 -0.0693  0.1988
  552DPPI   PO4 8664  16.478  14.377  10.417  0.1184  0.1974 -0.3286
  552DPPI   GL1 8665  16.610  14.250  10.022  0.0820  0.1460 -0.1052
  552DPPI   GL2 8666  16.582  13.907   9.900  0.1112 -0.1163 -0.3370
  552DPPI   C1A 8667  16.883  14.197   9.687 -0.1369  0.3448 -0.2213
  552DPPI   C2A 8668  17.005  14.154   9.261 -0.0159  0.1889 -0.3060
  552DPPI   C3A 8669  16.893  14.065   8.964  0.1424  0.1338  0.0566
  552DPPI   C4A 8670  16.699  13.940   8.656 -0.2245  0.0216 -0.1868
  552DPPI   C1B 8671  16.550  13.972   9.472 -0.0342  0.2018 -0.1278
  552DPPI   C2B 8672  16.361  14.055   9.091 -0.0868  0.0185  0.1550
  552DPPI   C3B 8673  16.285  14.180   8.625 -0.2751 -0.0534 -0.1005
  552DPPI   C4B 8674  15.941  14.239   8.288 -0.1869  0.5198 -0.2063
  553DPPI    C1 8675   1.748   6.260  10.713 -0.1492 -0.1270 -0.0166
  553DPPI    C2 8676   1.779   6.589  10.938 -0.0640 -0.0819 -0.0934
  553DPPI    C3 8677   1.899   6.236  11.083  0.1240 -0.0296 -0.1192
  553DPPI   PO4 8678   1.829   6.322  10.479 -0.0083 -0.2610  0.2146
  553DPPI   GL1 8679   1.682   6.280  10.003  0.1347  0.2870 -0.0756
  553DPPI   GL2 8680   1.607   6.023   9.872  0.0142  0.0146  0.0200
  553DPPI   C1A 8681   1.644   6.560   9.763  0.1288  0.1649  0.1113
  553DPPI   C2A 8682   1.664   6.541   9.350  0.0794  0.0680 -0.1742
  553DPPI   C3A 8683   1.649   6.612   8.945 -0.1891 -0.1055 -0.1787
  553DPPI   C4A 8684   1.610   6.722   8.568  0.1154 -0.2557  0.1454
  553DPPI   C1B 8685   1.721   6.069   9.492  0.1947  0.0345  0.1065
  553DPPI   C2B 8686   1.687   5.962   9.166 -0.1022  0.1155  0.1670
  553DPPI   C3B 8687   1.566   6.104   8.722  0.0730  0.0717 -0.1211
  553DPPI   C4B 8688   1.304   5.978   8.319  0.1341 -0.0012  0.1326
  554PYPI    C1 8689  16.797   7.913  10.648 -0.1907 -0.1002 -0.1765
  554PYPI    C2 8690  16.433   8.020  10.776 -0.0504  0.0683  0.0907
  554PYPI    C3 8691  16.745   8.030  11.027  0.1609  0.0325 -0.1653
  554PYPI   PO4 8692  16.685   7.985  10.321  0.0790  0.0580 -0.1843
  554PYPI   GL1 8693  16.727   7.862   9.974 -0.0709  0.1064  0.0018
  554PYPI   GL2 8694  16.633   7.550  10.022  0.2565 -0.1252  0.2001
  554PYPI   C1A 8695  16.696   7.663   9.570 -0.2001  0.1998  0.1229
  554PYPI   C2A 8696  16.635   7.473   9.154 -0.3700 -0.6003  0.0648
  554PYPI   D3A 8697  16.381   7.286   8.885  0.0895  0.0202 -0.1849
  554PYPI   C4A 8698  16.450   7.051   8.543  0.2256 -0.0830 -0.2470
  554PYPI   C1B 8699  16.326   7.242   9.708  0.0449 -0.0527  0.2666
  554PYPI   C2B 8700  16.702   7.080   9.527 -0.1455 -0.3317 -0.0792
  554PYPI   C3B 8701  16.898   7.037   9.139  0.0925 -0.0212  0.0341
  554PYPI   C4B 8702  16.840   7.100   8.780 -0.1607 -0.2316 -0.1893
  555PYPI    C1 8703  11.105  13.032  10.755 -0.1889 -0.2128  0.1774
  555PYPI    C2 8704  10.806  13.298  10.761 -0.0280 -0.0213 -0.1042
  555PYPI    C3 8705  11.083  13.303  11.049 -0.0365  0.1051 -0.0975
  555PYPI   PO4 8706  11.014  12.848  10.682 -0.2545  0.0445  0.2197
  555PYPI   GL1 8707  10.856  12.645  10.256  0.0557 -0.1062 -0.0858
  555PYPI   GL2 8708  11.035  12.357  10.153 -0.2460 -0.0489  0.1048
  555PYPI   C1A 8709  10.699  12.662   9.878 -0.0311  0.1023 -0.3706
  555PYPI   C2A 8710  10.750  12.633   9.459 -0.1783  0.5424  0.1301
  555PYPI   D3A 8711  10.771  12.460   9.081 -0.2390  0.1532 -0.2013
  555PYPI   C4A 8712  10.459  12.616   8.755 -0.1785 -0.1431 -0.0220
  555PYPI   C1B 8713  11.163  12.464   9.703  0.0710  0.0967  0.0978
  555PYPI   C2B 8714  11.313  12.448   9.333 -0.0653  0.0317  0.0400
  555PYPI   C3B 8715  11.270  12.452   8.899 -0.0314  0.0676  0.3982
  555PYPI   C4B 8716  11.350  12.452   8.404  0.0672  0.4528 -0.0926
  556PYPI    C1 8717   5.768   6.676  10.201 -0.0907 -0.2132 -0.0035
  556PYPI    C2 8718   5.727   6.581  10.588  0.1836 -0.4366 -0.0259
  556PYPI    C3 8719   5.923   6.914  10.483 -0.2396 -0.1607  0.0350
  556PYPI   PO4 8720   5.826   6.559  10.111  0.1351 -0.1706 -0.1616
  556PYPI   GL1 8721   5.740   6.337   9.722 -0.0887  0.0656  0.3660
  556PYPI   GL2 8722   5.933   6.668   9.663 -0.0558 -0.1396 -0.1116
  556PYPI   C1A 8723   5.616   6.431   9.339  0.0306  0.0763 -0.0354
  556PYPI   C2A 8724   5.602   6.481   8.934  0.0669 -0.4577 -0.0976
  556PYPI   D3A 8725   5.877   6.809   8.753  0.1433  0.1016  0.0939
  556PYPI   C4A 8726   5.989   6.846   8.395 -0.1692 -0.1126  0.3365
  556PYPI   C1B 8727   6.015   6.772   9.192  0.1138  0.2881 -0.2150
  556PYPI   C2B 8728   6.362   6.721   8.781 -0.0085  0.2221  0.0388
  556PYPI   C3B 8729   6.327   6.495   8.436 -0.1782  0.0521  0.0463
  556PYPI   C4B 8730   6.237   6.110   8.247  0.2626  0.1187 -0.1817
  557PYPI    C1 8731   6.939   5.856  10.404 -0.0342  0.1372  0.0771
  557PYPI    C2 8732   7.132   6.185  10.525 -0.0207  0.1522  0.0149
  557PYPI    C3 8733   6.896   6.199  10.202 -0.1046  0.1271  0.0748
  557PYPI   PO4 8734   7.128   5.688  10.409  0.2573  0.0953  0.1139
  557PYPI   GL1 8735   7.167   5.628   9.987  0.1575 -0.3213 -0.1975
  557PYPI   GL2 8736   7.346   5.348   9.941 -0.2279 -0.1642  0.2021
  557PYPI   C1A 8737   7.292   5.627   9.514 -0.2568 -0.4891 -0.1447
  557PYPI   C2A 8738   7.241   5.538   9.021  0.1284 -0.0718 -0.0660
  557PYPI   D3A 8739   7.335   5.610   8.615  0.2307  0.2740  0.0664
  557PYPI   C4A 8740   7.436   5.368   8.346  0.3249  0.1772  0.0452
  557PYPI   C1B 8741   7.570   5.043   9.874  0.0291  0.1211 -0.0259
  557PYPI   C2B 8742   7.892   4.973   9.555  0.0630 -0.1478 -0.1691
  557PYPI   C3B 8743   8.117   5.034   9.172  0.2596  0.3336 -0.0115
  557PYPI   C4B 8744   8.160   5.198   8.754  0.0691 -0.1222  0.2202
  558PYPI    C1 8745  15.138   5.589  10.514 -0.1522 -0.0824  0.0462
  558PYPI    C2 8746  15.291   5.229  10.599  0.0803 -0.0117 -0.0663
  558PYPI    C3 8747  15.460   5.559  10.750  0.0407  0.0676 -0.1937
  558PYPI   PO4 8748  15.132   5.544  10.284  0.2059 -0.0118 -0.1164
  558PYPI   GL1 8749  15.215   5.649   9.892 -0.3337 -0.2552  0.4088
  558PYPI   GL2 8750  14.867   5.844   9.824 -0.1068  0.1598  0.2129
  558PYPI   C1A 8751  15.175   5.620   9.448 -0.0415 -0.4333 -0.0812
  558PYPI   C2A 8752  14.860   5.578   9.177 -0.1326  0.0674  0.1207
  558PYPI   D3A 8753  14.621   5.406   8.873 -0.3043 -0.0280 -0.2900
  558PYPI   C4A 8754  14.800   5.273   8.412  0.2413  0.0522  0.2079
  558PYPI   C1B 8755  14.717   5.390   9.656  0.1864  0.1418  0.0970
  558PYPI   C2B 8756  14.677   5.089   9.305  0.1693  0.3154  0.1214
  558PYPI   C3B 8757  14.901   4.900   8.960 -0.0470  0.0098  0.1372
  558PYPI   C4B 8758  15.274   4.897   8.755 -0.0268  0.1096  0.1373
  559PYPI    C1 8759   6.086  15.502  10.043  0.0680 -0.0821 -0.1291
  559PYPI    C2 8760   5.894  15.313  10.339 -0.0855  0.0731 -0.1277
  559PYPI    C3 8761   6.188  15.570  10.423 -0.1790  0.1732 -0.1048
  559PYPI   PO4 8762   6.188  15.381   9.921 -0.1609 -0.1699  0.1024
  559PYPI   GL1 8763   6.321  15.400   9.489  0.1305 -0.0497 -0.1686
  559PYPI   GL2 8764   5.937  15.311   9.421  0.0492 -0.2445 -0.1900
  559PYPI   C1A 8765   6.367  15.168   9.103 -0.1017  0.1567 -0.1029
  559PYPI   C2A 8766   6.644  15.111   8.700  0.1094  0.2015  0.1682
  559PYPI   D3A 8767   6.757  15.186   8.247  0.1821  0.1250 -0.0426
  559PYPI   C4A 8768   6.970  15.519   8.192  0.1359 -0.1189 -0.0418
  559PYPI   C1B 8769   5.754  15.018   9.021 -0.0851 -0.1273 -0.1525
  559PYPI   C2B 8770   5.712  14.983   8.511 -0.1664 -0.0842  0.0639
  559PYPI   C3B 8771   5.746  15.041   8.141  0.2669 -0.2329  0.1476
  559PYPI   C4B 8772   5.853  14.769   7.783  0.1523 -0.0991  0.0038
  560PYPI    C1 8773  10.666  11.569  10.533 -0.0820 -0.3320 -0.1688
  560PYPI    C2 8774  10.850  11.509  10.883  0.0675  0.1210 -0.1630
  560PYPI    C3 8775  10.484  11.360  10.821  0.1883 -0.2773  0.0462
  560PYPI   PO4 8776  10.864  11.588  10.382 -0.0733 -0.0848 -0.1659
  560PYPI   GL1 8777  11.064  11.319  10.179  0.1026 -0.1689 -0.2550
  560PYPI   GL2 8778  10.887  11.152   9.971 -0.1798 -0.1850  0.0597
  560PYPI   C1A 8779  11.175  11.539   9.801 -0.3220  0.0306 -0.1647
  560PYPI   C2A 8780  11.214  11.521   9.385 -0.1228 -0.2077 -0.1583
  560PYPI   D3A 8781  11.017  11.510   9.071 -0.2954 -0.3769  0.0305
  560PYPI   C4A 8782  11.103  11.321   8.794  0.0077 -0.0113  0.1127
  560PYPI   C1B 8783  10.880  11.100   9.507  0.1483 -0.3847  0.1711
  560PYPI   C2B 8784  10.559  11.095   9.129  0.0573 -0.0410  0.1466
  560PYPI   C3B 8785  10.655  11.128   8.722  0.2114 -0.0939 -0.1111
  560PYPI   C4B 8786  10.474  11.095   8.287 -0.1324 -0.1451 -0.0307
  561PYPI    C1 8787  11.318   5.527  10.601  0.1613  0.1472  0.0106
  561PYPI    C2 8788  11.586   5.632  10.879  0.3710  0.1077 -0.1741
  561PYPI    C3 8789  11.544   5.248  10.776 -0.1223  0.0457  0.2219
  561PYPI   PO4 8790  11.329   5.587  10.379  0.1186  0.0204  0.0842
  561PYPI   GL1 8791  11.156   5.839  10.155 -0.2103 -0.1069  0.0496
  561PYPI   GL2 8792  10.876   6.112  10.156  0.0064 -0.1293  0.0272
  561PYPI   C1A 8793  11.323   5.804   9.771 -0.1637  0.1120 -0.3381
  561PYPI   C2A 8794  11.356   5.790   9.281  0.1060 -0.0874  0.0445
  561PYPI   D3A 8795  11.237   5.776   8.866 -0.0285  0.0089 -0.0728
  561PYPI   C4A 8796  11.633   5.741   8.629 -0.1123 -0.1710  0.0516
  561PYPI   C1B 8797  10.948   6.098   9.635 -0.1297 -0.3103  0.0663
  561PYPI   C2B 8798  10.889   6.123   9.238 -0.1800 -0.3203 -0.0863
  561PYPI   C3B 8799  10.979   6.441   8.956 -0.2646  0.1563  0.2397
  561PYPI   C4B 8800  11.184   6.655   8.757  0.0983  0.1147  0.2252
  562PYPI    C1 8801   0.904   0.423  10.935 -0.0997  0.0896  0.2140
  562PYPI    C2 8802   1.266   0.373  11.098 -0.1007  0.0058  0.1906
  562PYPI    C3 8803   1.039   0.683  11.207  0.0350  0.1372  0.1031
  562PYPI   PO4 8804   0.870   0.483  10.709 -0.0711 -0.3941  0.0875
  562PYPI   GL1 8805   0.935   0.271  10.278  0.2164  0.0987  0.0106
  562PYPI   GL2 8806   1.011   0.675  10.284 -0.0643 -0.3434 -0.0745
  562PYPI   C1A 8807   0.791   0.363   9.968 -0.3661  0.0512 -0.4113
  562PYPI   C2A 8808   0.740   0.209   9.566  0.1010 -0.3485  0.1400
  562PYPI   D3A 8809   0.678   0.103   9.184  0.0561  0.1221 -0.0563
  562PYPI   C4A 8810   0.574   0.143   8.786 -0.1478 -0.0386 -0.0071
  562PYPI   C1B 8811   0.931   0.882   9.870  0.0745 -0.3183 -0.1789
  562PYPI   C2B 8812   0.985   1.060   9.464 -0.1185  0.0000 -0.1728
  562PYPI   C3B 8813   0.931   0.964   9.015  0.2239 -0.2038 -0.0214
  562PYPI   C4B 8814   0.838   0.783   8.654 -0.3668  0.1552 -0.1099
  563PYPI    C1 8815  13.526  16.564  10.669  0.0499 -0.0927 -0.1092
  563PYPI    C2 8816  13.144  16.610  10.779  0.0188 -0.2069 -0.1686
  563PYPI    C3 8817  13.426  16.847  10.934 -0.0180 -0.3913  0.1924
  563PYPI   PO4 8818  13.647  16.572  10.392  0.1238  0.0393  0.2170
  563PYPI   GL1 8819  13.877  16.420  10.065  0.1076  0.0703 -0.1727
  563PYPI   GL2 8820  13.606  16.184  10.093 -0.0644 -0.0407  0.0143
  563PYPI   C1A 8821  13.876  16.646   9.709 -0.0196  0.0624 -0.1471
  563PYPI   C2A 8822  13.774  16.447   9.404  0.1011 -0.4315  0.0165
  563PYPI   D3A 8823  13.889  16.460   9.029 -0.0876  0.2736  0.1948
  563PYPI   C4A 8824  13.816  16.295   8.565 -0.0377  0.1098 -0.3086
  563PYPI   C1B 8825  13.448  16.138   9.653  0.4120  0.1343 -0.3653
  563PYPI   C2B 8826  13.396  16.141   9.188  0.1329  0.1383 -0.0819
  563PYPI   C3B 8827  13.331  15.995   8.760  0.1644 -0.0333 -0.0762
  563PYPI   C4B 8828  13.397  16.023   8.325  0.0537 -0.2240 -0.0360
  564PYPI    C1 8829   7.910   2.607  10.191 -0.0397  0.3306 -0.1561
  564PYPI    C2 8830   8.265   2.624  10.376  0.0672  0.2522 -0.3513
  564PYPI    C3 8831   7.928   2.677  10.585  0.1804  0.0558 -0.1137
  564PYPI   PO4 8832   7.985   2.762   9.956 -0.3177  0.0732  0.1387
  564PYPI   GL1 8833   8.211   2.852   9.613 -0.0339  0.1305 -0.1647
  564PYPI   GL2 8834   8.091   2.598   9.419 -0.1677  0.0537 -0.3549
  564PYPI   C1A 8835   8.136   3.086   9.264 -0.1737 -0.0872  0.4488
  564PYPI   C2A 8836   8.056   3.165   8.896  0.0682  0.1279 -0.2620
  564PYPI   D3A 8837   7.846   3.270   8.433 -0.1242  0.1351 -0.1738
  564PYPI   C4A 8838   7.918   2.908   8.180  0.1141 -0.0764  0.1945
  564PYPI   C1B 8839   7.953   2.666   8.949  0.0705 -0.0539  0.0136
  564PYPI   C2B 8840   7.868   2.788   8.632  0.1483 -0.3505  0.1298
  564PYPI   C3B 8841   7.486   2.677   8.465  0.1257 -0.0688  0.3915
  564PYPI   C4B 8842   7.174   2.713   8.153 -0.4256 -0.1996  0.2207
  565PYPI    C1 8843  15.898   3.980  10.382  0.2057 -0.1264  0.0018
  565PYPI    C2 8844  15.768   3.775  10.700 -0.1489  0.2017  0.0754
  565PYPI    C3 8845  16.136   3.931  10.700 -0.0418 -0.0454  0.2031
  565PYPI   PO4 8846  15.815   3.874  10.174 -0.2976  0.3835  0.1116
  565PYPI   GL1 8847  15.999   3.837   9.828  0.1930  0.2619 -0.0238
  565PYPI   GL2 8848  16.012   3.466   9.900 -0.0405 -0.0901 -0.1391
  565PYPI   C1A 8849  16.063   3.910   9.384  0.2994  0.0170 -0.3249
  565PYPI   C2A 8850  15.802   3.642   8.937 -0.0574 -0.3055 -0.0485
  565PYPI   D3A 8851  15.863   3.372   8.608  0.0314 -0.0055 -0.0829
  565PYPI   C4A 8852  15.923   3.512   8.157  0.1339 -0.1655 -0.0554
  565PYPI   C1B 8853  15.847   3.399   9.502 -0.1242  0.0606  0.1863
  565PYPI   C2B 8854  15.648   3.200   9.213 -0.0300 -0.1927  0.1527
  565PYPI   C3B 8855  15.588   2.997   8.896  0.0730  0.2606  0.2227
  565PYPI   C4B 8856  15.590   2.683   8.662  0.0513  0.0687 -0.0447
  566PYPI    C1 8857  16.800   0.770  10.620 -0.1252 -0.0765 -0.0898
  566PYPI    C2 8858  16.442   0.603  10.683 -0.2110  0.1053 -0.0895
  566PYPI    C3 8859  16.534   0.951  10.858  0.0695 -0.0740  0.1302
  566PYPI   PO4 8860  16.863   0.722  10.332  0.1987 -0.0564  0.2264
  566PYPI   GL1 8861  16.743   0.795   9.895 -0.2002 -0.0972 -0.0068
  566PYPI   GL2 8862  16.640   1.027   9.779 -0.1127  0.1005  0.1490
  566PYPI   C1A 8863  16.752   0.525   9.547 -0.1532 -0.2670 -0.1740
  566PYPI   C2A 8864  16.858   0.538   9.151  0.0711  0.0644 -0.0530
  566PYPI   D3A 8865  16.990   0.610   8.835  0.1721  0.4536 -0.0447
  566PYPI   C4A 8866  17.086   0.717   8.409  0.0240  0.0644 -0.0333
  566PYPI   C1B 8867  16.661   1.012   9.333 -0.1793 -0.3141  0.2074
  566PYPI   C2B 8868  16.774   1.095   8.881  0.0114  0.0216  0.0819
  566PYPI   C3B 8869  16.773   1.254   8.429  0.1415 -0.2176  0.3466
  566PYPI   C4B 8870  16.516   1.342   8.110  0.0180 -0.0242 -0.0888
  567PYPI    C1 8871   9.391  12.119  10.341  0.0026 -0.0560 -0.2525
  567PYPI    C2 8872   9.388  12.294  10.700 -0.2484 -0.0562 -0.2522
  567PYPI    C3 8873   9.585  12.464  10.397  0.0034 -0.0797 -0.1052
  567PYPI   PO4 8874   9.172  12.006  10.319  0.1852  0.1025 -0.0735
  567PYPI   GL1 8875   8.975  12.024   9.972 -0.0423 -0.2172  0.2978
  567PYPI   GL2 8876   8.725  12.191   9.768 -0.3853  0.3520  0.1551
  567PYPI   C1A 8877   9.138  12.139   9.489  0.4248 -0.0879 -0.3531
  567PYPI   C2A 8878   8.938  11.959   9.016 -0.0055  0.3936 -0.0473
  567PYPI   D3A 8879   8.885  11.920   8.575  0.0550  0.0454 -0.4582
  567PYPI   C4A 8880   9.205  11.612   8.346  0.0666 -0.1651  0.0257
  567PYPI   C1B 8881   8.620  12.320   9.313  0.0383 -0.0073  0.0172
  567PYPI   C2B 8882   8.554  12.290   8.897 -0.3761 -0.3036 -0.2394
  567PYPI   C3B 8883   8.512  12.313   8.532 -0.0180  0.0111  0.0599
  567PYPI   C4B 8884   8.658  12.270   8.134  0.0952  0.0150 -0.0547
  568PYPI    C1 8885  10.299  16.007  10.696  0.0171  0.1425 -0.0914
  568PYPI    C2 8886   9.937  15.960  10.858  0.0504  0.0236 -0.0507
  568PYPI    C3 8887  10.236  15.715  10.961  0.1286  0.0868 -0.1256
  568PYPI   PO4 8888  10.256  15.932  10.427  0.0147 -0.1352 -0.0001
  568PYPI   GL1 8889  10.568  15.977  10.093  0.3446 -0.1813  0.2315
  568PYPI   GL2 8890  10.572  15.657  10.066 -0.0257 -0.1441  0.1766
  568PYPI   C1A 8891  10.345  16.148   9.802  0.2130  0.2671  0.2016
  568PYPI   C2A 8892  10.484  16.276   9.345 -0.0227  0.2143  0.0146
  568PYPI   D3A 8893  10.363  16.398   8.958  0.1099 -0.0886 -0.0865
  568PYPI   C4A 8894  10.318  16.264   8.499  0.2445  0.3574 -0.1384
  568PYPI   C1B 8895  10.849  15.800   9.684 -0.4869 -0.2441  0.1365
  568PYPI   C2B 8896  11.025  15.897   9.364  0.0587 -0.2860 -0.3041
  568PYPI   C3B 8897  11.226  16.070   8.923  0.3391  0.1439  0.0052
  568PYPI   C4B 8898  11.325  16.111   8.451  0.0956 -0.0795  0.0856
  569PYPI    C1 8899   1.383   3.952  10.454  0.1824 -0.4551 -0.0487
  569PYPI    C2 8900   1.073   4.083  10.670  0.2476 -0.0859 -0.1727
  569PYPI    C3 8901   1.418   3.992  10.851  0.1365 -0.2915 -0.0606
  569PYPI   PO4 8902   1.361   3.770  10.351  0.2138  0.1726  0.4651
  569PYPI   GL1 8903   1.241   3.710   9.966 -0.0078 -0.0632 -0.0531
  569PYPI   GL2 8904   1.651   3.554   9.966  0.1349  0.1583  0.1815
  569PYPI   C1A 8905   1.392   3.718   9.550  0.0881 -0.1696 -0.0768
  569PYPI   C2A 8906   1.480   3.619   9.076 -0.1364  0.0735 -0.1729
  569PYPI   D3A 8907   1.514   3.562   8.710  0.0181  0.2136 -0.0284
  569PYPI   C4A 8908   1.281   3.587   8.285 -0.3240 -0.2229  0.0138
  569PYPI   C1B 8909   1.837   3.812   9.723  0.1498  0.1448  0.1349
  569PYPI   C2B 8910   1.876   3.782   9.340  0.0137 -0.0001  0.1709
  569PYPI   C3B 8911   1.959   3.811   8.884 -0.0966 -0.1094  0.1726
  569PYPI   C4B 8912   1.978   3.748   8.433  0.0873 -0.0268  0.1634
  570PYPI    C1 8913   0.275   5.189  10.595  0.1243 -0.0330  0.0694
  570PYPI    C2 8914   0.064   5.048  10.285  0.1271 -0.0929  0.0947
  570PYPI    C3 8915   0.298   5.370  10.238 -0.0470  0.0345  0.0920
  570PYPI   PO4 8916   0.362   4.927  10.675 -0.0088 -0.2105 -0.1832
  570PYPI   GL1 8917   0.495   4.679  10.383 -0.0111 -0.0529 -0.1971
  570PYPI   GL2 8918   0.151   4.549  10.383 -0.0346  0.2781 -0.1148
  570PYPI   C1A 8919   0.359   4.751   9.942  0.1359  0.0119 -0.1138
  570PYPI   C2A 8920   0.273   4.657   9.476 -0.1116  0.0656  0.0429
  570PYPI   D3A 8921   0.005   4.809   9.188 -0.0028  0.0405 -0.2623
  570PYPI   C4A 8922   0.002   4.714   8.679 -0.1489  0.0649 -0.1695
  570PYPI   C1B 8923   0.009   4.418   9.917  0.0054 -0.0203 -0.0000
  570PYPI   C2B 8924  -0.046   4.279   9.464 -0.1582 -0.0017 -0.1419
  570PYPI   C3B 8925   0.057   4.214   9.034 -0.0338  0.0859 -0.1741
  570PYPI   C4B 8926   0.012   4.024   8.663  0.4055 -0.1367 -0.3688
  571PYPI    C1 8927  12.959  16.545  10.298  0.1985  0.2972  0.0499
  571PYPI    C2 8928  12.700  16.691  10.565  0.1213 -0.0335  0.1601
  571PYPI    C3 8929  12.580  16.418  10.298  0.2723  0.0711 -0.0171
  571PYPI   PO4 8930  13.069  16.676  10.209 -0.2711  0.1266 -0.1154
  571PYPI   GL1 8931  13.325  16.564   9.834  0.4033  0.2048 -0.0596
  571PYPI   GL2 8932  13.023  16.354   9.818  0.1938 -0.3065 -0.0882
  571PYPI   C1A 8933  13.228  16.557   9.420  0.0495  0.4253 -0.1550
  571PYPI   C2A 8934  13.247  16.490   8.910  0.2266 -0.1948 -0.0784
  571PYPI   D3A 8935  13.291  16.496   8.498  0.0072 -0.1392  0.0684
  571PYPI   C4A 8936  13.025  16.709   8.254 -0.0555 -0.0147 -0.1740
  571PYPI   C1B 8937  12.757  16.446   9.478 -0.0153  0.0301 -0.1757
  571PYPI   C2B 8938  12.684  16.530   9.061  0.1887 -0.0448  0.1311
  571PYPI   C3B 8939  12.799  16.730   8.722 -0.0336 -0.2478  0.0048
  571PYPI   C4B 8940  12.568  16.851   8.351 -0.2762  0.0260  0.4046
  572PYPI    C1 8941  14.667   5.432  10.445  0.3021 -0.2100 -0.0622
  572PYPI    C2 8942  14.437   5.378  10.767  0.2885 -0.1550 -0.0626
  572PYPI    C3 8943  14.835   5.351  10.799  0.2851 -0.1884 -0.0492
  572PYPI   PO4 8944  14.512   5.256  10.263  0.2055 -0.1863 -0.1704
  572PYPI   GL1 8945  14.274   5.326   9.993  0.0317  0.1802 -0.0084
  572PYPI   GL2 8946  13.998   5.411   9.936  0.0632  0.0469  0.2074
  572PYPI   C1A 8947  14.209   5.631   9.559 -0.0077  0.0846  0.0702
  572PYPI   C2A 8948  14.277   5.711   9.125  0.0711  0.0862 -0.0832
  572PYPI   D3A 8949  14.247   5.701   8.681 -0.1085  0.2082  0.1261
  572PYPI   C4A 8950  14.546   5.655   8.327  0.0038  0.2015  0.1060
  572PYPI   C1B 8951  13.786   5.362   9.497 -0.0882  0.0424 -0.4598
  572PYPI   C2B 8952  13.797   5.490   9.015 -0.2929 -0.0573 -0.1591
  572PYPI   C3B 8953  13.775   5.550   8.619  0.1162  0.2716  0.1248
  572PYPI   C4B 8954  14.036   5.757   8.230  0.0659 -0.2107 -0.0345
  573PYPI    C1 8955  16.834   5.235  10.713  0.0356 -0.0278 -0.1208
  573PYPI    C2 8956  17.197   5.077  10.653  0.0989  0.0550  0.0398
  573PYPI    C3 8957  17.053   5.112  11.025 -0.0740  0.0224 -0.0234
  573PYPI   PO4 8958  16.700   5.126  10.383  0.0407  0.1035 -0.1159
  573PYPI   GL1 8959  16.619   5.206  10.011  0.1073  0.2631  0.1885
  573PYPI   GL2 8960  16.540   4.810  10.002  0.1355  0.2284 -0.2371
  573PYPI   C1A 8961  16.555   5.165   9.595  0.4206 -0.2465 -0.0336
  573PYPI   C2A 8962  16.680   5.046   9.278 -0.1020 -0.0606  0.0054
  573PYPI   D3A 8963  16.641   5.149   8.876 -0.2050 -0.2412  0.1880
  573PYPI   C4A 8964  16.872   5.013   8.508 -0.3835 -0.2429  0.0502
  573PYPI   C1B 8965  16.820   4.621   9.685  0.1746 -0.1159  0.0320
  573PYPI   C2B 8966  17.018   4.547   9.277 -0.3237 -0.1116  0.0042
  573PYPI   C3B 8967  17.406   4.577   9.175 -0.0288  0.4242  0.0308
  573PYPI   C4B 8968  17.581   4.717   8.952  0.2456  0.1125  0.2176
  574ERGO   ROH 8969  14.558  12.050   9.853  0.0392  0.3064 -0.1275
  574ERGO    R1 8970  14.673  11.988   9.602  0.1680  0.2103 -0.0456
  574ERGO    R2 8971  14.533  11.856   9.404  0.3089  0.0251 -0.0228
  574ERGO    R3 8972  14.608  12.070   9.254  0.2658 -0.0287 -0.1227
  574ERGO    R4 8973  14.542  11.862   9.058  0.1750 -0.0908 -0.0294
  574ERGO    R5 8974  14.728  11.975   9.070  0.1885 -0.0986 -0.1386
  574ERGO    C1 8975  14.617  12.066   8.716  0.0566 -0.2087 -0.1270
  574ERGO    C2 8976  14.531  11.962   8.382  0.3655  0.0417 -0.0078
  575ERGO   ROH 8977   3.789  15.295   9.975 -0.0829 -0.5442  0.0259
  575ERGO    R1 8978   3.827  15.424   9.726 -0.2589 -0.2778  0.1322
  575ERGO    R2 8979   4.011  15.336   9.540 -0.0982  0.1555  0.0680
  575ERGO    R3 8980   3.795  15.334   9.375 -0.0907 -0.0469  0.0580
  575ERGO    R4 8981   4.025  15.319   9.195 -0.1051 -0.3485  0.0843
  575ERGO    R5 8982   3.863  15.464   9.186 -0.0730 -0.3363 -0.1328
  575ERGO    C1 8983   3.830  15.308   8.839 -0.1020 -0.8321  0.0842
  575ERGO    C2 8984   3.909  15.265   8.449 -0.1208 -0.1414 -0.0361
  576ERGO   ROH 8985  17.106   3.564   9.812  0.1378 -0.2798 -0.0748
  576ERGO    R1 8986  17.009   3.466   9.565 -0.0436 -0.1436 -0.0601
  576ERGO    R2 8987  16.811   3.596   9.421  0.0425  0.0862  0.0195
  576ERGO    R3 8988  16.995   3.584   9.221 -0.0279 -0.0772 -0.0375
  576ERGO    R4 8989  16.749   3.671   9.089 -0.0401 -0.0649 -0.0000
  576ERGO    R5 8990  16.874   3.503   9.032 -0.1160 -0.1344  0.0449
  576ERGO    C1 8991  16.885   3.705   8.709 -0.1542 -0.3063 -0.0650
  576ERGO    C2 8992  16.808   3.666   8.415 -0.1220 -0.2094 -0.1613
  577ERGO   ROH 8993   1.599   9.925  10.097  0.1333 -0.0760  0.0207
  577ERGO    R1 8994   1.569  10.044   9.842  0.0790 -0.1081  0.0105
  577ERGO    R2 8995   1.785  10.103   9.679  0.0502 -0.0694 -0.0191
  577ERGO    R3 8996   1.647   9.955   9.498  0.0697 -0.1233  0.0124
  577ERGO    R4 8997   1.853  10.093   9.341 -0.2111  0.2066 -0.0830
  577ERGO    R5 8998   1.638  10.094   9.303 -0.2480 -0.0167  0.0962
  577ERGO    C1 8999   1.764   9.948   8.973 -0.3450  0.3168 -0.0907
  577ERGO    C2 9000   1.975   9.993   8.746 -0.1510  0.0080  0.2374
  578ERGO   ROH 9001   8.930   4.266   9.596 -0.1456 -0.2926  0.0303
  578ERGO    R1 9002   8.920   4.163   9.333 -0.1651 -0.1252 -0.0362
  578ERGO    R2 9003   8.744   4.258   9.143 -0.1277  0.0502  0.0112
  578ERGO    R3 9004   8.970   4.292   8.996 -0.1083  0.0718  0.0472
  578ERGO    R4 9005   8.752   4.317   8.802 -0.0786  0.1673  0.0325
  578ERGO    R5 9006   8.923   4.183   8.788 -0.0967  0.1519  0.0049
  578ERGO    C1 9007   8.969   4.383   8.467 -0.0318  0.2557  0.0788
  578ERGO    C2 9008   8.921   4.521   8.255  0.3058 -0.0588  0.0608
  579ERGO   ROH 9009  13.547   6.297  10.331  0.0063  0.0330 -0.0912
  579ERGO    R1 9010  13.583   6.252  10.054  0.0578 -0.0329 -0.0740
  579ERGO    R2 9011  13.441   6.389   9.861 -0.0580 -0.2277 -0.1289
  579ERGO    R3 9012  13.690   6.448   9.767 -0.1049 -0.0391 -0.1399
  579ERGO    R4 9013  13.519   6.443   9.528 -0.0956 -0.2952 -0.1485
  579ERGO    R5 9014  13.703   6.330   9.558  0.0093 -0.1161 -0.0916
  579ERGO    C1 9015  13.797   6.528   9.246 -0.1616 -0.1574 -0.1702
  579ERGO    C2 9016  13.814   6.474   8.954 -0.4693 -0.0956 -0.2256
  580ERGO   ROH 9017  17.956   3.753   9.961 -0.1790  0.0583  0.2068
  580ERGO    R1 9018  17.972   3.900   9.720  0.0521 -0.0503  0.1551
  580ERGO    R2 9019  18.138   3.827   9.512 -0.0466 -0.3761  0.1939
  580ERGO    R3 9020  17.909   3.836   9.367 -0.0281 -0.0820  0.1731
  580ERGO    R4 9021  18.122   3.886   9.172  0.0957 -0.6477  0.1351
  580ERGO    R5 9022  17.946   4.011   9.207  0.3123 -0.2832  0.0162
  580ERGO    C1 9023  17.897   3.930   8.838  0.1961 -0.5298  0.0813
  580ERGO    C2 9024  17.913   3.947   8.406  0.0493 -0.0816 -0.2112
  581ERGO   ROH 9025   6.123   3.824   9.640  0.1634 -0.1054 -0.0693
  581ERGO    R1 9026   5.897   3.755   9.485  0.1425 -0.0112 -0.0791
  581ERGO    R2 9027   5.828   3.891   9.254  0.1987  0.0288 -0.0658
  581ERGO    R3 9028   5.835   3.642   9.144  0.1045  0.0355 -0.0893
  581ERGO    R4 9029   5.653   3.794   8.972  0.0396  0.0864  0.0105
  581ERGO    R5 9030   5.611   3.604   9.069  0.0556  0.0818  0.0188
  581ERGO    C1 9031   5.558   3.504   8.704 -0.1415  0.1261  0.0328
  581ERGO    C2 9032   5.417   3.369   8.363 -0.0651  0.1098  0.1149
  582ERGO   ROH 9033   8.278  17.854  10.007 -0.0169  0.0882  0.1972
  582ERGO    R1 9034   8.154  17.964   9.778 -0.0172  0.0922  0.1977
  582ERGO    R2 9035   8.287  18.129   9.602 -0.0588  0.2260  0.2810
  582ERGO    R3 9036   8.202  17.948   9.417  0.0923  0.2312  0.2069
  582ERGO    R4 9037   8.302  18.176   9.260  0.2119  0.2290  0.2927
  582ERGO    R5 9038   8.105  18.084   9.244  0.2297  0.2281  0.1317
  582ERGO    C1 9039   8.232  18.035   8.888  0.5114  0.2355  0.2300
  582ERGO    C2 9040   8.372  18.261   8.780  0.3461  0.1619 -0.2188
  583ERGO   ROH 9041   8.800   9.707  10.271  0.2772  0.2631 -0.0142
  583ERGO    R1 9042   8.876   9.750  10.002  0.0698  0.2151 -0.0808
  583ERGO    R2 9043   8.987   9.551   9.845  0.1933  0.2636 -0.0432
  583ERGO    R3 9044   8.783   9.615   9.677  0.0256 -0.0451  0.0344
  583ERGO    R4 9045   8.991   9.504   9.502  0.2404  0.4446 -0.0685
  583ERGO    R5 9046   8.892   9.697   9.480 -0.1534  0.2789  0.0536
  583ERGO    C1 9047   8.802   9.537   9.145  0.1104  0.2600 -0.0103
  583ERGO    C2 9048   8.841   9.607   8.769  0.2696 -0.2865  0.0138
  584ERGO   ROH 9049   2.372   2.271   9.960  0.1180 -0.0112 -0.0768
  584ERGO    R1 9050   2.252   2.259   9.704 -0.0100  0.0406 -0.0203
  584ERGO    R2 9051   2.239   2.478   9.535  0.0843  0.0250 -0.0489
  584ERGO    R3 9052   2.359   2.309   9.360 -0.1277 -0.0991 -0.0782
  584ERGO    R4 9053   2.228   2.510   9.192  0.0875  0.0723 -0.0445
  584ERGO    R5 9054   2.205   2.294   9.177 -0.1652  0.0977 -0.0645
  584ERGO    C1 9055   2.335   2.371   8.826 -0.1098 -0.0166 -0.0694
  584ERGO    C2 9056   2.380   2.413   8.574  0.0920  0.3639 -0.0636
  585ERGO   ROH 9057  10.495   1.418   9.898  0.0889  0.2494 -0.1317
  585ERGO    R1 9058  10.386   1.536   9.666  0.0367  0.2199 -0.1218
  585ERGO    R2 9059  10.491   1.763   9.551  0.0227  0.1918 -0.1851
  585ERGO    R3 9060  10.499   1.608   9.327 -0.0482  0.1578 -0.1646
  585ERGO    R4 9061  10.546   1.882   9.231  0.2207  0.1116 -0.1827
  585ERGO    R5 9062  10.394   1.743   9.159  0.1167  0.2344 -0.2108
  585ERGO    C1 9063  10.585   1.805   8.835  0.2696  0.0330 -0.1618
  585ERGO    C2 9064  10.613   2.105   8.595  0.0689 -0.2253  0.0981
  586ERGO   ROH 9065  10.409  18.164   9.910 -0.3753  0.3084 -0.0234
  586ERGO    R1 9066  10.488  17.997   9.695 -0.0835  0.2934  0.0926
  586ERGO    R2 9067  10.320  17.936   9.485  0.0667 -0.0431  0.0711
  586ERGO    R3 9068  10.526  18.031   9.335 -0.0074  0.1444  0.0844
  586ERGO    R4 9069  10.355  17.889   9.144  0.0636  0.0844  0.0520
  586ERGO    R5 9070  10.568  17.858   9.175  0.0931  0.2169  0.0256
  586ERGO    C1 9071  10.568  17.951   8.805 -0.0078  0.3346  0.0535
  586ERGO    C2 9072  10.733  18.004   8.432  0.0534 -0.2558 -0.0566
  587ERGO   ROH 9073   5.168  18.378  10.148  0.1173 -0.1482 -0.0609
  587ERGO    R1 9074   5.085  18.537   9.930  0.0790 -0.1393 -0.0401
  587ERGO    R2 9075   5.223  18.763   9.849  0.0019 -0.0714  0.0151
  587ERGO    R3 9076   5.223  18.637   9.608  0.0744 -0.0275 -0.0080
  587ERGO    R4 9077   5.262  18.921   9.544 -0.1388  0.0151  0.0416
  587ERGO    R5 9078   5.108  18.789   9.462 -0.0496 -0.0831  0.0300
  587ERGO    C1 9079   5.283  18.895   9.140 -0.1526  0.1066  0.0354
  587ERGO    C2 9080   5.375  18.885   8.778  0.0638 -0.0746 -0.1461
  588ERGO   ROH 9081  12.346  17.352  10.108  0.2542 -0.3264  0.1894
  588ERGO    R1 9082  12.331  17.338   9.826  0.0881 -0.0767  0.1829
  588ERGO    R2 9083  12.543  17.252   9.671 -0.0198  0.0211 -0.0178
  588ERGO    R3 9084  12.359  17.078   9.572 -0.1040  0.1426 -0.0665
  588ERGO    R4 9085  12.528  17.147   9.342  0.0415 -0.0198 -0.0082
  588ERGO    R5 9086  12.310  17.161   9.353  0.0499  0.1421 -0.1009
  588ERGO    C1 9087  12.346  16.921   9.058 -0.0018  0.0703 -0.0484
  588ERGO    C2 9088  12.304  16.987   8.742 -0.0240 -0.1837 -0.1708
  589ERGO   ROH 9089  11.277   8.513  10.212 -0.1508 -0.0385  0.0424
  589ERGO    R1 9090  11.217   8.472   9.938 -0.0694 -0.0131  0.0199
  589ERGO    R2 9091  11.189   8.681   9.759 -0.0784  0.0080  0.0427
  589ERGO    R3 9092  11.377   8.543   9.619 -0.0048  0.0783  0.0728
  589ERGO    R4 9093  11.219   8.682   9.415  0.0170  0.0693  0.0515
  589ERGO    R5 9094  11.262   8.469   9.423  0.0692  0.0800  0.0293
  589ERGO    C1 9095  11.412   8.554   9.083  0.1416  0.1711  0.0846
  589ERGO    C2 9096  11.336   8.490   8.753  0.0276  0.0894  0.3475
  590ERGO   ROH 9097   8.395  13.099  10.252 -0.0204 -0.1551 -0.0316
  590ERGO    R1 9098   8.448  13.271  10.034 -0.1646 -0.1724 -0.0809
  590ERGO    R2 9099   8.697  13.289   9.915 -0.1527  0.0676 -0.0267
  590ERGO    R3 9100   8.557  13.234   9.689 -0.0402 -0.1761 -0.0411
  590ERGO    R4 9101   8.785  13.394   9.598 -0.1085 -0.1040 -0.0730
  590ERGO    R5 9102   8.574  13.434   9.558 -0.1170 -0.2583 -0.1771
  590ERGO    C1 9103   8.705  13.405   9.201  0.0229 -0.4326 -0.1136
  590ERGO    C2 9104   8.746  13.476   8.849  0.4300 -0.0673 -0.2219
  591ERGO   ROH 9105   5.294   1.764   9.998 -0.2007  0.0004 -0.0428
  591ERGO    R1 9106   5.369   1.903   9.763  0.0791  0.0064  0.0461
  591ERGO    R2 9107   5.600   1.844   9.623 -0.0809 -0.4427 -0.0409
  591ERGO    R3 9108   5.428   1.817   9.414 -0.1980  0.1224 -0.0329
  591ERGO    R4 9109   5.687   1.873   9.289 -0.1014 -0.2620 -0.0319
  591ERGO    R5 9110   5.501   1.980   9.255  0.0942  0.1559  0.1242
  591ERGO    C1 9111   5.576   1.864   8.899 -0.2233  0.3738 -0.0193
  591ERGO    C2 9112   5.685   1.753   8.536 -0.3805  0.2079  0.1197
  592ERGO   ROH 9113   1.397   0.312  10.157 -0.2407  0.1382  0.1895
  592ERGO    R1 9114   1.283   0.489   9.968 -0.1510  0.1070  0.1060
  592ERGO    R2 9115   1.398   0.536   9.721 -0.0924 -0.0176  0.1096
  592ERGO    R3 9116   1.152   0.466   9.629 -0.0987  0.0287  0.0905
  592ERGO    R4 9117   1.307   0.526   9.387 -0.0631 -0.0106  0.1013
  592ERGO    R5 9118   1.114   0.612   9.443 -0.0518  0.0308  0.0814
  592ERGO    C1 9119   1.023   0.455   9.107 -0.0520  0.0369  0.0785
  592ERGO    C2 9120   1.097   0.400   8.692 -0.2365  0.0016 -0.0171
  593ERGO   ROH 9121   6.171  13.062  10.112 -0.1170 -0.1226  0.0683
  593ERGO    R1 9122   6.232  12.924   9.873 -0.1198 -0.0705  0.0381
  593ERGO    R2 9123   6.071  12.937   9.648 -0.1068 -0.0002  0.0364
  593ERGO    R3 9124   6.303  13.012   9.527 -0.0943  0.0043  0.0613
  593ERGO    R4 9125   6.132  12.919   9.308  0.0165 -0.2345  0.0681
  593ERGO    R5 9126   6.334  12.851   9.353  0.0324 -0.1190  0.1923
  593ERGO    C1 9127   6.384  12.979   8.997  0.1000 -0.3666  0.1100
  593ERGO    C2 9128   6.363  13.117   8.688  0.0410 -0.0279  0.0048
  594ERGO   ROH 9129  16.566   9.144   9.632  0.0953 -0.1649 -0.1004
  594ERGO    R1 9130  16.539   9.083   9.357 -0.0213 -0.2006 -0.0813
  594ERGO    R2 9131  16.294   9.078   9.230 -0.0643 -0.0971 -0.0047
  594ERGO    R3 9132  16.415   9.252   9.059 -0.0260 -0.1898 -0.0731
  594ERGO    R4 9133  16.182   9.153   8.911 -0.2069  0.0162  0.0709
  594ERGO    R5 9134  16.389   9.151   8.844 -0.2506 -0.1561 -0.0635
  594ERGO    C1 9135  16.230   9.359   8.566 -0.2542 -0.0047  0.0506
  594ERGO    C2 9136  15.992   9.432   8.261 -0.2200  0.2470 -0.0580
  595ERGO   ROH 9137  14.302   9.472   9.842 -0.1094 -0.0841 -0.0184
  595ERGO    R1 9138  14.288   9.413   9.566 -0.0642 -0.0375 -0.0297
  595ERGO    R2 9139  14.082   9.266   9.456 -0.0010 -0.0829 -0.0800
  595ERGO    R3 9140  14.057   9.481   9.292 -0.0569 -0.0671 -0.0412
  595ERGO    R4 9141  13.989   9.251   9.124  0.0781 -0.0568 -0.1044
  595ERGO    R5 9142  14.138   9.404   9.080  0.0189  0.0112 -0.0390
  595ERGO    C1 9143  13.911   9.444   8.776  0.0714 -0.0268 -0.0820
  595ERGO    C2 9144  13.599   9.269   8.539 -0.0612  0.1121 -0.1032
  596ERGO   ROH 9145  12.862   0.355   9.686  0.1900  0.0153  0.0374
  596ERGO    R1 9146  12.981   0.226   9.464  0.1914 -0.0446  0.0716
  596ERGO    R2 9147  13.000  -0.049   9.443 -0.0206 -0.0609  0.0358
  596ERGO    R3 9148  12.875  -0.007   9.206  0.1214  0.0819 -0.0151
  596ERGO    R4 9149  13.035  -0.249   9.164 -0.0606 -0.0482  0.0225
  596ERGO    R5 9150  13.038  -0.069   9.041  0.1462 -0.0291  0.0505
  596ERGO    C1 9151  12.938  -0.327   8.779  0.0496  0.0935 -0.0330
  596ERGO    C2 9152  12.825  -0.563   8.516  0.3209 -0.1040 -0.2449
  597ERGO   ROH 9153   0.022   3.910   9.943 -0.2138  0.1039 -0.0207
  597ERGO    R1 9154   0.199   3.927   9.723 -0.1932  0.2097  0.0033
  597ERGO    R2 9155   0.279   3.705   9.580  0.0130  0.2471  0.0566
  597ERGO    R3 9156   0.188   3.848   9.368 -0.0754  0.1330  0.0164
  597ERGO    R4 9157   0.459   3.766   9.291 -0.0861  0.1462 -0.0274
  597ERGO    R5 9158   0.380   3.969   9.291 -0.1208  0.1317 -0.0984
  597ERGO    C1 9159   0.478   3.936   8.924 -0.2268 -0.0196 -0.1139
  597ERGO    C2 9160   0.539   4.058   8.582  0.0285 -0.0403  0.1990
  598ERGO   ROH 9161   4.306   3.458   9.940  0.0411  0.2525  0.1555
  598ERGO    R1 9162   4.201   3.554   9.695 -0.0345 -0.0136  0.0803
  598ERGO    R2 9163   4.251   3.808   9.601 -0.3726  0.0209 -0.0289
  598ERGO    R3 9164   4.334   3.675   9.379 -0.1219  0.0271  0.0593
  598ERGO    R4 9165   4.289   3.950   9.288 -0.3191 -0.0441 -0.0516
  598ERGO    R5 9166   4.204   3.768   9.201 -0.1034 -0.1475 -0.0460
  598ERGO    C1 9167   4.389   3.907   8.898 -0.0527 -0.0761  0.0182
  598ERGO    C2 9168   4.444   3.981   8.643  0.1980  0.4440  0.1598
  599ERGO   ROH 9169   4.679  15.766   9.752  0.1405 -0.1061  0.0578
  599ERGO    R1 9170   4.829  15.712   9.519  0.1823 -0.1758  0.1001
  599ERGO    R2 9171   4.720  15.728   9.265  0.2351 -0.2236  0.0738
  599ERGO    R3 9172   4.929  15.895   9.221  0.2607 -0.2549  0.0771
  599ERGO    R4 9173   4.899  15.749   8.969  0.1110 -0.1070  0.0065
  599ERGO    R5 9174   5.081  15.768   9.087  0.1681 -0.2216 -0.0613
  599ERGO    C1 9175   5.199  15.919   8.757  0.0628 -0.0686 -0.0298
  599ERGO    C2 9176   5.318  15.936   8.440  0.0244  0.0341  0.3414
  600ERGO   ROH 9177   1.175  14.894   9.952 -0.4128  0.2049 -0.0978
  600ERGO    R1 9178   1.325  14.830   9.721 -0.2835  0.0858  0.0165
  600ERGO    R2 9179   1.256  14.623   9.551 -0.2483  0.0599  0.0273
  600ERGO    R3 9180   1.266  14.818   9.362 -0.0569  0.0080 -0.0184
  600ERGO    R4 9181   1.298  14.567   9.212 -0.2619 -0.0445  0.0425
  600ERGO    R5 9182   1.430  14.741   9.205 -0.1113 -0.1661  0.0149
  600ERGO    C1 9183   1.331  14.717   8.838 -0.0901 -0.1542  0.0086
  600ERGO    C2 9184   1.379  14.685   8.454  0.0707  0.0858  0.2026
  601ERGO   ROH 9185  13.645   3.463   9.520  0.0064  0.1187  0.0226
  601ERGO    R1 9186  13.668   3.467   9.238  0.1449  0.1262  0.0325
  601ERGO    R2 9187  13.456   3.407   9.070  0.3120 -0.2049 -0.0745
  601ERGO    R3 9188  13.514   3.650   8.963  0.0098 -0.1226 -0.0584
  601ERGO    R4 9189  13.425   3.487   8.735  0.0968 -0.1720 -0.0475
  601ERGO    R5 9190  13.612   3.599   8.750 -0.0192  0.0242 -0.1040
  601ERGO    C1 9191  13.461   3.761   8.440 -0.3122 -0.0755 -0.0167
  601ERGO    C2 9192  13.326   3.646   8.215  0.0906  0.2128 -0.0905
  602ERGO   ROH 9193   1.902   8.516   9.882  0.0448  0.0190  0.2645
  602ERGO    R1 9194   1.791   8.596   9.635  0.0193  0.0246  0.2773
  602ERGO    R2 9195   1.945   8.684   9.424 -0.0031  0.0646  0.2730
  602ERGO    R3 9196   1.812   8.490   9.288  0.0158  0.0552  0.2689
  602ERGO    R4 9197   1.951   8.644   9.080  0.1504 -0.0519  0.2886
  602ERGO    R5 9198   1.738   8.597   9.087  0.1396  0.0042  0.1986
  602ERGO    C1 9199   1.829   8.437   8.753  0.2576 -0.1286  0.2938
  602ERGO    C2 9200   1.822   8.486   8.409  0.2706  0.0359  0.2407
  603ERGO   ROH 9201  15.194  16.332   9.965 -0.1954 -0.2759  0.0665
  603ERGO    R1 9202  15.308  16.318   9.706 -0.0894 -0.0415  0.0991
  603ERGO    R2 9203  15.163  16.243   9.483  0.1208 -0.3359  0.0609
  603ERGO    R3 9204  15.255  16.479   9.384 -0.3259 -0.1402  0.0852
  603ERGO    R4 9205  15.215  16.310   9.148  0.2485 -0.3106  0.0841
  603ERGO    R5 9206  15.397  16.416   9.202 -0.0213  0.1247  0.2167
  603ERGO    C1 9207  15.331  16.571   8.860 -0.0965 -0.1125  0.1204
  603ERGO    C2 9208  15.150  16.586   8.569  0.2030 -0.2172 -0.2564
  604ERGO   ROH 9209  18.316   9.802   9.851 -0.5139 -0.0722  0.1139
  604ERGO    R1 9210  18.187   9.899   9.619 -0.2995 -0.1093 -0.0225
  604ERGO    R2 9211  18.307  10.077   9.445 -0.1863 -0.0372  0.1355
  604ERGO    R3 9212  18.245   9.888   9.260  0.1081 -0.0436  0.0352
  604ERGO    R4 9213  18.290  10.132   9.104 -0.0538  0.0632  0.1430
  604ERGO    R5 9214  18.113  10.005   9.097  0.0746 -0.1194  0.0030
  604ERGO    C1 9215  18.222   9.987   8.732  0.2999  0.1157  0.0531
  604ERGO    C2 9216  18.164   9.916   8.419  0.0087 -0.0635 -0.1521
  605ERGO   ROH 9217  13.199  14.288   9.924 -0.0874 -0.1979  0.0431
  605ERGO    R1 9218  13.186  14.257   9.643 -0.1101 -0.1151  0.0348
  605ERGO    R2 9219  13.388  14.341   9.475 -0.2032  0.1021  0.0270
  605ERGO    R3 9220  13.377  14.084   9.386 -0.0139  0.1210 -0.0556
  605ERGO    R4 9221  13.579  14.213   9.216 -0.1005  0.3214 -0.0075
  605ERGO    R5 9222  13.404  14.102   9.149 -0.0178  0.2157 -0.0490
  605ERGO    C1 9223  13.680  13.898   8.983  0.1371  0.4669 -0.1053
  605ERGO    C2 9224  13.845  13.837   8.695  0.1633 -0.1039 -0.0250
  606ERGO   ROH 9225   9.468  11.875   9.911 -0.0173  0.0830 -0.1182
  606ERGO    R1 9226   9.525  11.812   9.641 -0.0292  0.3890 -0.1934
  606ERGO    R2 9227   9.464  11.567   9.529  0.5871  0.2618 -0.2676
  606ERGO    R3 9228   9.334  11.720   9.345  0.0074 -0.0006 -0.1037
  606ERGO    R4 9229   9.373  11.462   9.212  0.5964  0.1260 -0.2278
  606ERGO    R5 9230   9.432  11.658   9.136  0.0125  0.3342 -0.2138
  606ERGO    C1 9231   9.199  11.545   8.855  0.0576 -0.1993 -0.0508
  606ERGO    C2 9232   8.866  11.407   8.726 -0.0883 -0.0152 -0.3409
  607ERGO   ROH 9233   2.159   6.232   9.686  0.1196 -0.2819 -0.0310
  607ERGO    R1 9234   2.174   6.359   9.433 -0.1656 -0.1171  0.0299
  607ERGO    R2 9235   2.297   6.242   9.215  0.1362  0.2751 -0.0219
  607ERGO    R3 9236   2.058   6.289   9.095  0.0164 -0.2376 -0.0091
  607ERGO    R4 9237   2.245   6.251   8.874  0.1412  0.3515 -0.0205
  607ERGO    R5 9238   2.112   6.421   8.903 -0.2860  0.0186  0.0729
  607ERGO    C1 9239   1.990   6.301   8.562  0.0318 -0.0854 -0.0078
  607ERGO    C2 9240   1.754   6.355   8.253  0.0859  0.1274  0.1838
  608ERGO   ROH 9241  11.891   0.153   9.624 -0.0298 -0.0799 -0.0187
  608ERGO    R1 9242  11.889   0.062   9.356  0.0025  0.0643 -0.0684
  608ERGO    R2 9243  11.861   0.234   9.141  0.1181  0.1902  0.0160
  608ERGO    R3 9244  12.090   0.116   9.057  0.0955  0.1508  0.0086
  608ERGO    R4 9245  11.969   0.225   8.813  0.0396  0.0585 -0.0070
  608ERGO    R5 9246  12.033   0.019   8.845  0.0420  0.0684  0.0595
  608ERGO    C1 9247  12.247   0.108   8.543 -0.0273 -0.0552 -0.0274
  608ERGO    C2 9248  12.324   0.333   8.213 -0.0204  0.0556  0.0470
  609ERGO   ROH 9249   4.568  11.485  10.110 -0.0388  0.1167  0.0100
  609ERGO    R1 9250   4.399  11.477   9.883 -0.0860  0.0813  0.0459
  609ERGO    R2 9251   4.266  11.700   9.789 -0.0166  0.0922 -0.0280
  609ERGO    R3 9252   4.389  11.635   9.556 -0.0868 -0.0607 -0.0233
  609ERGO    R4 9253   4.165  11.807   9.476  0.0707  0.1441 -0.0383
  609ERGO    R5 9254   4.209  11.608   9.399 -0.1219  0.0875 -0.0111
  609ERGO    C1 9255   4.222  11.808   9.075  0.0555  0.0308 -0.0400
  609ERGO    C2 9256   4.125  11.897   8.836 -0.1244 -0.1160  0.1527
  610ERGO   ROH 9257   9.866  15.074   9.376  0.3229  0.2915 -0.2821
  610ERGO    R1 9258   9.849  14.934   9.131  0.2261  0.3222 -0.2941
  610ERGO    R2 9259  10.009  14.994   8.914  0.2904  0.2100 -0.2818
  610ERGO    R3 9260  10.070  14.729   8.928  0.0770  0.1595 -0.2929
  610ERGO    R4 9261  10.066  14.790   8.641 -0.0747  0.1207 -0.2959
  610ERGO    R5 9262   9.955  14.632   8.742 -0.1366  0.2292 -0.1976
  610ERGO    C1 9263  10.157  14.423   8.494 -0.4877  0.0212 -0.3145
  610ERGO    C2 9264  10.400  14.164   8.354  0.5072  0.0562 -0.0195
  611ERGO   ROH 9265   8.306   1.827   9.778 -0.0332  0.0871 -0.0629
  611ERGO    R1 9266   8.320   1.712   9.519  0.0442  0.0685 -0.0503
  611ERGO    R2 9267   8.101   1.693   9.352  0.0725 -0.0403 -0.0718
  611ERGO    R3 9268   8.264   1.822   9.177  0.0358  0.0102 -0.0689
  611ERGO    R4 9269   8.068   1.685   9.008 -0.0038  0.0466 -0.0667
  611ERGO    R5 9270   8.285   1.671   8.993 -0.0019  0.0543 -0.1137
  611ERGO    C1 9271   8.202   1.802   8.644 -0.0829  0.1446 -0.0610
  611ERGO    C2 9272   8.137   1.934   8.326 -0.0012 -0.6077 -0.1119
  612ERGO   ROH 9273   7.831   6.440  10.018 -0.1488  0.1094 -0.1219
  612ERGO    R1 9274   7.844   6.414   9.736 -0.0889  0.0462 -0.1134
  612ERGO    R2 9275   7.929   6.618   9.571 -0.1364  0.0381 -0.1468
  612ERGO    R3 9276   8.102   6.430   9.480 -0.0493  0.0811 -0.0720
  612ERGO    R4 9277   8.056   6.606   9.250  0.1333  0.1658 -0.0483
  612ERGO    R5 9278   8.032   6.389   9.255  0.1402  0.1612 -0.1483
  612ERGO    C1 9279   8.292   6.422   8.978  0.3723  0.2805  0.0792
  612ERGO    C2 9280   8.297   6.512   8.681  0.1289 -0.1162 -0.0350
  613ERGO   ROH 9281  18.224   7.977   9.967  0.1597  0.0732 -0.0746
  613ERGO    R1 9282  18.225   7.747   9.801  0.0429  0.0345 -0.0230
  613ERGO    R2 9283  18.004   7.669   9.655  0.0018  0.1128 -0.0051
  613ERGO    R3 9284  18.179   7.677   9.447  0.0062 -0.0222 -0.0069
  613ERGO    R4 9285  17.942   7.546   9.338  0.0360 -0.1594  0.0913
  613ERGO    R5 9286  18.146   7.470   9.332  0.0508 -0.1241  0.1601
  613ERGO    C1 9287  18.070   7.483   8.958  0.0600 -0.4446  0.1455
  613ERGO    C2 9288  17.988   7.541   8.552 -0.4949 -0.0351 -0.0969
  614ERGO   ROH 9289   6.251  10.854  10.230  0.1743  0.3308 -0.1532
  614ERGO    R1 9290   6.338  10.879   9.962  0.1128  0.2717 -0.1792
  614ERGO    R2 9291   6.389  10.661   9.800  0.1615  0.2345 -0.1147
  614ERGO    R3 9292   6.214  10.785   9.633  0.0831  0.1136 -0.1236
  614ERGO    R4 9293   6.354  10.592   9.463  0.1440  0.1291 -0.0916
  614ERGO    R5 9294   6.333  10.806   9.426  0.0451  0.1107 -0.1460
  614ERGO    C1 9295   6.170  10.669   9.110  0.0602 -0.0458 -0.0866
  614ERGO    C2 9296   6.113  10.511   8.799 -0.0108 -0.1630 -0.2939
  615ERGO   ROH 9297   6.832   8.648  10.293 -0.1352 -0.2258  0.0600
  615ERGO    R1 9298   6.927   8.706  10.033 -0.2791  0.0614  0.0677
  615ERGO    R2 9299   7.063   8.521   9.879  0.1131  0.3925 -0.0015
  615ERGO    R3 9300   6.871   8.580   9.696 -0.0385  0.0364  0.0351
  615ERGO    R4 9301   7.080   8.445   9.542  0.1971  0.4348 -0.0072
  615ERGO    R5 9302   6.992   8.639   9.499 -0.1828  0.2764  0.0144
  615ERGO    C1 9303   6.910   8.456   9.175  0.1035  0.1250  0.0238
  615ERGO    C2 9304   7.025   8.468   8.809  0.1781 -0.0280 -0.0367
  616ERGO   ROH 9305  17.907   2.431   9.757  0.1024 -0.0532  0.0161
  616ERGO    R1 9306  17.985   2.410   9.486  0.0708  0.0545 -0.0022
  616ERGO    R2 9307  17.836   2.271   9.298  0.1517 -0.0437  0.0041
  616ERGO    R3 9308  17.848   2.506   9.163 -0.0723 -0.0110  0.0384
  616ERGO    R4 9309  17.860   2.299   8.955  0.2646  0.0257  0.0171
  616ERGO    R5 9310  18.001   2.463   8.983  0.0574  0.1934  0.0975
  616ERGO    C1 9311  17.884   2.536   8.627  0.1200  0.0968  0.0570
  616ERGO    C2 9312  17.877   2.625   8.265 -0.0414 -0.1439  0.0648
  617ERGO   ROH 9313  16.725   6.889  10.552 -0.1938 -0.2980  0.1157
  617ERGO    R1 9314  16.808   6.741  10.326 -0.2645 -0.4093  0.1624
  617ERGO    R2 9315  16.636   6.579  10.182 -0.5249  0.1610 -0.1942
  617ERGO    R3 9316  16.724   6.728   9.972  0.2348  0.0479  0.0105
  617ERGO    R4 9317  16.675   6.463   9.858 -0.6652  0.2770 -0.2540
  617ERGO    R5 9318  16.859   6.578   9.844 -0.1879 -0.3729  0.0181
  617ERGO    C1 9319  16.780   6.536   9.474 -0.0336  0.2384 -0.0965
  617ERGO    C2 9320  16.810   6.522   9.192  0.0029  0.2609 -0.0139
  618ERGO   ROH 9321   6.470   8.528  10.036  0.1946  0.2056 -0.0268
  618ERGO    R1 9322   6.424   8.357   9.815  0.1195  0.0913  0.0774
  618ERGO    R2 9323   6.247   8.419   9.613  0.0245 -0.0334  0.1301
  618ERGO    R3 9324   6.463   8.375   9.453 -0.0449 -0.0852  0.0473
  618ERGO    R4 9325   6.239   8.416   9.267 -0.0793  0.1992  0.1279
  618ERGO    R5 9326   6.376   8.246   9.271 -0.1943  0.0912 -0.0169
  618ERGO    C1 9327   6.437   8.374   8.916 -0.2049  0.2861  0.0490
  618ERGO    C2 9328   6.485   8.426   8.572 -0.0686  0.1005  0.0401
  619ERGO   ROH 9329   7.263   9.905  10.583  0.0658  0.0210  0.0677
  619ERGO    R1 9330   7.233   9.769  10.337  0.1084  0.1359 -0.0013
  619ERGO    R2 9331   7.434   9.613  10.228  0.0891  0.1011  0.0134
  619ERGO    R3 9332   7.239   9.424  10.223  0.0141  0.1800 -0.1434
  619ERGO    R4 9333   7.484   9.281  10.148  0.0440  0.0520  0.1836
  619ERGO    R5 9334   7.296   9.284  10.037  0.1699  0.0931 -0.0328
  619ERGO    C1 9335   7.330   8.909  10.096 -0.0528  0.0974  0.1355
  619ERGO    C2 9336   7.391   8.587  10.260 -0.2686 -0.0566 -0.2761
  620ERGO   ROH 9337  10.396   5.141  10.100 -0.1477 -0.0047 -0.0595
  620ERGO    R1 9338  10.531   5.229   9.868 -0.0500 -0.0364 -0.0154
  620ERGO    R2 9339  10.731   5.081   9.746 -0.2153 -0.2008 -0.0931
  620ERGO    R3 9340  10.574   5.111   9.526 -0.1870  0.0885 -0.0767
  620ERGO    R4 9341  10.841   5.057   9.420 -0.2353 -0.0921 -0.1079
  620ERGO    R5 9342  10.713   5.225   9.369 -0.0785  0.0618 -0.0007
  620ERGO    C1 9343  10.758   5.071   9.023 -0.2203  0.2429 -0.1011
  620ERGO    C2 9344  10.827   4.832   8.754 -0.0637  0.2782 -0.0820
  621ERGO   ROH 9345  13.157   5.414   9.848 -0.0776 -0.2170  0.1240
  621ERGO    R1 9346  13.272   5.455   9.593  0.0262 -0.0409  0.1964
  621ERGO    R2 9347  13.235   5.280   9.383  0.3544 -0.0540  0.1417
  621ERGO    R3 9348  13.151   5.503   9.253  0.1669 -0.1286  0.1333
  621ERGO    R4 9349  13.232   5.318   9.039  0.3815 -0.0518  0.1427
  621ERGO    R5 9350  13.301   5.523   9.067  0.1838  0.0155  0.1612
  621ERGO    C1 9351  13.151   5.551   8.717  0.2212 -0.1205  0.1353
  621ERGO    C2 9352  13.202   5.521   8.287 -0.1365 -0.1231  0.0937
  622ERGO   ROH 9353  15.288   8.306   9.527  0.3110  0.2151 -0.1925
  622ERGO    R1 9354  15.122   8.165   9.346  0.1968  0.1420 -0.0329
  622ERGO    R2 9355  15.043   8.269   9.103  0.0216  0.0552 -0.0170
  622ERGO    R3 9356  15.148   8.038   9.006 -0.0261  0.0314 -0.0107
  622ERGO    R4 9357  14.969   8.132   8.795  0.0022  0.0679 -0.0174
  622ERGO    R5 9358  14.968   7.935   8.888 -0.0440  0.0699 -0.0154
  622ERGO    C1 9359  15.025   7.836   8.524 -0.0539  0.0529 -0.0115
  622ERGO    C2 9360  15.256   7.778   8.287 -0.0502 -0.0553 -0.0073
  623ERGO   ROH 9361  10.407  11.503  10.081  0.1666 -0.1626  0.0535
  623ERGO    R1 9362  10.400  11.602   9.816  0.1672 -0.0538  0.0937
  623ERGO    R2 9363  10.614  11.577   9.643  0.1143 -0.1162  0.0356
  623ERGO    R3 9364  10.428  11.463   9.481  0.0069  0.0606  0.0321
  623ERGO    R4 9365  10.584  11.637   9.304  0.2208 -0.1399  0.0219
  623ERGO    R5 9366  10.367  11.637   9.328  0.2165  0.1027 -0.0046
  623ERGO    C1 9367  10.392  11.565   8.954  0.1820  0.0122  0.0106
  623ERGO    C2 9368  10.246  11.556   8.574  0.0209 -0.0298 -0.1019
  624ERGO   ROH 9369   3.031  13.318  10.092  0.0817  0.1228  0.0852
  624ERGO    R1 9370   3.237  13.281   9.902  0.0033  0.1449 -0.0059
  624ERGO    R2 9371   3.311  13.031   9.809  0.2389  0.1160  0.2420
  624ERGO    R3 9372   3.265  13.143   9.566 -0.0581 -0.2205  0.1337
  624ERGO    R4 9373   3.484  12.955   9.520  0.3437  0.1893  0.2859
  624ERGO    R5 9374   3.482  13.166   9.469 -0.1189  0.1464  0.0706
  624ERGO    C1 9375   3.542  13.017   9.124  0.1259 -0.0841  0.2098
  624ERGO    C2 9376   3.505  13.074   8.826  0.1051 -0.1207  0.0735
  625ERGO   ROH 9377  10.203   6.371  10.214 -0.0480 -0.0134  0.0486
  625ERGO    R1 9378  10.064   6.534  10.029 -0.1147 -0.1484 -0.0213
  625ERGO    R2 9379  10.181   6.750   9.904 -0.3020  0.0549  0.1509
  625ERGO    R3 9380  10.098   6.625   9.678  0.0687  0.0065  0.0342
  625ERGO    R4 9381  10.210   6.880   9.585 -0.2354  0.2179  0.2214
  625ERGO    R5 9382  10.011   6.801   9.541 -0.0883 -0.0696  0.0314
  625ERGO    C1 9383  10.148   6.837   9.187  0.1515  0.2674  0.1529
  625ERGO    C2 9384  10.266   7.046   8.912  0.1719  0.2075 -0.1509
  626ERGO   ROH 9385   6.816   7.116   9.896 -0.0687  0.3123  0.0395
  626ERGO    R1 9386   6.732   7.018   9.644 -0.1150  0.2700  0.0701
  626ERGO    R2 9387   6.660   7.184   9.437  0.0851  0.2438 -0.0287
  626ERGO    R3 9388   6.847   7.042   9.300 -0.0208 -0.0051  0.0810
  626ERGO    R4 9389   6.656   7.131   9.095  0.2380  0.2768 -0.0356
  626ERGO    R5 9390   6.721   6.926   9.131 -0.0703  0.1827 -0.0096
  626ERGO    C1 9391   6.829   6.966   8.768  0.2276  0.0623  0.0634
  626ERGO    C2 9392   6.943   7.054   8.436 -0.2546 -0.1773  0.1392
  627ERGO   ROH 9393  12.886   2.797   9.771 -0.2974  0.0760  0.0895
  627ERGO    R1 9394  13.001   2.705   9.529 -0.3093 -0.1847  0.1782
  627ERGO    R2 9395  12.855   2.573   9.335 -0.4299  0.0139  0.1267
  627ERGO    R3 9396  12.954   2.769   9.174  0.0023 -0.1879  0.1345
  627ERGO    R4 9397  12.832   2.575   8.990 -0.1026 -0.0823  0.1012
  627ERGO    R5 9398  13.036   2.651   8.982  0.0161 -0.3785  0.2577
  627ERGO    C1 9399  12.911   2.760   8.638  0.4937 -0.3278  0.0937
  627ERGO    C2 9400  12.938   2.782   8.291 -0.0771 -0.0662 -0.0535
  628ERGO   ROH 9401   2.752   8.088   9.625  0.0424 -0.1396  0.0074
  628ERGO    R1 9402   2.700   8.062   9.348 -0.0674 -0.0579  0.0185
  628ERGO    R2 9403   2.700   8.278   9.175 -0.0308 -0.0171  0.0600
  628ERGO    R3 9404   2.879   8.127   9.038 -0.1446 -0.0719 -0.0275
  628ERGO    R4 9405   2.744   8.285   8.833 -0.0461  0.1139  0.0614
  628ERGO    R5 9406   2.766   8.069   8.835 -0.1930  0.1022 -0.0465
  628ERGO    C1 9407   2.939   8.148   8.504 -0.1617  0.1388 -0.0198
  628ERGO    C2 9408   2.962   7.978   8.149  0.0525  0.0170  0.1477
  629ERGO   ROH 9409   8.271   3.694   9.650  0.0488  0.0319  0.0641
  629ERGO    R1 9410   8.243   3.600   9.384 -0.0815 -0.0084  0.0911
  629ERGO    R2 9411   8.007   3.625   9.242 -0.1013  0.1254  0.1417
  629ERGO    R3 9412   8.168   3.745   9.059 -0.0587 -0.0272  0.0779
  629ERGO    R4 9413   7.921   3.686   8.913 -0.1407  0.1318  0.1535
  629ERGO    R5 9414   8.124   3.629   8.855 -0.1987 -0.0295  0.1100
  629ERGO    C1 9415   8.023   3.834   8.549 -0.1236 -0.0077  0.1004
  629ERGO    C2 9416   7.928   4.050   8.305  0.0220 -0.2984  0.2970
  630ERGO   ROH 9417   3.690  14.932   9.582 -0.0456 -0.0214  0.0412
  630ERGO    R1 9418   3.577  14.869   9.330 -0.0643  0.0556  0.0312
  630ERGO    R2 9419   3.468  15.061   9.164  0.0824  0.1278  0.0244
  630ERGO    R3 9420   3.641  14.956   8.983  0.0255  0.0118  0.0349
  630ERGO    R4 9421   3.406  15.032   8.826  0.0378  0.0847  0.0356
  630ERGO    R5 9422   3.502  14.836   8.830 -0.0450  0.0383  0.0718
  630ERGO    C1 9423   3.532  14.916   8.458 -0.0416 -0.0494  0.0522
  630ERGO    C2 9424   3.480  14.946   8.144  0.0322  0.0618 -0.1959
  631ERGO   ROH 9425   5.240   9.044   9.537  0.0196  0.2866 -0.0377
  631ERGO    R1 9426   5.462   9.017   9.363 -0.0395  0.0833 -0.0847
  631ERGO    R2 9427   5.437   8.927   9.103 -0.1795  0.1226 -0.0907
  631ERGO    R3 9428   5.568   9.158   9.045  0.0302  0.0051 -0.0949
  631ERGO    R4 9429   5.571   9.008   8.794  0.0030 -0.0406 -0.0559
  631ERGO    R5 9430   5.743   9.093   8.896  0.0312 -0.1610 -0.0152
  631ERGO    C1 9431   5.771   9.272   8.561  0.3061 -0.2459 -0.0395
  631ERGO    C2 9432   6.063   9.337   8.418 -0.2443 -0.0194 -0.1586
  632ERGO   ROH 9433   3.680   6.092   9.439  0.0383  0.0427 -0.0046
  632ERGO    R1 9434   3.678   6.111   9.156  0.0602  0.1416  0.0003
  632ERGO    R2 9435   3.873   5.994   8.997 -0.0596 -0.0184 -0.0412
  632ERGO    R3 9436   3.658   5.880   8.876 -0.1884  0.2537 -0.0755
  632ERGO    R4 9437   3.860   5.901   8.665 -0.1413  0.0213 -0.0484
  632ERGO    R5 9438   3.656   5.975   8.657 -0.0484  0.2725 -0.0662
  632ERGO    C1 9439   3.652   5.739   8.357 -0.3098  0.2997 -0.0847
  632ERGO    C2 9440   3.492   5.559   8.149  0.0067  0.2154 -0.0642
  633ERGO   ROH 9441   3.631   5.610   9.482 -0.0479  0.0242 -0.0696
  633ERGO    R1 9442   3.746   5.453   9.276 -0.1933 -0.1009 -0.0579
  633ERGO    R2 9443   3.617   5.406   9.036 -0.1913  0.1007 -0.1046
  633ERGO    R3 9444   3.847   5.505   8.930 -0.0270 -0.1828 -0.0215
  633ERGO    R4 9445   3.704   5.387   8.702 -0.2555  0.3016 -0.1337
  633ERGO    R5 9446   3.909   5.344   8.763 -0.3199 -0.1181 -0.1966
  633ERGO    C1 9447   3.971   5.469   8.408 -0.1387  0.1525 -0.0726
  633ERGO    C2 9448   3.991   5.355   8.091 -0.0551  0.1491  0.1497
  634ERGO   ROH 9449   0.636  18.101  10.040  0.1365 -0.0986  0.1493
  634ERGO    R1 9450   0.635  18.145   9.760 -0.0517  0.0243  0.1671
  634ERGO    R2 9451   0.853  18.088   9.600 -0.0935  0.2608  0.0194
  634ERGO    R3 9452   0.671  17.943   9.460 -0.0604  0.1817  0.0586
  634ERGO    R4 9453   0.908  17.950   9.288 -0.0512  0.1590  0.0721
  634ERGO    R5 9454   0.706  18.007   9.232 -0.0561  0.1062  0.0385
  634ERGO    C1 9455   0.769  17.732   8.976  0.0046  0.0258  0.1397
  634ERGO    C2 9456   0.797  17.629   8.706 -0.3854  0.2170  0.0888
  635ERGO   ROH 9457   3.026   7.100   9.749 -0.1488  0.1935 -0.0874
  635ERGO    R1 9458   2.884   7.111   9.504 -0.1832 -0.0649 -0.0818
  635ERGO    R2 9459   3.000   7.198   9.269 -0.3238  0.0591 -0.1031
  635ERGO    R3 9460   2.912   6.959   9.175  0.0203 -0.0935 -0.0539
  635ERGO    R4 9461   3.038   7.088   8.944 -0.1854  0.0659 -0.0900
  635ERGO    R5 9462   2.836   7.007   8.953 -0.0731 -0.2363 -0.0579
  635ERGO    C1 9463   2.978   6.799   8.666  0.2181 -0.0735 -0.0360
  635ERGO    C2 9464   3.286   6.610   8.494 -0.3571  0.2232 -0.1406
  636ERGO   ROH 9465   8.695   5.901  10.109 -0.1923 -0.2011  0.0076
  636ERGO    R1 9466   8.550   5.902   9.866 -0.1403 -0.0185 -0.0249
  636ERGO    R2 9467   8.510   6.131   9.717  0.0673  0.0591  0.0323
  636ERGO    R3 9468   8.618   5.982   9.518 -0.0021  0.0329  0.0139
  636ERGO    R4 9469   8.470   6.192   9.379  0.0458  0.0758  0.0377
  636ERGO    R5 9470   8.450   5.978   9.347 -0.0212  0.0852  0.0342
  636ERGO    C1 9471   8.549   6.087   8.995 -0.0318  0.0609  0.0236
  636ERGO    C2 9472   8.583   6.087   8.674 -0.0492 -0.1898  0.1279
  637ERGO   ROH 9473   8.759   3.789   9.632  0.4728  0.3446  0.1356
  637ERGO    R1 9474   8.730   3.694   9.367  0.5327  0.0738  0.2234
  637ERGO    R2 9475   8.569   3.819   9.180  0.2885 -0.3209  0.1603
  637ERGO    R3 9476   8.797   3.820   9.032  0.2464 -0.1090  0.0919
  637ERGO    R4 9477   8.581   3.857   8.837  0.1513 -0.2240  0.1648
  637ERGO    R5 9478   8.737   3.705   8.831  0.2699 -0.1067  0.0803
  637ERGO    C1 9479   8.802   3.879   8.498  0.0320  0.0313  0.1034
  637ERGO    C2 9480   8.772   3.948   8.206 -0.3306  0.1951  0.2218
  638ERGO   ROH 9481   6.523  13.288   9.799 -0.1324  0.0915  0.0383
  638ERGO    R1 9482   6.689  13.322   9.572 -0.1503  0.1629  0.0347
  638ERGO    R2 9483   6.767  13.111   9.412  0.1042  0.1632  0.1480
  638ERGO    R3 9484   6.662  13.264   9.214 -0.0586 -0.0551  0.0622
  638ERGO    R4 9485   6.878  13.114   9.085  0.2419  0.2584  0.1957
  638ERGO    R5 9486   6.852  13.331   9.083 -0.1064  0.2173  0.1293
  638ERGO    C1 9487   6.844  13.261   8.708  0.1693  0.1090  0.1429
  638ERGO    C2 9488   6.944  13.292   8.394 -0.1581 -0.3029  0.4613
  639ERGO   ROH 9489   7.729   2.977   9.544 -0.0917  0.1667 -0.1537
  639ERGO    R1 9490   7.558   3.110   9.362 -0.0443  0.1375 -0.2212
  639ERGO    R2 9491   7.652   3.286   9.170 -0.0001  0.1660 -0.1790
  639ERGO    R3 9492   7.516   3.124   9.001  0.1060  0.1390 -0.2383
  639ERGO    R4 9493   7.562   3.369   8.847 -0.0871  0.2336 -0.1372
  639ERGO    R5 9494   7.370   3.271   8.881 -0.0108  0.0802 -0.1647
  639ERGO    C1 9495   7.381   3.265   8.500 -0.0382  0.2477 -0.1684
  639ERGO    C2 9496   7.466   3.166   8.144 -0.0186  0.4535 -0.0248
  640ERGO   ROH 9497   6.022  14.381   9.766 -0.2276  0.1439 -0.0810
  640ERGO    R1 9498   6.195  14.313   9.552 -0.1624  0.2398 -0.0593
  640ERGO    R2 9499   6.161  14.086   9.399  0.1236  0.0939  0.0910
  640ERGO    R3 9500   6.165  14.263   9.193 -0.1407 -0.0318 -0.0259
  640ERGO    R4 9501   6.183  13.999   9.065  0.3371 -0.1064  0.1546
  640ERGO    R5 9502   6.318  14.168   9.036  0.0608  0.1159  0.0716
  640ERGO    C1 9503   6.199  14.115   8.677  0.2133 -0.3411  0.0820
  640ERGO    C2 9504   6.030  14.149   8.405  0.0641 -0.0993  0.0381
  641ERGO   ROH 9505  11.556   5.394   9.899 -0.2391 -0.1924 -0.0451
  641ERGO    R1 9506  11.678   5.472   9.656 -0.2522 -0.0308 -0.0012
  641ERGO    R2 9507  11.802   5.292   9.487 -0.0297  0.1178 -0.0013
  641ERGO    R3 9508  11.633   5.398   9.303 -0.0894 -0.0167 -0.0250
  641ERGO    R4 9509  11.786   5.195   9.156  0.0950  0.1066 -0.0046
  641ERGO    R5 9510  11.762   5.405   9.101 -0.0658  0.0885 -0.0063
  641ERGO    C1 9511  11.618   5.239   8.790  0.1116 -0.0260 -0.0288
  641ERGO    C2 9512  11.664   5.215   8.456  0.0955  0.0023 -0.0519
  642ERGO   ROH 9513  18.072   1.756   9.638  0.0763 -0.1910  0.0642
  642ERGO    R1 9514  18.198   1.904   9.432 -0.0443 -0.1243  0.0372
  642ERGO    R2 9515  18.273   1.790   9.191  0.0201 -0.0993  0.0433
  642ERGO    R3 9516  18.123   1.991   9.086 -0.1339 -0.2184  0.0329
  642ERGO    R4 9517  18.287   1.895   8.862 -0.0141 -0.0606  0.0546
  642ERGO    R5 9518  18.270   2.101   8.933 -0.2022 -0.0800  0.0673
  642ERGO    C1 9519  18.153   2.145   8.572 -0.1788 -0.1500  0.0515
  642ERGO    C2 9520  18.279   2.043   8.248 -0.0312 -0.1559  0.1872
  643ERGO   ROH 9521   8.229   8.097  10.484 -0.0570  0.2344 -0.0381
  643ERGO    R1 9522   8.171   8.286  10.282 -0.0421  0.1809 -0.0926
  643ERGO    R2 9523   8.327   8.316  10.057  0.0496  0.2128 -0.0243
  643ERGO    R3 9524   8.092   8.277   9.926  0.1251  0.0972 -0.1291
  643ERGO    R4 9525   8.260   8.425   9.736  0.0570  0.4067  0.0391
  643ERGO    R5 9526   8.059   8.480   9.802 -0.0190  0.1698  0.0214
  643ERGO    C1 9527   8.000   8.453   9.427  0.1323  0.4112 -0.0222
  643ERGO    C2 9528   7.970   8.402   9.002  0.2252  0.1513  0.0896
  644ERGO   ROH 9529  12.195   3.342   9.810  0.1080  0.1084 -0.0565
  644ERGO    R1 9530  12.165   3.273   9.537 -0.0414  0.0875 -0.0359
  644ERGO    R2 9531  11.931   3.319   9.397 -0.0738  0.2005  0.0520
  644ERGO    R3 9532  12.098   3.450   9.226 -0.0678  0.0836 -0.0322
  644ERGO    R4 9533  11.895   3.326   9.054 -0.0710 -0.0196  0.0459
  644ERGO    R5 9534  12.111   3.306   9.035 -0.0724 -0.0402  0.0603
  644ERGO    C1 9535  12.030   3.453   8.693 -0.0638 -0.2576 -0.0368
  644ERGO    C2 9536  11.860   3.582   8.386  0.1024  0.0643 -0.1047
  645ERGO   ROH 9537   0.339  13.816  10.181  0.1843 -0.0716 -0.0736
  645ERGO    R1 9538   0.287  13.622   9.981  0.0914 -0.0420 -0.0776
  645ERGO    R2 9539   0.031  13.540   9.918  0.0600  0.0165 -0.0148
  645ERGO    R3 9540   0.106  13.610   9.666  0.0034  0.0218 -0.0313
  645ERGO    R4 9541  -0.149  13.470   9.631 -0.0356  0.0630  0.0327
  645ERGO    R5 9542   0.039  13.425   9.530 -0.0669  0.0378 -0.0239
  645ERGO    C1 9543  -0.183  13.496   9.227 -0.1443  0.0952  0.0450
  645ERGO    C2 9544  -0.089  13.532   8.815 -0.3585  0.0466 -0.1074
  646ERGO   ROH 9545   7.906  16.584   9.240 -0.1614 -0.3444  0.1116
  646ERGO    R1 9546   7.903  16.571   8.957 -0.2159 -0.4332  0.1163
  646ERGO    R2 9547   7.670  16.548   8.811 -0.2921  0.0422  0.1509
  646ERGO    R3 9548   7.765  16.769   8.684  0.1974 -0.2018  0.0643
  646ERGO    R4 9549   7.588  16.640   8.488 -0.3666  0.2643  0.2306
  646ERGO    R5 9550   7.796  16.698   8.458 -0.2172 -0.3014  0.0271
  646ERGO    C1 9551   7.629  16.901   8.181  0.0495  0.1646  0.1958
  646ERGO    C2 9552   7.504  16.990   7.864  0.0596 -0.0067 -0.1512
  647ERGO   ROH 9553  17.262   8.133  10.052  0.0827 -0.1065  0.0382
  647ERGO    R1 9554  17.207   7.985   9.816 -0.0123 -0.0615  0.0312
  647ERGO    R2 9555  17.008   8.059   9.638  0.0268  0.0694  0.0366
  647ERGO    R3 9556  17.212   8.048   9.458  0.0196 -0.0447  0.0355
  647ERGO    R4 9557  16.977   7.954   9.310 -0.0511  0.1818  0.0080
  647ERGO    R5 9558  17.168   7.851   9.330 -0.1347  0.0255 -0.0184
  647ERGO    C1 9559  17.150   7.883   8.950 -0.1033  0.1400 -0.0097
  647ERGO    C2 9560  17.117   7.993   8.635  0.0283 -0.0390  0.0660
  648ERGO   ROH 9561   8.894   4.634   9.882 -0.1568  0.1398 -0.0245
  648ERGO    R1 9562   8.905   4.762   9.630 -0.2269  0.0992 -0.0473
  648ERGO    R2 9563   9.114   4.725   9.453 -0.1376  0.2904  0.0243
  648ERGO    R3 9564   8.914   4.659   9.281 -0.0166  0.0365 -0.0264
  648ERGO    R4 9565   9.127   4.768   9.110 -0.2178  0.6230  0.0593
  648ERGO    R5 9566   8.919   4.833   9.116 -0.3624  0.2048  0.1255
  648ERGO    C1 9567   8.946   4.732   8.749 -0.1511  0.5782  0.0320
  648ERGO    C2 9568   8.923   4.952   8.443  0.0033 -0.0605 -0.1684
  649ERGO   ROH 9569   8.775  16.534   9.681  0.0803 -0.0205  0.0957
  649ERGO    R1 9570   8.930  16.384   9.497  0.1135 -0.0535  0.1494
  649ERGO    R2 9571   8.826  16.283   9.262  0.1269 -0.1902  0.1991
  649ERGO    R3 9572   9.033  16.418   9.149  0.0760 -0.1727  0.1269
  649ERGO    R4 9573   8.931  16.245   8.935  0.0026 -0.1629  0.1559
  649ERGO    R5 9574   9.137  16.257   9.005  0.0285 -0.1569  0.0762
  649ERGO    C1 9575   9.187  16.350   8.639 -0.1175 -0.1307  0.0630
  649ERGO    C2 9576   9.156  16.424   8.316  0.1620 -0.1488  0.3703
  650ERGO   ROH 9577   2.153   5.495   9.949 -0.0327  0.2536  0.0184
  650ERGO    R1 9578   2.078   5.565   9.685 -0.0879  0.2103  0.0225
  650ERGO    R2 9579   2.171   5.793   9.560  0.0388  0.0897 -0.1037
  650ERGO    R3 9580   2.247   5.617   9.367 -0.1791 -0.0447 -0.0702
  650ERGO    R4 9581   2.165   5.857   9.220  0.2314  0.0818 -0.1095
  650ERGO    R5 9582   2.092   5.654   9.188 -0.0770  0.1868 -0.1154
  650ERGO    C1 9583   2.233   5.729   8.841  0.1390 -0.0489 -0.0816
  650ERGO    C2 9584   2.000   5.795   8.491 -0.0823  0.1831 -0.1021
  651ERGO   ROH 9585  17.255  10.523   9.605  0.0643  0.0690 -0.0490
  651ERGO    R1 9586  17.292  10.541   9.325  0.0835 -0.0653 -0.0550
  651ERGO    R2 9587  17.200  10.347   9.151 -0.1213 -0.0304  0.0124
  651ERGO    R3 9588  17.078  10.559   9.031  0.1004  0.0602 -0.0601
  651ERGO    R4 9589  17.129  10.369   8.813  0.0691  0.0161 -0.0264
  651ERGO    R5 9590  17.188  10.579   8.820  0.2256 -0.0287 -0.0041
  651ERGO    C1 9591  16.973  10.581   8.505  0.3883  0.1280 -0.1170
  651ERGO    C2 9592  16.734  10.766   8.276 -0.2004 -0.0367 -0.0729
  652ERGO   ROH 9593  13.261   1.285   9.380 -0.0873 -0.1913  0.0472
  652ERGO    R1 9594  13.308   1.218   9.109 -0.1874  0.0108 -0.0231
  652ERGO    R2 9595  13.360   0.959   9.027  0.1929  0.1284 -0.1792
  652ERGO    R3 9596  13.152   1.004   8.859 -0.0283 -0.1482  0.0123
  652ERGO    R4 9597  13.311   0.797   8.726  0.1652  0.1152 -0.1674
  652ERGO    R5 9598  13.247   0.987   8.640 -0.1957  0.0392 -0.0765
  652ERGO    C1 9599  13.086   0.745   8.393 -0.0585 -0.1522  0.0194
  652ERGO    C2 9600  12.961   0.526   8.150 -0.1907 -0.0209  0.3582
  653ERGO   ROH 9601  11.434  14.264   9.986  0.1578 -0.0513 -0.0828
  653ERGO    R1 9602  11.351  14.157   9.737  0.1311 -0.1235 -0.0432
  653ERGO    R2 9603  11.226  14.309   9.543 -0.0353 -0.2152 -0.0119
  653ERGO    R3 9604  11.426  14.214   9.386 -0.0332 -0.1058 -0.0759
  653ERGO    R4 9605  11.239  14.340   9.199 -0.0717 -0.0554  0.0002
  653ERGO    R5 9606  11.315  14.136   9.189 -0.0358 -0.0352 -0.1012
  653ERGO    C1 9607  11.434  14.268   8.851 -0.0911  0.1404 -0.0528
  653ERGO    C2 9608  11.559  14.214   8.591  0.0118 -0.0695  0.1938
  654ERGO   ROH 9609   4.020   2.553   9.622 -0.0726 -0.4306 -0.1604
  654ERGO    R1 9610   4.109   2.664   9.377 -0.0117 -0.2108 -0.0410
  654ERGO    R2 9611   4.197   2.509   9.166  0.0361 -0.0245 -0.1626
  654ERGO    R3 9612   4.009   2.649   9.027  0.0708  0.1049 -0.0813
  654ERGO    R4 9613   4.184   2.534   8.822 -0.2394 -0.2187 -0.1690
  654ERGO    R5 9614   4.130   2.744   8.844  0.0191 -0.1426 -0.2461
  654ERGO    C1 9615   4.000   2.678   8.491 -0.3673 -0.2103 -0.0965
  654ERGO    C2 9616   4.051   2.536   8.152  0.1675 -0.1156 -0.2117
  655ERGO   ROH 9617  16.193   5.727   9.914  0.3429  0.1885 -0.0558
  655ERGO    R1 9618  16.328   5.593   9.705  0.2826  0.1689 -0.0821
  655ERGO    R2 9619  16.214   5.552   9.456  0.1990  0.1152 -0.0321
  655ERGO    R3 9620  16.440   5.674   9.368  0.1540  0.1234 -0.1379
  655ERGO    R4 9621  16.314   5.566   9.126  0.1040 -0.0030 -0.0668
  655ERGO    R5 9622  16.519   5.532   9.192  0.1320  0.0616 -0.1030
  655ERGO    C1 9623  16.586   5.688   8.851  0.0064 -0.0641 -0.1862
  655ERGO    C2 9624  16.654   5.893   8.471 -0.0939 -0.3876  0.0120
  656ERGO   ROH 9625   2.236  15.170   9.544 -0.2504  0.1533  0.1893
  656ERGO    R1 9626   2.197  15.307   9.299 -0.0714  0.0950  0.1253
  656ERGO    R2 9627   2.385  15.305   9.096  0.0226 -0.0685  0.2026
  656ERGO    R3 9628   2.176  15.217   8.947  0.0400 -0.0127  0.1471
  656ERGO    R4 9629   2.376  15.300   8.751  0.0705  0.0065  0.2010
  656ERGO    R5 9630   2.169  15.366   8.760  0.0820  0.0236  0.1803
  656ERGO    C1 9631   2.174  15.214   8.410  0.1147  0.1027  0.1480
  656ERGO    C2 9632   1.953  15.245   8.183  0.1389  0.5597  0.0377
  657ERGO   ROH 9633   1.091   6.270   9.927 -0.0362 -0.0001  0.0385
  657ERGO    R1 9634   1.204   6.344   9.678  0.0643 -0.2137  0.0169
  657ERGO    R2 9635   1.262   6.159   9.480 -0.1350 -0.3551  0.0760
  657ERGO    R3 9636   1.107   6.323   9.328  0.0540 -0.2256  0.0230
  657ERGO    R4 9637   1.269   6.173   9.135  0.0668 -0.2631  0.0837
  657ERGO    R5 9638   1.251   6.389   9.148  0.1899 -0.2634  0.1245
  657ERGO    C1 9639   1.129   6.334   8.791  0.3618 -0.0879  0.0384
  657ERGO    C2 9640   1.219   6.415   8.491  0.0220  0.0270  0.0792
  658ERGO   ROH 9641   2.783  17.757   9.885 -0.0896 -0.0400  0.1131
  658ERGO    R1 9642   2.818  17.658   9.622 -0.0685 -0.2049  0.1773
  658ERGO    R2 9643   2.631  17.498   9.496 -0.2645  0.0784  0.1037
  658ERGO    R3 9644   2.646  17.688   9.303  0.2180 -0.0175  0.0356
  658ERGO    R4 9645   2.622  17.435   9.157 -0.3407 -0.0339  0.1259
  658ERGO    R5 9646   2.777  17.586   9.130  0.0259 -0.3926  0.0989
  658ERGO    C1 9647   2.632  17.577   8.777  0.0678 -0.1893  0.0749
  658ERGO    C2 9648   2.829  17.432   8.521  0.2806 -0.1359  0.0564
  659ERGO   ROH 9649   9.309  10.765  10.071 -0.1887 -0.1121  0.0633
  659ERGO    R1 9650   9.286  10.608   9.836 -0.1152 -0.0461  0.0111
  659ERGO    R2 9651   9.213  10.715   9.592 -0.1458  0.0050  0.0409
  659ERGO    R3 9652   9.444  10.597   9.509 -0.0943  0.1233  0.0151
  659ERGO    R4 9653   9.292  10.647   9.263 -0.2702 -0.2053  0.0523
  659ERGO    R5 9654   9.376  10.457   9.327 -0.0796 -0.0849  0.1678
  659ERGO    C1 9655   9.555  10.498   8.992 -0.2941 -0.2167  0.0348
  659ERGO    C2 9656   9.786  10.674   8.777  0.0896 -0.2188  0.0728
  660ERGO   ROH 9657   9.604   1.701   9.337  0.0052  0.2195 -0.1825
  660ERGO    R1 9658   9.565   1.730   9.058  0.1012  0.1617 -0.2022
  660ERGO    R2 9659   9.754   1.653   8.872  0.0677 -0.0963 -0.1298
  660ERGO    R3 9660   9.547   1.511   8.768 -0.0538  0.0764 -0.1299
  660ERGO    R4 9661   9.724   1.562   8.540  0.0968 -0.2398 -0.0942
  660ERGO    R5 9662   9.511   1.608   8.552  0.1372  0.0050 -0.1975
  660ERGO    C1 9663   9.513   1.376   8.249 -0.0004 -0.1614 -0.0735
  660ERGO    C2 9664   9.470   1.145   8.033 -0.0380  0.0361 -0.1119
  661ERGO   ROH 9665  18.259   8.962   9.826 -0.0114  0.1747 -0.0003
  661ERGO    R1 9666  18.315   9.013   9.554 -0.0943  0.1059 -0.0320
  661ERGO    R2 9667  18.426   8.824   9.387  0.0497  0.1255  0.0318
  661ERGO    R3 9668  18.209   8.879   9.232 -0.0253 -0.1295  0.0426
  661ERGO    R4 9669  18.423   8.820   9.041  0.0865  0.3082  0.0297
  661ERGO    R5 9670  18.298   8.999   9.045 -0.1945  0.1125  0.1152
  661ERGO    C1 9671  18.218   8.870   8.695  0.0373  0.1751  0.0387
  661ERGO    C2 9672  18.232   8.909   8.331 -0.1512 -0.2124  0.0412
  662ERGO   ROH 9673  18.126   0.827   9.970 -0.1800 -0.0521 -0.1047
  662ERGO    R1 9674  18.256   0.940   9.745 -0.0834 -0.0841 -0.0653
  662ERGO    R2 9675  18.393   0.786   9.560 -0.1772 -0.1323 -0.0941
  662ERGO    R3 9676  18.229   0.912   9.383 -0.0756  0.0299 -0.0751
  662ERGO    R4 9677  18.457   0.822   9.222 -0.1401 -0.1190 -0.0859
  662ERGO    R5 9678  18.379   1.025   9.233  0.0179 -0.0580 -0.0498
  662ERGO    C1 9679  18.341   0.961   8.859 -0.0232  0.0410 -0.0632
  662ERGO    C2 9680  18.409   1.020   8.446 -0.1707  0.2815 -0.2218
  663ERGO   ROH 9681  10.243  12.550  10.107 -0.0637  0.0167 -0.0453
  663ERGO    R1 9682  10.116  12.626   9.866 -0.0827 -0.0802 -0.0660
  663ERGO    R2 9683  10.254  12.656   9.629 -0.0452  0.1299 -0.0174
  663ERGO    R3 9684  10.068  12.481   9.536  0.1821 -0.0702 -0.1130
  663ERGO    R4 9685  10.173  12.614   9.295 -0.0705  0.3057 -0.0343
  663ERGO    R5 9686   9.963  12.597   9.354 -0.0410 -0.0559  0.0164
  663ERGO    C1 9687   9.950  12.425   9.014  0.1282  0.2200 -0.1340
  663ERGO    C2 9688   9.999  12.501   8.776 -0.0933  0.4055  0.0887
  664ERGO   ROH 9689  12.680  15.584   9.796 -0.0501  0.2110 -0.1784
  664ERGO    R1 9690  12.598  15.483   9.545  0.1299 -0.0433 -0.1382
  664ERGO    R2 9691  12.540  15.646   9.330 -0.1704 -0.2294 -0.2049
  664ERGO    R3 9692  12.723  15.490   9.203  0.1188  0.0450 -0.1406
  664ERGO    R4 9693  12.589  15.638   8.988 -0.0593 -0.1842 -0.1908
  664ERGO    R5 9694  12.612  15.421   9.002  0.2815 -0.1510 -0.1663
  664ERGO    C1 9695  12.789  15.486   8.670  0.2768  0.0999 -0.1222
  664ERGO    C2 9696  12.614  15.603   8.366 -0.0710 -0.1388  0.2080
  665ERGO   ROH 9697  11.985   6.373  10.017  0.1803  0.3878  0.0274
  665ERGO    R1 9698  11.956   6.488   9.760  0.0186  0.2604 -0.0142
  665ERGO    R2 9699  12.138   6.444   9.555 -0.0219  0.2805 -0.0688
  665ERGO    R3 9700  11.916   6.365   9.420 -0.0286  0.0829  0.0581
  665ERGO    R4 9701  12.112   6.417   9.211 -0.1625  0.0671 -0.0420
  665ERGO    R5 9702  11.913   6.500   9.223 -0.1914 -0.0418 -0.0149
  665ERGO    C1 9703  11.889   6.326   8.885 -0.2506 -0.2427  0.0929
  665ERGO    C2 9704  12.030   6.272   8.611  0.0156 -0.0383  0.0135
  666ERGO   ROH 9705  11.321  10.862  10.109  0.3038  0.2321  0.1890
  666ERGO    R1 9706  11.279  10.959   9.847  0.3070  0.1836  0.1704
  666ERGO    R2 9707  11.483  11.062   9.691  0.3635 -0.1029  0.0489
  666ERGO    R3 9708  11.397  10.876   9.512  0.0809 -0.0741  0.1505
  666ERGO    R4 9709  11.579  11.048   9.359  0.0256 -0.1839 -0.0491
  666ERGO    R5 9710  11.374  10.998   9.307 -0.0588 -0.0781  0.1615
  666ERGO    C1 9711  11.554  10.865   8.998 -0.4364 -0.2039 -0.0109
  666ERGO    C2 9712  11.828  10.663   8.744 -0.0654  0.1614  0.0372
  667ERGO   ROH 9713   5.298  10.959   9.944  0.0784 -0.0146 -0.1412
  667ERGO    R1 9714   5.326  11.070   9.685  0.0733 -0.0270 -0.1468
  667ERGO    R2 9715   5.430  10.927   9.472 -0.0545 -0.0798 -0.1725
  667ERGO    R3 9716   5.198  10.999   9.352 -0.0459  0.0444 -0.1174
  667ERGO    R4 9717   5.405  11.057   9.153 -0.0670 -0.2083 -0.2247
  667ERGO    R5 9718   5.254  11.195   9.227  0.0644 -0.0538 -0.2291
  667ERGO    C1 9719   5.172  11.201   8.854 -0.0661 -0.1664 -0.2032
  667ERGO    C2 9720   5.176  11.222   8.517 -0.1199 -0.0450 -0.1271
  668ERGO   ROH 9721   6.694   9.611  10.167 -0.0795  0.3120  0.0459
  668ERGO    R1 9722   6.889   9.733  10.001 -0.0443  0.1645 -0.0225
  668ERGO    R2 9723   6.977   9.617   9.766 -0.1916  0.0817 -0.0373
  668ERGO    R3 9724   6.905   9.857   9.659 -0.0593  0.1222 -0.0389
  668ERGO    R4 9725   7.051   9.720   9.445 -0.2686 -0.0278 -0.0907
  668ERGO    R5 9726   7.092   9.920   9.523 -0.0749 -0.0443 -0.1411
  668ERGO    C1 9727   7.026  10.005   9.157 -0.1893 -0.0536 -0.1235
  668ERGO    C2 9728   6.973  10.080   8.766 -0.1560  0.2134 -0.2798
  669ERGO   ROH 9729   2.866   4.936   9.858 -0.1908  0.0464 -0.0052
  669ERGO    R1 9730   2.827   4.769   9.633 -0.2018  0.0382  0.0030
  669ERGO    R2 9731   2.629   4.815   9.446 -0.0891  0.1412 -0.0913
  669ERGO    R3 9732   2.837   4.806   9.271 -0.0172 -0.0228  0.0006
  669ERGO    R4 9733   2.605   4.878   9.107  0.0798 -0.0017 -0.1311
  669ERGO    R5 9734   2.743   4.713   9.071  0.0290 -0.0752  0.0021
  669ERGO    C1 9735   2.787   4.905   8.745  0.2456 -0.2389 -0.0679
  669ERGO    C2 9736   2.719   4.999   8.471 -0.0220 -0.3610  0.3769
  670ERGO   ROH 9737   8.366  10.753  10.115 -0.2140 -0.0813  0.0617
  670ERGO    R1 9738   8.375  10.607   9.873 -0.1489  0.0326 -0.0069
  670ERGO    R2 9739   8.212  10.388   9.824  0.0708 -0.1356 -0.0361
  670ERGO    R3 9740   8.143  10.529   9.603 -0.1771 -0.1054  0.0587
  670ERGO    R4 9741   8.119  10.250   9.522 -0.0685 -0.0814 -0.0177
  670ERGO    R5 9742   8.234  10.404   9.421 -0.2388  0.0162 -0.0507
  670ERGO    C1 9743   8.001  10.302   9.137 -0.3824 -0.0216  0.0818
  670ERGO    C2 9744   8.045  10.219   8.779  0.0241 -0.0976  0.0433
  671ERGO   ROH 9745   6.249   9.492   9.904 -0.0355 -0.0954  0.0445
  671ERGO    R1 9746   6.440   9.381   9.726  0.0257 -0.0180  0.0613
  671ERGO    R2 9747   6.401   9.374   9.452 -0.0280 -0.1957  0.0733
  671ERGO    R3 9748   6.641   9.501   9.447 -0.1409  0.0187 -0.0450
  671ERGO    R4 9749   6.627   9.357   9.192 -0.0120 -0.2459  0.0904
  671ERGO    R5 9750   6.788   9.346   9.339 -0.0002  0.0419  0.1073
  671ERGO    C1 9751   6.985   9.467   9.036 -0.1086 -0.0739 -0.0108
  671ERGO    C2 9752   7.254   9.666   8.850 -0.3804 -0.1035  0.1497
  672ERGO   ROH 9753   1.057   4.137  10.131  0.1059  0.0132 -0.0656
  672ERGO    R1 9754   0.971   4.303   9.918  0.0984  0.0095 -0.0665
  672ERGO    R2 9755   1.135   4.494   9.803  0.1371 -0.0747 -0.1593
  672ERGO    R3 9756   1.072   4.363   9.573  0.0050 -0.0940 -0.1119
  672ERGO    R4 9757   1.256   4.576   9.490 -0.1473 -0.0188 -0.2561
  672ERGO    R5 9758   1.057   4.537   9.409 -0.1970 -0.0967 -0.0976
  672ERGO    C1 9759   1.266   4.501   9.092 -0.4370 -0.0044 -0.2680
  672ERGO    C2 9760   1.356   4.584   8.704 -0.0537  0.4284 -0.0697
  673ERGO   ROH 9761   5.691   5.400   9.701 -0.0803 -0.0747 -0.0406
  673ERGO    R1 9762   5.807   5.331   9.452 -0.0822  0.0811 -0.0851
  673ERGO    R2 9763   5.666   5.198   9.255 -0.0385  0.0731 -0.1080
  673ERGO    R3 9764   5.744   5.408   9.102 -0.1831  0.1727 -0.0482
  673ERGO    R4 9765   5.638   5.213   8.910  0.2624  0.0028 -0.1385
  673ERGO    R5 9766   5.834   5.308   8.904  0.1448  0.2756  0.0408
  673ERGO    C1 9767   5.696   5.420   8.566  0.3017  0.0554 -0.0999
  673ERGO    C2 9768   5.757   5.356   8.281  0.1024  0.2332 -0.3201
  674ERGO   ROH 9769   9.078   6.178  10.059 -0.0665  0.0213 -0.0178
  674ERGO    R1 9770   8.960   6.243   9.810 -0.1160 -0.0655 -0.0178
  674ERGO    R2 9771   9.084   6.404   9.623 -0.2880  0.1396  0.0361
  674ERGO    R3 9772   9.038   6.193   9.458 -0.0022  0.1164 -0.0188
  674ERGO    R4 9773   9.073   6.423   9.278 -0.1525  0.1747  0.0336
  674ERGO    R5 9774   8.904   6.285   9.281 -0.0147  0.0050 -0.0648
  674ERGO    C1 9775   9.024   6.236   8.922  0.1946  0.1733 -0.0196
  674ERGO    C2 9776   9.033   6.308   8.599 -0.0833  0.3308 -0.0937
  675loPI    C1 9777   0.987  15.429   5.143 -0.1216 -0.0674 -0.1873
  675loPI    C2 9778   1.376  15.496   5.202 -0.1057 -0.4406  0.1755
  675loPI    C3 9779   1.203  15.613   4.861  0.2874 -0.1403  0.0713
  675loPI   PO4 9780   0.876  15.472   5.368  0.2290 -0.3841  0.1600
  675loPI   GL1 9781   0.781  15.216   5.723 -0.2870  0.0161  0.2633
  675loPI   GL2 9782   0.737  14.882   5.867 -0.1840 -0.1347 -0.2491
  675loPI   C1A 9783   0.772  15.301   6.162  0.0310  0.3708  0.2524
  675loPI   C2A 9784   0.469  15.104   6.362 -0.0210 -0.1794 -0.3884
  675loPI   C3A 9785   0.625  15.040   6.738  0.3594  0.1459  0.1032
  675loPI   C4A 9786   0.871  15.183   7.089 -0.1505 -0.0265  0.1198
  675loPI   C5A 9787   1.350  15.163   7.234  0.0683  0.1869 -0.2101
  675loPI   C6A 9788   1.543  15.209   7.643 -0.2904 -0.0701  0.3750
  675loPI   C1B 9789   0.680  14.670   6.272 -0.0063  0.1302 -0.1792
  675loPI   C2B 9790   0.726  14.575   6.690 -0.0601  0.0272  0.1612
  675loPI   C3B 9791   0.584  14.541   7.120 -0.0784  0.0773 -0.1164
  675loPI   C4B 9792   0.281  14.526   7.421 -0.1856  0.0474 -0.2461
  676loPI    C1 9793  16.292   7.631   5.392 -0.1852 -0.1882 -0.1573
  676loPI    C2 9794  16.158   7.338   5.629 -0.1313 -0.2316 -0.1800
  676loPI    C3 9795  16.459   7.267   5.376  0.2211 -0.0252  0.1694
  676loPI   PO4 9796  16.170   7.859   5.599 -0.1154 -0.0846 -0.0801
  676loPI   GL1 9797  16.086   7.971   6.003  0.0056  0.2029 -0.0603
  676loPI   GL2 9798  15.767   7.983   6.158  0.0158  0.0901 -0.0408
  676loPI   C1A 9799  16.170   8.012   6.550  0.2339 -0.1779  0.0267
  676loPI   C2A 9800  16.315   8.025   6.966 -0.2000 -0.0695  0.1586
  676loPI   C3A 9801  16.248   8.031   7.450 -0.1329 -0.0108 -0.2395
  676loPI   C4A 9802  16.500   7.950   7.837 -0.1400 -0.2105  0.1974
  676loPI   C5A 9803  16.464   7.775   8.291  0.1284  0.3897 -0.1906
  676loPI   C6A 9804  16.760   7.637   8.708  0.0301  0.0916 -0.0466
  676loPI   C1B 9805  15.650   7.930   6.521  0.1859  0.0739 -0.0816
  676loPI   C2B 9806  15.543   8.249   6.935 -0.5179  0.0068  0.2313
  676loPI   C3B 9807  15.374   8.402   7.248  0.1676 -0.1161  0.0239
  676loPI   C4B 9808  15.214   8.513   7.635  0.0571  0.1044  0.1331
  677loPI    C1 9809   2.934  17.441   5.275  0.0236 -0.1891  0.1172
  677loPI    C2 9810   3.132  17.442   4.928 -0.2877  0.1608 -0.0672
  677loPI    C3 9811   2.860  17.157   5.003 -0.2095  0.0761 -0.1033
  677loPI   PO4 9812   3.136  17.509   5.456  0.0441 -0.0872  0.0132
  677loPI   GL1 9813   3.215  17.297   5.839 -0.1913 -0.2199 -0.1892
  677loPI   GL2 9814   2.891  17.220   5.793  0.1079  0.1810  0.2268
  677loPI   C1A 9815   3.192  17.077   6.274  0.1929 -0.1036  0.1032
  677loPI   C2A 9816   3.220  17.134   6.659  0.0541 -0.1673 -0.0865
  677loPI   C3A 9817   3.399  17.313   7.030  0.2041 -0.0340 -0.3703
  677loPI   C4A 9818   3.646  17.256   7.383 -0.0295  0.0589  0.2669
  677loPI   C5A 9819   3.967  17.292   7.649  0.2223  0.0344  0.1057
  677loPI   C6A 9820   4.350  17.489   7.727  0.3436 -0.1239 -0.1112
  677loPI   C1B 9821   2.727  17.336   6.209  0.2984 -0.1019  0.3127
  677loPI   C2B 9822   2.743  17.202   6.606 -0.2510 -0.0129 -0.0275
  677loPI   C3B 9823   2.619  16.985   7.043  0.1065  0.1122 -0.4470
  677loPI   C4B 9824   2.359  16.779   7.359 -0.2790 -0.3047  0.0339
  678loPI    C1 9825  13.239  11.434   5.527  0.3233 -0.0710 -0.1691
  678loPI    C2 9826  13.588  11.279   5.645  0.1681 -0.2383  0.0812
  678loPI    C3 9827  13.290  11.038   5.531  0.1156 -0.0986 -0.0813
  678loPI   PO4 9828  13.325  11.687   5.677  0.0021 -0.1276  0.1183
  678loPI   GL1 9829  13.138  11.901   5.988 -0.5822  0.1422  0.0066
  678loPI   GL2 9830  13.271  12.131   6.033  0.1389 -0.0086 -0.1746
  678loPI   C1A 9831  12.984  11.637   6.283 -0.0376 -0.1531  0.0529
  678loPI   C2A 9832  12.900  11.593   6.761 -0.0714  0.2498 -0.2049
  678loPI   C3A 9833  12.650  11.549   7.143  0.0524  0.0277  0.3204
  678loPI   C4A 9834  12.657  11.381   7.536 -0.1617  0.1712 -0.0466
  678loPI   C5A 9835  12.506  11.282   7.861 -0.0749 -0.3076 -0.0455
  678loPI   C6A 9836  12.709  11.300   8.240 -0.2509 -0.0691 -0.0233
  678loPI   C1B 9837  13.390  12.312   6.444  0.1112 -0.0926  0.0876
  678loPI   C2B 9838  13.456  12.216   6.889  0.1818 -0.0826  0.0920
  678loPI   C3B 9839  13.501  12.022   7.291  0.1159  0.2818 -0.1381
  678loPI   C4B 9840  13.540  11.720   7.721  0.1077  0.1868 -0.0818
  679loPI    C1 9841  10.955   0.634   5.031 -0.1792  0.0522  0.1786
  679loPI    C2 9842  11.253   0.840   4.862 -0.1791  0.0991  0.2356
  679loPI    C3 9843  10.888   0.844   4.698 -0.1057 -0.1054  0.0631
  679loPI   PO4 9844  10.904   0.669   5.255 -0.1665  0.2619 -0.5054
  679loPI   GL1 9845  10.892   0.640   5.692  0.0655 -0.1081  0.1336
  679loPI   GL2 9846  11.170   0.687   5.857  0.3661 -0.1069 -0.3035
  679loPI   C1A 9847  10.804   0.935   6.086  0.0022  0.0074 -0.0041
  679loPI   C2A 9848  10.807   1.040   6.529  0.0573 -0.3009  0.2800
  679loPI   C3A 9849  10.538   0.947   6.885 -0.0838 -0.0095 -0.4147
  679loPI   C4A 9850  10.562   1.064   7.296  0.0172  0.0050  0.1444
  679loPI   C5A 9851  10.721   1.125   7.695  0.0656 -0.0834 -0.0441
  679loPI   C6A 9852  11.063   1.060   7.931  0.3653 -0.0147  0.1098
  679loPI   C1B 9853  11.133   0.577   6.388  0.0486  0.2363 -0.2278
  679loPI   C2B 9854  10.811   0.525   6.792  0.1538  0.0087  0.0531
  679loPI   C3B 9855  10.737   0.400   7.265  0.1106 -0.0656 -0.3044
  679loPI   C4B 9856  10.682   0.661   7.663  0.1319  0.2158  0.0249
  680loPI    C1 9857  10.828  12.018   5.737 -0.0260  0.0669 -0.0633
  680loPI    C2 9858  11.110  11.773   5.593  0.1163  0.2542 -0.1078
  680loPI    C3 9859  11.212  12.076   5.834 -0.0381  0.3686 -0.1844
  680loPI   PO4 9860  10.618  11.873   5.833  0.0068  0.0067 -0.0419
  680loPI   GL1 9861  10.427  11.601   6.148  0.0526  0.1289  0.0756
  680loPI   GL2 9862  10.410  11.805   6.335  0.1352 -0.1531  0.2695
  680loPI   C1A 9863  10.772  11.522   6.446  0.0118  0.0028 -0.3478
  680loPI   C2A 9864  10.801  11.534   6.862  0.0474  0.2031 -0.1178
  680loPI   C3A 9865  10.613  11.559   7.214 -0.1489  0.0102  0.1241
  680loPI   C4A 9866  10.286  11.402   7.528 -0.1927 -0.1119  0.0363
  680loPI   C5A 9867  10.108  11.138   7.755  0.0365 -0.1732  0.3304
  680loPI   C6A 9868   9.962  10.970   8.108  0.1462 -0.0565  0.0284
  680loPI   C1B 9869  10.324  11.704   6.852  0.0291  0.0286  0.0503
  680loPI   C2B 9870  10.173  11.795   7.270 -0.1660  0.0401 -0.0760
  680loPI   C3B 9871  10.380  11.900   7.594 -0.3225 -0.0381  0.2730
  680loPI   C4B 9872  10.726  12.010   7.887 -0.0565 -0.0528 -0.1280
  681loPI    C1 9873  15.627   4.890   5.482 -0.3965  0.2332  0.1643
  681loPI    C2 9874  15.805   5.246   5.518  0.0537  0.0219  0.1017
  681loPI    C3 9875  15.717   5.103   5.155  0.0093  0.0040  0.1195
  681loPI   PO4 9876  15.368   4.859   5.589 -0.1693 -0.0147 -0.1758
  681loPI   GL1 9877  15.179   5.123   5.954 -0.1183  0.1042  0.0630
  681loPI   GL2 9878  14.985   5.404   6.001 -0.3233  0.0024  0.1272
  681loPI   C1A 9879  15.233   5.244   6.422  0.2843  0.1082 -0.1083
  681loPI   C2A 9880  15.273   5.221   6.848 -0.1360 -0.0012  0.3838
  681loPI   C3A 9881  15.023   5.482   7.152 -0.2296  0.2609 -0.0392
  681loPI   C4A 9882  14.847   5.417   7.569 -0.0403  0.1987  0.0043
  681loPI   C5A 9883  14.981   5.612   7.963  0.1655  0.1424  0.0440
  681loPI   C6A 9884  14.972   6.058   7.955 -0.0798 -0.0457 -0.0647
  681loPI   C1B 9885  14.761   5.421   6.265  0.2839  0.0522 -0.0123
  681loPI   C2B 9886  14.597   5.375   6.681  0.0808  0.2738  0.3592
  681loPI   C3B 9887  14.479   5.498   7.150  0.0780  0.2771  0.0936
  681loPI   C4B 9888  14.339   5.471   7.584 -0.0991  0.0958 -0.0105
  682loPI    C1 9889   3.297   8.951   5.249  0.1537  0.0144 -0.1032
  682loPI    C2 9890   3.046   9.052   4.954  0.2307  0.1997 -0.1066
  682loPI    C3 9891   3.439   9.025   4.882  0.2440  0.1947 -0.0330
  682loPI   PO4 9892   3.304   9.018   5.559  0.3001 -0.0896 -0.0394
  682loPI   GL1 9893   3.642   9.357   5.779 -0.2386  0.2611  0.1193
  682loPI   GL2 9894   3.689   9.132   5.883 -0.2933  0.3545  0.1765
  682loPI   C1A 9895   3.624   9.472   6.234  0.2204 -0.0284 -0.4959
  682loPI   C2A 9896   3.597   9.507   6.582 -0.2061 -0.3808 -0.0076
  682loPI   C3A 9897   3.738   9.562   7.040  0.0748 -0.0602  0.1839
  682loPI   C4A 9898   3.937   9.911   7.261  0.2401 -0.2519  0.4235
  682loPI   C5A 9899   4.161  10.255   7.436 -0.1201  0.0471 -0.0228
  682loPI   C6A 9900   4.203  10.683   7.670 -0.1971  0.5581  0.3647
  682loPI   C1B 9901   3.822   9.045   6.301 -0.0551  0.1525  0.1802
  682loPI   C2B 9902   3.855   9.086   6.686  0.0086  0.2682 -0.2037
  682loPI   C3B 9903   4.116   8.995   7.081 -0.2690 -0.0399  0.2507
  682loPI   C4B 9904   4.314   8.941   7.461  0.0552 -0.1344  0.0633
  683loPI    C1 9905   3.079  15.826   4.699 -0.2318 -0.1278 -0.1162
  683loPI    C2 9906   2.951  15.577   4.413  0.0525 -0.3011 -0.0967
  683loPI    C3 9907   3.341  15.663   4.444 -0.0095 -0.0693  0.0704
  683loPI   PO4 9908   2.889  15.816   5.025 -0.0567  0.0431 -0.1129
  683loPI   GL1 9909   2.863  15.492   5.397  0.0632 -0.1776  0.1536
  683loPI   GL2 9910   2.838  15.793   5.481  0.2671  0.3166 -0.3134
  683loPI   C1A 9911   2.578  15.380   5.725  0.1599  0.0748  0.2530
  683loPI   C2A 9912   2.431  15.402   6.112 -0.0583  0.1037  0.4436
  683loPI   C3A 9913   2.436  15.444   6.588  0.0602 -0.0355 -0.1074
  683loPI   C4A 9914   2.358  15.279   6.949  0.2128  0.0191 -0.1705
  683loPI   C5A 9915   2.412  15.048   7.338  0.2736  0.0891 -0.0071
  683loPI   C6A 9916   2.281  14.711   7.471 -0.2348  0.2165 -0.2113
  683loPI   C1B 9917   2.761  15.999   5.856  0.0251  0.0815  0.0207
  683loPI   C2B 9918   2.508  15.887   6.185 -0.2166 -0.0571  0.2524
  683loPI   C3B 9919   2.146  15.832   6.308 -0.1253 -0.1029 -0.1047
  683loPI   C4B 9920   1.746  15.894   6.448 -0.0643 -0.0347  0.0257
  684loPI    C1 9921   7.360  15.459   4.669 -0.1447 -0.0567 -0.0798
  684loPI    C2 9922   7.641  15.304   4.430  0.0281 -0.0178  0.0951
  684loPI    C3 9923   7.633  15.698   4.500 -0.1937  0.0089 -0.0668
  684loPI   PO4 9924   7.425  15.300   4.912 -0.1511  0.0816 -0.1577
  684loPI   GL1 9925   7.158  15.387   5.366 -0.4109 -0.0490 -0.0741
  684loPI   GL2 9926   6.943  15.653   5.476  0.2719 -0.3392  0.0469
  684loPI   C1A 9927   7.304  15.622   5.769  0.2271 -0.0994 -0.0449
  684loPI   C2A 9928   7.290  15.726   6.251  0.1301 -0.1062  0.0778
  684loPI   C3A 9929   7.280  15.861   6.648 -0.2708  0.1463  0.2385
  684loPI   C4A 9930   7.463  16.026   7.008 -0.0230 -0.0318  0.1291
  684loPI   C5A 9931   7.685  16.126   7.363  0.1166 -0.2291 -0.0544
  684loPI   C6A 9932   7.756  16.087   7.867 -0.2063  0.1255  0.0373
  684loPI   C1B 9933   6.860  15.927   5.671  0.2172 -0.1072  0.0553
  684loPI   C2B 9934   6.939  16.014   6.012  0.1199  0.0595  0.0071
  684loPI   C3B 9935   6.877  16.107   6.489 -0.1131  0.2745 -0.1103
  684loPI   C4B 9936   6.965  16.263   6.942  0.0472 -0.2077  0.0020
  685loPI    C1 9937  10.198   5.767   5.435  0.0545 -0.1154 -0.0783
  685loPI    C2 9938  10.541   5.753   5.230  0.2173  0.1114  0.1711
  685loPI    C3 9939  10.345   6.100   5.269 -0.0364 -0.0141  0.0421
  685loPI   PO4 9940  10.223   5.668   5.677 -0.2240 -0.2662 -0.3398
  685loPI   GL1 9941  10.207   5.424   6.080 -0.2575  0.3648 -0.0636
  685loPI   GL2 9942  10.596   5.421   6.095 -0.0494 -0.3113 -0.2990
  685loPI   C1A 9943  10.285   5.417   6.534 -0.1807  0.3553  0.0745
  685loPI   C2A 9944  10.127   5.306   6.999 -0.1497  0.0243 -0.1749
  685loPI   C3A 9945  10.146   5.445   7.442 -0.0562 -0.0036 -0.1515
  685loPI   C4A 9946   9.878   5.602   7.801 -0.2359 -0.1886 -0.1151
  685loPI   C5A 9947   9.761   5.505   8.229 -0.0803 -0.0278 -0.3514
  685loPI   C6A 9948   9.473   5.471   8.573 -0.0323  0.2688 -0.1123
  685loPI   C1B 9949  10.746   5.272   6.403  0.0088 -0.0215 -0.1199
  685loPI   C2B 9950  10.776   5.308   6.869 -0.0544  0.2543  0.0677
  685loPI   C3B 9951  10.630   5.169   7.198  0.3370  0.0318  0.1352
  685loPI   C4B 9952  10.635   4.943   7.597  0.1547  0.1246 -0.1298
  686loPI    C1 9953   1.695  11.222   5.067 -0.1162  0.0746  0.0087
  686loPI    C2 9954   1.416  11.036   4.847 -0.0144 -0.1059  0.0301
  686loPI    C3 9955   1.804  10.973   4.773  0.0226  0.1445  0.0005
  686loPI   PO4 9956   1.697  11.276   5.379 -0.1172  0.2151  0.1759
  686loPI   GL1 9957   1.959  11.425   5.716 -0.0783 -0.1882 -0.0232
  686loPI   GL2 9958   2.290  11.424   5.714 -0.3707 -0.2744  0.1661
  686loPI   C1A 9959   2.042  11.032   5.925 -0.0051 -0.2411 -0.0008
  686loPI   C2A 9960   2.075  11.060   6.318 -0.0250  0.1341  0.1481
  686loPI   C3A 9961   2.115  11.044   6.780 -0.1235 -0.0520 -0.1228
  686loPI   C4A 9962   2.145  11.072   7.169  0.5466 -0.0089  0.2019
  686loPI   C5A 9963   2.090  11.108   7.612 -0.0758  0.2661  0.2731
  686loPI   C6A 9964   1.958  10.879   7.881 -0.2049 -0.0016  0.3378
  686loPI   C1B 9965   2.455  11.285   6.078 -0.0186  0.0178 -0.4382
  686loPI   C2B 9966   2.553  11.204   6.561 -0.2412 -0.1365  0.1677
  686loPI   C3B 9967   2.664  11.201   6.995 -0.1376 -0.1460 -0.0805
  686loPI   C4B 9968   2.833  11.364   7.274 -0.2570  0.2164 -0.5411
  687loPI    C1 9969  11.999   2.276   5.111  0.0293 -0.0829  0.1328
  687loPI    C2 9970  12.334   2.228   4.898  0.0251  0.1719  0.0647
  687loPI    C3 9971  12.096   2.541   4.828 -0.3326 -0.1121 -0.0242
  687loPI   PO4 9972  11.833   2.022   5.207  0.1762  0.1793 -0.0570
  687loPI   GL1 9973  11.614   1.933   5.608  0.2288 -0.0415  0.0414
  687loPI   GL2 9974  11.528   2.261   5.693 -0.0073 -0.0283  0.0721
  687loPI   C1A 9975  11.585   1.827   6.064 -0.0018  0.0493  0.1078
  687loPI   C2A 9976  11.459   1.841   6.509  0.2789  0.0341  0.3272
  687loPI   C3A 9977  11.534   2.002   6.881  0.1432  0.0464  0.1912
  687loPI   C4A 9978  11.739   1.848   7.222  0.4055  0.1525 -0.1687
  687loPI   C5A 9979  11.622   1.965   7.624  0.3545 -0.2510  0.0991
  687loPI   C6A 9980  11.158   1.965   7.694 -0.1355  0.1555  0.0231
  687loPI   C1B 9981  11.731   2.263   6.054 -0.1677 -0.2666  0.0718
  687loPI   C2B 9982  11.760   2.253   6.445  0.0428 -0.1955 -0.0180
  687loPI   C3B 9983  11.843   2.407   6.817  0.3118  0.1152 -0.1287
  687loPI   C4B 9984  11.993   2.341   7.279 -0.2658 -0.2896  0.1016
  688loPI    C1 9985   1.236  11.058   5.352 -0.0485  0.1282  0.2500
  688loPI    C2 9986   0.875  11.102   5.186 -0.1147 -0.0091  0.3558
  688loPI    C3 9987   1.084  10.766   5.125  0.0306  0.1026  0.2296
  688loPI   PO4 9988   1.198  11.170   5.594  0.0959 -0.0664 -0.0127
  688loPI   GL1 9989   1.073  11.045   6.004 -0.2706 -0.0757  0.2186
  688loPI   GL2 9990   0.700  10.949   6.058 -0.2259  0.1293  0.0668
  688loPI   C1A 9991   1.118  11.175   6.403 -0.2787 -0.1307 -0.0272
  688loPI   C2A 9992   1.205  11.328   6.849  0.0171 -0.1857 -0.0654
  688loPI   C3A 9993   1.201  11.281   7.298  0.0705 -0.2439 -0.0739
  688loPI   C4A 9994   1.337  11.581   7.656  0.2850 -0.0232 -0.2123
  688loPI   C5A 9995   1.042  11.746   7.879  0.1625  0.1625 -0.0302
  688loPI   C6A 9996   0.640  11.620   7.976 -0.0465  0.0621 -0.1168
  688loPI   C1B 9997   0.625  10.993   6.425  0.1828 -0.0526  0.0592
  688loPI   C2B 9998   0.646  11.082   6.887 -0.0681  0.1317  0.0943
  688loPI   C3B 9999   0.736  11.054   7.324  0.1075 -0.1844  0.1484
  688loPI   C4B10000   0.957  11.219   7.738 -0.0697  0.1047 -0.0219
  689loPI    C110001  10.028  10.206   5.934  0.0652  0.0007  0.1775
  689loPI    C210002   9.815   9.881   6.030  0.0850 -0.0810 -0.0490
  689loPI    C310003   9.894   9.963   5.646 -0.0825  0.2961 -0.0079
  689loPI   PO410004  10.211  10.152   6.169  0.1148 -0.3713 -0.0444
  689loPI   GL110005  10.326  10.200   6.541 -0.2582 -0.1530  0.0036
  689loPI   GL210006  10.787  10.097   6.524  0.0869 -0.0115 -0.0348
  689loPI   C1A10007  10.298  10.089   6.957 -0.1181 -0.0440  0.0672
  689loPI   C2A10008  10.331  10.141   7.418  0.2238 -0.0176 -0.0036
  689loPI   C3A10009  10.160  10.214   7.788  0.1999 -0.1356  0.3208
  689loPI   C4A10010  10.108  10.208   8.226 -0.2642 -0.0812 -0.0418
  689loPI   C5A10011   9.839  10.334   8.349  0.0709 -0.0459  0.1881
  689loPI   C6A10012   9.498  10.291   8.556  0.1357 -0.2791  0.1411
  689loPI   C1B10013  10.810  10.134   6.968  0.2886 -0.2505 -0.0107
  689loPI   C2B10014  10.811  10.067   7.351 -0.1842  0.2292 -0.0663
  689loPI   C3B10015  10.844  10.300   7.745 -0.0413  0.2032 -0.0128
  689loPI   C4B10016  11.046  10.641   7.959  0.1929  0.3313 -0.0491
  690loPI    C110017  15.727   1.298   5.157 -0.0622 -0.0789  0.0022
  690loPI    C210018  15.849   0.919   5.202  0.1384  0.0096  0.2245
  690loPI    C310019  15.563   1.007   4.937  0.2059 -0.2737  0.0537
  690loPI   PO410020  15.735   1.366   5.440  0.1976 -0.0514 -0.0616
  690loPI   GL110021  15.735   1.503   5.835  0.0998 -0.0328  0.4724
  690loPI   GL210022  16.052   1.483   5.879 -0.1911  0.1133 -0.0812
  690loPI   C1A10023  15.789   1.895   5.988 -0.1488  0.1128 -0.1142
  690loPI   C2A10024  15.745   2.052   6.410  0.1879  0.1713 -0.3683
  690loPI   C3A10025  15.824   2.200   6.804  0.2716 -0.0074  0.0291
  690loPI   C4A10026  15.939   2.414   7.220 -0.3176 -0.0717 -0.1655
  690loPI   C5A10027  16.259   2.307   7.480 -0.1615  0.2635 -0.4044
  690loPI   C6A10028  16.471   1.880   7.638  0.1685 -0.2186  0.0482
  690loPI   C1B10029  15.983   1.614   6.376  0.2369 -0.0497  0.0139
  690loPI   C2B10030  15.958   1.728   6.848 -0.1590 -0.0191 -0.3235
  690loPI   C3B10031  15.823   1.448   7.274  0.4036 -0.1841  0.2273
  690loPI   C4B10032  15.763   1.244   7.641 -0.0745 -0.0440 -0.1007
  691loPI    C110033   8.119   3.161   5.510  0.1747  0.3132  0.0361
  691loPI    C210034   7.826   2.978   5.309  0.3472 -0.0781  0.1301
  691loPI    C310035   7.770   3.347   5.453  0.0112 -0.0299 -0.1118
  691loPI   PO410036   8.241   2.991   5.617 -0.0231  0.0457  0.1902
  691loPI   GL110037   8.294   2.936   6.058  0.0056  0.0946  0.1131
  691loPI   GL210038   8.446   2.658   5.958  0.0254  0.0471  0.1518
  691loPI   C1A10039   8.104   3.086   6.373 -0.1088  0.0384 -0.0370
  691loPI   C2A10040   7.919   3.451   6.500 -0.3102 -0.0285  0.0228
  691loPI   C3A10041   7.808   3.576   6.911  0.4154 -0.0818  0.0451
  691loPI   C4A10042   7.714   3.349   7.173 -0.0215  0.1309  0.0280
  691loPI   C5A10043   7.510   3.005   7.313 -0.0627 -0.0352 -0.2754
  691loPI   C6A10044   7.244   2.651   7.270 -0.2110  0.1437 -0.1861
  691loPI   C1B10045   8.519   2.634   6.366 -0.1459 -0.2663  0.0157
  691loPI   C2B10046   8.890   2.680   6.563  0.2988 -0.0250 -0.1072
  691loPI   C3B10047   9.168   2.434   6.849 -0.2211 -0.1948  0.0749
  691loPI   C4B10048   9.504   2.191   6.939  0.3380  0.0032  0.0132
  692loPI    C110049   2.170  16.401   5.198  0.1258  0.1463  0.0509
  692loPI    C210050   1.885  16.678   5.154  0.1488  0.1203 -0.2940
  692loPI    C310051   2.152  16.710   5.451 -0.2575  0.1017  0.0839
  692loPI   PO410052   1.945  16.148   5.196 -0.0033 -0.2420  0.1854
  692loPI   GL110053   1.721  15.938   5.535 -0.2264 -0.0100 -0.3475
  692loPI   GL210054   1.690  15.668   5.579  0.3347 -0.2718 -0.2586
  692loPI   C1A10055   1.848  16.065   5.948  0.1452 -0.0462 -0.3259
  692loPI   C2A10056   2.031  16.312   6.329  0.0475  0.1295  0.0548
  692loPI   C3A10057   1.826  16.346   6.762 -0.0501 -0.2681 -0.3518
  692loPI   C4A10058   1.662  16.181   7.129  0.1259  0.2359 -0.1015
  692loPI   C5A10059   1.454  16.144   7.526 -0.0174  0.2561 -0.1411
  692loPI   C6A10060   1.357  15.986   7.852 -0.2328 -0.0948  0.0174
  692loPI   C1B10061   1.909  15.543   5.927  0.2605  0.1986 -0.0888
  692loPI   C2B10062   1.823  15.441   6.329  0.0783  0.0178 -0.1721
  692loPI   C3B10063   1.964  15.591   6.768 -0.0533 -0.2328  0.0728
  692loPI   C4B10064   2.052  15.792   7.154  0.1130 -0.1861  0.1714
  693loPI    C110065  12.744  15.753   5.277  0.1696  0.0599 -0.2431
  693loPI    C210066  12.742  15.485   4.980 -0.0432 -0.2357  0.0189
  693loPI    C310067  12.403  15.669   5.085  0.0376 -0.1084  0.0576
  693loPI   PO410068  12.834  15.613   5.490 -0.0923 -0.3671  0.0784
  693loPI   GL110069  12.646  15.507   5.934 -0.1678 -0.0105 -0.0637
  693loPI   GL210070  12.959  15.507   6.142  0.5982 -0.0649 -0.1829
  693loPI   C1A10071  12.458  15.563   6.350  0.0543  0.0493 -0.1708
  693loPI   C2A10072  12.414  15.790   6.567 -0.2050 -0.0396 -0.1353
  693loPI   C3A10073  12.398  15.959   6.995  0.0746 -0.2238 -0.0526
  693loPI   C4A10074  12.639  15.973   7.331 -0.0086  0.2576 -0.1543
  693loPI   C5A10075  12.756  16.243   7.636 -0.0236 -0.0554 -0.1428
  693loPI   C6A10076  13.061  16.251   7.996 -0.0865 -0.0081  0.0859
  693loPI   C1B10077  12.958  15.479   6.649  0.4385  0.0786 -0.3406
  693loPI   C2B10078  12.842  15.456   7.033  0.1839 -0.0615  0.1195
  693loPI   C3B10079  13.131  15.465   7.345  0.2495  0.2471  0.0453
  693loPI   C4B10080  13.425  15.474   7.715 -0.1631 -0.0905  0.0776
  694loPI    C110081   5.895  18.331   5.109  0.0712 -0.0334 -0.0002
  694loPI    C210082   5.957  17.995   4.902  0.2347 -0.0789  0.1205
  694loPI    C310083   6.126  18.337   4.783  0.1396 -0.0567  0.0476
  694loPI   PO410084   5.614  18.302   5.164 -0.1930 -0.0411 -0.0288
  694loPI   GL110085   5.442  18.270   5.511 -0.0199  0.0313  0.1329
  694loPI   GL210086   5.332  18.571   5.472 -0.1758 -0.0555  0.1817
  694loPI   C1A10087   5.531  18.141   5.876  0.0181 -0.2058  0.0357
  694loPI   C2A10088   5.753  17.856   6.125 -0.3236 -0.0290  0.3370
  694loPI   C3A10089   5.905  17.618   6.477 -0.0367 -0.3698 -0.3616
  694loPI   C4A10090   5.872  17.572   6.922  0.1638 -0.0915  0.0446
  694loPI   C5A10091   5.672  17.597   7.295  0.1232  0.2069 -0.1477
  694loPI   C6A10092   5.490  17.244   7.422 -0.3058 -0.1266 -0.3579
  694loPI   C1B10093   5.733  18.601   5.776 -0.0269 -0.0206  0.0303
  694loPI   C2B10094   5.899  18.315   6.206  0.0614  0.2589  0.3519
  694loPI   C3B10095   5.691  18.170   6.586 -0.0262 -0.3210 -0.0261
  694loPI   C4B10096   5.666  18.375   7.008  0.2437  0.0523  0.0842
  695loPI    C110097  14.414   7.148   5.601 -0.1737 -0.1226 -0.2270
  695loPI    C210098  14.779   6.996   5.661 -0.1364  0.0324 -0.0500
  695loPI    C310099  14.570   6.894   5.335  0.0462 -0.0912 -0.1298
  695loPI   PO410100  14.392   7.329   5.820  0.2305  0.1421 -0.0053
  695loPI   GL110101  14.392   7.692   6.147  0.1125  0.1708  0.3008
  695loPI   GL210102  14.145   7.694   6.037 -0.1153 -0.3051 -0.0198
  695loPI   C1A10103  14.317   7.651   6.565  0.0438 -0.1026 -0.0361
  695loPI   C2A10104  14.274   7.518   6.989  0.1465  0.2823 -0.0285
  695loPI   C3A10105  14.318   7.378   7.395 -0.1880  0.1117 -0.0357
  695loPI   C4A10106  14.391   7.072   7.613  0.1519 -0.2066  0.0055
  695loPI   C5A10107  14.410   6.755   7.932 -0.0973 -0.1124  0.2905
  695loPI   C6A10108  14.123   6.364   7.908  0.3784  0.0195 -0.0046
  695loPI   C1B10109  13.956   8.035   6.267  0.0855 -0.2995 -0.2869
  695loPI   C2B10110  13.958   8.412   6.318 -0.1624  0.2773  0.1397
  695loPI   C3B10111  13.959   8.547   6.773  0.0105  0.3620  0.0396
  695loPI   C4B10112  13.984   8.599   7.217 -0.3525 -0.0700 -0.1520
  696loPI    C110113  12.865  12.987   5.536 -0.0288 -0.0510 -0.2219
  696loPI    C210114  13.191  13.145   5.367  0.0609 -0.0344 -0.0359
  696loPI    C310115  12.827  13.252   5.239  0.1224  0.2152 -0.0081
  696loPI   PO410116  12.937  13.030   5.757  0.0612  0.3985 -0.0565
  696loPI   GL110117  13.067  12.824   6.201 -0.2330 -0.2453  0.1284
  696loPI   GL210118  13.021  12.579   6.224  0.2228  0.2990  0.1290
  696loPI   C1A10119  13.172  13.046   6.530  0.1544 -0.2425  0.1280
  696loPI   C2A10120  13.178  12.986   7.008  0.0053 -0.2916  0.3567
  696loPI   C3A10121  13.139  12.965   7.387 -0.1659  0.0636  0.2064
  696loPI   C4A10122  13.013  12.990   7.793 -0.2591  0.0910  0.1719
  696loPI   C5A10123  12.720  12.884   8.167 -0.1560 -0.0029 -0.2306
  696loPI   C6A10124  12.798  12.782   8.613  0.3154  0.0231  0.1977
  696loPI   C1B10125  12.937  12.551   6.656  0.0155  0.0336 -0.2598
  696loPI   C2B10126  13.074  12.481   7.096  0.3411  0.2824 -0.3411
  696loPI   C3B10127  12.884  12.515   7.569 -0.1215 -0.2142 -0.3758
  696loPI   C4B10128  12.809  12.436   7.976 -0.0922 -0.0885  0.0527
  697loPI    C110129   3.548   3.468   5.041 -0.0824  0.1074 -0.1629
  697loPI    C210130   3.884   3.551   4.840  0.0151 -0.0904 -0.0835
  697loPI    C310131   3.673   3.847   5.008  0.2857  0.0118  0.0827
  697loPI   PO410132   3.613   3.320   5.250  0.0466  0.0146  0.2379
  697loPI   GL110133   3.568   3.308   5.643  0.2954  0.1652 -0.0809
  697loPI   GL210134   3.975   3.155   5.809  0.1598 -0.0870  0.0530
  697loPI   C1A10135   3.323   3.489   5.985 -0.1640 -0.1483  0.1811
  697loPI   C2A10136   3.056   3.369   6.255 -0.2818 -0.3120 -0.1544
  697loPI   C3A10137   2.841   3.211   6.662 -0.1694 -0.1823 -0.3366
  697loPI   C4A10138   2.734   3.027   7.077 -0.0014  0.2738  0.0771
  697loPI   C5A10139   3.042   2.918   7.407  0.1408 -0.1659  0.0479
  697loPI   C6A10140   3.198   3.238   7.661  0.2239 -0.0209 -0.3245
  697loPI   C1B10141   3.997   3.171   6.258 -0.2527 -0.2870 -0.0469
  697loPI   C2B10142   3.859   2.982   6.589  0.2204  0.0851  0.1003
  697loPI   C3B10143   3.739   2.782   6.948 -0.0209 -0.2962 -0.0641
  697loPI   C4B10144   3.700   2.858   7.366 -0.1663  0.1469  0.1149
  698loPI    C110145  13.022   9.202   5.313 -0.0969  0.0767 -0.0855
  698loPI    C210146  13.405   9.278   5.229 -0.1061  0.1393 -0.0707
  698loPI    C310147  13.133   9.270   4.935 -0.1152  0.2247 -0.0649
  698loPI   PO410148  13.009   9.214   5.588 -0.0225 -0.1525 -0.0214
  698loPI   GL110149  13.272   9.363   5.768 -0.1197 -0.2169  0.0813
  698loPI   GL210150  13.406   9.070   5.877  0.2118  0.3263 -0.1488
  698loPI   C1A10151  13.224   9.524   6.162  0.0844  0.0479  0.2199
  698loPI   C2A10152  13.103   9.649   6.536  0.2583 -0.2681 -0.2378
  698loPI   C3A10153  13.095   9.781   6.909 -0.2045 -0.2541 -0.1385
  698loPI   C4A10154  13.306   9.782   7.305 -0.0450  0.1331  0.3051
  698loPI   C5A10155  13.408   9.677   7.674 -0.0975 -0.2261 -0.3950
  698loPI   C6A10156  13.235   9.449   8.091  0.0086 -0.0299 -0.2072
  698loPI   C1B10157  13.363   9.065   6.258  0.0900 -0.0145  0.0487
  698loPI   C2B10158  13.587   9.305   6.496 -0.1469  0.1612  0.2429
  698loPI   C3B10159  13.705   9.199   6.886 -0.2290  0.1762  0.1740
  698loPI   C4B10160  13.863   9.102   7.175 -0.1701  0.3173  0.0620
  699loPI    C110161   6.563  14.287   5.119  0.2304  0.3470 -0.0629
  699loPI    C210162   6.865  14.121   4.917 -0.0522 -0.1004 -0.1312
  699loPI    C310163   6.550  14.269   4.720 -0.0364  0.0494 -0.0451
  699loPI   PO410164   6.520  14.104   5.316  0.0467 -0.0770 -0.1937
  699loPI   GL110165   6.593  13.923   5.703  0.2392  0.2110 -0.0182
  699loPI   GL210166   6.363  13.730   5.832  0.0018 -0.1965  0.0875
  699loPI   C1A10167   6.606  14.213   6.116 -0.1228 -0.2258 -0.0444
  699loPI   C2A10168   6.783  14.296   6.462 -0.1905  0.0986 -0.3001
  699loPI   C3A10169   6.865  14.301   6.813  0.1225 -0.0656  0.1354
  699loPI   C4A10170   7.036  14.342   7.154 -0.0383  0.2690  0.0312
  699loPI   C5A10171   6.970  14.416   7.657 -0.3527 -0.2223 -0.0181
  699loPI   C6A10172   6.755  14.761   7.851  0.3173  0.1462  0.0411
  699loPI   C1B10173   6.341  13.622   6.301  0.3596 -0.5348 -0.1756
  699loPI   C2B10174   6.106  13.703   6.685  0.1103  0.0445  0.0071
  699loPI   C3B10175   6.264  13.834   7.119 -0.4987 -0.2130  0.1420
  699loPI   C4B10176   6.181  13.890   7.568 -0.0757  0.3830 -0.1961
  700loPI    C110177   8.044  18.291   5.296  0.1622  0.2887 -0.0149
  700loPI    C210178   8.173  18.003   5.050  0.0855  0.1023  0.1603
  700loPI    C310179   8.247  18.387   4.964  0.2884  0.0260 -0.0163
  700loPI   PO410180   8.115  18.234   5.560 -0.1986  0.3784  0.0211
  700loPI   GL110181   8.246  17.991   5.895  0.2213 -0.0879 -0.1990
  700loPI   GL210182   8.036  18.058   6.077 -0.1673 -0.0117  0.0203
  700loPI   C1A10183   8.347  17.782   6.343 -0.1616  0.2052  0.0295
  700loPI   C2A10184   8.621  17.649   6.675  0.0480  0.0680 -0.2048
  700loPI   C3A10185   8.631  17.777   7.037 -0.2692 -0.0317  0.2515
  700loPI   C4A10186   8.895  17.836   7.557  0.0023  0.1398 -0.1865
  700loPI   C5A10187   9.178  17.923   7.912  0.0817  0.2675  0.2241
  700loPI   C6A10188   9.589  18.005   7.835  0.0226  0.1079  0.1655
  700loPI   C1B10189   7.809  18.452   6.231  0.0875 -0.1574  0.0907
  700loPI   C2B10190   7.544  18.562   6.597  0.1327  0.3365  0.0329
  700loPI   C3B10191   7.552  18.603   7.083 -0.0560  0.0601  0.2649
  700loPI   C4B10192   7.137  18.557   7.340 -0.1863  0.1524 -0.0071
  701loPI    C110193   4.438   2.580   5.348  0.0704  0.0407 -0.0640
  701loPI    C210194   4.415   2.761   4.992  0.0087  0.1125 -0.0239
  701loPI    C310195   4.735   2.818   5.225 -0.0611  0.2600  0.0368
  701loPI   PO410196   4.237   2.624   5.490  0.1291 -0.0483  0.2532
  701loPI   GL110197   4.222   2.771   5.899 -0.0677  0.2084 -0.0519
  701loPI   GL210198   4.087   2.707   6.191 -0.0512 -0.2768  0.1650
  701loPI   C1A10199   4.475   3.068   6.046 -0.2555  0.1992  0.3015
  701loPI   C2A10200   4.722   3.337   6.399 -0.0527 -0.2143  0.1134
  701loPI   C3A10201   4.769   3.571   6.746  0.0349  0.1680 -0.1032
  701loPI   C4A10202   4.769   3.448   7.120 -0.1268  0.1278  0.2538
  701loPI   C5A10203   4.578   3.207   7.327  0.4668  0.1097 -0.1232
  701loPI   C6A10204   4.496   2.838   7.611  0.3722 -0.3790 -0.2301
  701loPI   C1B10205   4.074   2.549   6.545  0.1747 -0.0894 -0.0281
  701loPI   C2B10206   4.204   2.592   6.899  0.0891 -0.0669  0.0293
  701loPI   C3B10207   4.131   2.617   7.284 -0.2967  0.0582 -0.1515
  701loPI   C4B10208   3.977   2.667   7.711  0.2777 -0.2702  0.0235
  702loPI    C110209   4.654  15.540   4.970 -0.1753  0.0987  0.0977
  702loPI    C210210   4.575  15.225   5.204 -0.0310 -0.0056  0.0076
  702loPI    C310211   4.540  15.193   4.807  0.3559 -0.0258 -0.0294
  702loPI   PO410212   4.908  15.580   5.042 -0.0245  0.0876 -0.1725
  702loPI   GL110213   5.232  15.700   5.431  0.1164  0.0213 -0.0439
  702loPI   GL210214   5.173  15.390   5.720  0.1530  0.0644 -0.2457
  702loPI   C1A10215   5.418  15.863   5.877 -0.4036 -0.0689  0.2450
  702loPI   C2A10216   5.474  15.831   6.375 -0.3048  0.0729 -0.1198
  702loPI   C3A10217   5.360  15.882   6.752 -0.4564  0.0199  0.0076
  702loPI   C4A10218   5.342  15.878   7.152  0.1883 -0.1236 -0.1738
  702loPI   C5A10219   5.218  15.946   7.547 -0.3575 -0.0554 -0.1092
  702loPI   C6A10220   5.226  15.847   7.910 -0.3494 -0.1234 -0.2151
  702loPI   C1B10221   4.777  15.176   5.912 -0.0434  0.1424 -0.0284
  702loPI   C2B10222   4.617  15.279   6.330  0.0923 -0.0900  0.0729
  702loPI   C3B10223   4.664  15.309   6.653 -0.0015  0.1910  0.1688
  702loPI   C4B10224   4.724  15.222   7.101 -0.0678 -0.1904  0.2225
  703loPI    C110225   4.823   9.519   5.338 -0.0982 -0.1892 -0.0644
  703loPI    C210226   5.064   9.248   5.506  0.2342  0.2364  0.1638
  703loPI    C310227   5.054   9.287   5.108  0.2030 -0.0878  0.1301
  703loPI   PO410228   4.612   9.508   5.502 -0.0234 -0.1866  0.0036
  703loPI   GL110229   4.547   9.667   5.840 -0.0531  0.3912 -0.0667
  703loPI   GL210230   4.693  10.050   5.725  0.0780 -0.0436  0.1431
  703loPI   C1A10231   4.595   9.590   6.244  0.0872  0.3926  0.0346
  703loPI   C2A10232   4.743   9.563   6.586 -0.0236  0.1694  0.1059
  703loPI   C3A10233   4.921   9.458   6.976 -0.2946 -0.0685 -0.0497
  703loPI   C4A10234   4.857   9.788   7.225  0.1320  0.0389  0.0129
  703loPI   C5A10235   5.045   9.881   7.614 -0.1016 -0.1251  0.1184
  703loPI   C6A10236   5.177   9.846   8.102  0.0814  0.2561  0.1669
  703loPI   C1B10237   4.820   9.995   6.120 -0.0444 -0.0168  0.2759
  703loPI   C2B10238   4.920   9.993   6.588  0.0951 -0.1849 -0.2551
  703loPI   C3B10239   4.734  10.238   6.879  0.4145  0.0554  0.0677
  703loPI   C4B10240   4.700  10.250   7.417  0.3160  0.0648  0.2479
  704loPI    C110241   6.794   0.218   5.278  0.1599  0.2110 -0.2912
  704loPI    C210242   6.469   0.254   5.046 -0.2113 -0.2362  0.1371
  704loPI    C310243   6.548   0.529   5.326 -0.2027 -0.1115  0.0127
  704loPI   PO410244   6.996  -0.052   5.210 -0.0502 -0.1805 -0.0335
  704loPI   GL110245   7.171  -0.174   5.705  0.0030  0.2161 -0.2439
  704loPI   GL210246   7.306  -0.413   5.844  0.1127 -0.0131 -0.2073
  704loPI   C1A10247   7.298  -0.025   6.178  0.0846 -0.3053  0.1659
  704loPI   C2A10248   7.281   0.380   6.237  0.1160 -0.1384 -0.2375
  704loPI   C3A10249   7.089   0.589   6.545 -0.0745 -0.1214 -0.0863
  704loPI   C4A10250   6.983   0.736   7.005 -0.0617  0.1890  0.1674
  704loPI   C5A10251   6.856   0.707   7.564  0.1062  0.1467 -0.2593
  704loPI   C6A10252   6.481   0.622   7.691 -0.1488 -0.0059  0.0909
  704loPI   C1B10253   7.271  -0.548   6.223 -0.0347 -0.1513 -0.1117
  704loPI   C2B10254   7.362  -0.838   6.594 -0.0181 -0.0137 -0.1666
  704loPI   C3B10255   7.412  -0.869   7.044 -0.0354 -0.0191 -0.1805
  704loPI   C4B10256   7.066  -0.823   7.280 -0.0029 -0.0476  0.0063
  705loPI    C110257   9.781   5.447   5.485 -0.1793 -0.0292 -0.0565
  705loPI    C210258   9.689   5.787   5.674 -0.0837  0.1497 -0.3271
  705loPI    C310259   9.496   5.686   5.338 -0.0109  0.0095 -0.3271
  705loPI   PO410260   9.784   5.301   5.782  0.0613 -0.0510  0.1238
  705loPI   GL110261   9.642   5.277   6.266 -0.3175 -0.1912 -0.0848
  705loPI   GL210262   9.285   5.341   6.381  0.0126  0.1036  0.0941
  705loPI   C1A10263   9.845   4.961   6.675 -0.4705 -0.0958  0.0112
  705loPI   C2A10264   9.802   4.772   7.065 -0.5048 -0.2227  0.3682
  705loPI   C3A10265   9.947   4.467   7.274  0.2778 -0.1693 -0.2100
  705loPI   C4A10266  10.070   4.189   7.647  0.0152  0.1913  0.3098
  705loPI   C5A10267  10.049   3.664   7.679  0.1840 -0.1203 -0.2097
  705loPI   C6A10268  10.148   3.451   7.255 -0.1652  0.0596  0.1660
  705loPI   C1B10269   9.067   5.373   6.774 -0.0709 -0.2560 -0.3062
  705loPI   C2B10270   8.966   5.274   7.220  0.1467  0.1250 -0.0143
  705loPI   C3B10271   8.740   5.324   7.555 -0.0172  0.0401  0.1832
  705loPI   C4B10272   8.445   5.339   7.966  0.3486  0.1561  0.0582
  706loPI    C110273  15.509  14.740   5.092  0.1946  0.0326 -0.0373
  706loPI    C210274  15.668  15.020   4.856  0.1383  0.0038 -0.1096
  706loPI    C310275  15.867  14.680   4.926  0.0663 -0.0753 -0.2810
  706loPI   PO410276  15.216  14.857   5.212 -0.1697  0.0194  0.0706
  706loPI   GL110277  15.076  14.665   5.604 -0.2820 -0.1422 -0.1516
  706loPI   GL210278  15.053  14.367   5.700  0.4754 -0.0925  0.0080
  706loPI   C1A10279  14.899  14.725   5.962  0.0218 -0.0661 -0.0381
  706loPI   C2A10280  14.890  14.587   6.470 -0.0196  0.5153 -0.1385
  706loPI   C3A10281  14.885  14.486   6.926 -0.3238  0.1535  0.1640
  706loPI   C4A10282  15.025  14.332   7.373  0.1715 -0.0441  0.1660
  706loPI   C5A10283  14.969  14.218   7.801  0.3066 -0.0327 -0.0822
  706loPI   C6A10284  15.090  13.813   7.980 -0.0708 -0.1367 -0.1290
  706loPI   C1B10285  15.065  14.227   6.167 -0.1206 -0.1559 -0.2883
  706loPI   C2B10286  15.050  14.128   6.558 -0.0230  0.0071  0.3628
  706loPI   C3B10287  14.848  13.972   6.949  0.0323 -0.3512 -0.0115
  706loPI   C4B10288  14.563  13.977   7.176 -0.0167  0.1406  0.0860
  707loPI    C110289   4.067  10.497   5.179  0.2492  0.0773 -0.0528
  707loPI    C210290   4.051  10.154   4.974  0.2135  0.0752 -0.0464
  707loPI    C310291   4.142  10.495   4.786 -0.1289  0.1249 -0.1286
  707loPI   PO410292   4.247  10.382   5.395 -0.0441 -0.0934 -0.1842
  707loPI   GL110293   4.446  10.463   5.889 -0.1767 -0.0734 -0.0543
  707loPI   GL210294   4.385  10.756   5.882  0.1802  0.0846 -0.1534
  707loPI   C1A10295   4.573  10.395   6.364 -0.0395 -0.3095  0.2298
  707loPI   C2A10296   4.463  10.647   6.638  0.1606 -0.0127  0.2640
  707loPI   C3A10297   4.328  11.045   6.779  0.1839 -0.0287  0.0973
  707loPI   C4A10298   4.279  11.135   7.318  0.1722 -0.0189 -0.0098
  707loPI   C5A10299   3.895  11.098   7.624  0.1957  0.2105 -0.0756
  707loPI   C6A10300   3.552  10.915   7.869  0.1543  0.0056  0.2264
  707loPI   C1B10301   4.737  10.922   6.143 -0.0947 -0.0581  0.0378
  707loPI   C2B10302   4.765  11.064   6.541  0.1881 -0.2206 -0.2404
  707loPI   C3B10303   4.790  10.906   6.930  0.2829  0.2811 -0.1692
  707loPI   C4B10304   4.557  10.701   7.233 -0.0437  0.0125  0.0695
  708loPI    C110305  17.976  16.857   5.231  0.0498 -0.1546 -0.1662
  708loPI    C210306  17.866  17.183   5.027  0.0407  0.0455  0.1524
  708loPI    C310307  17.805  16.820   4.872 -0.3335  0.1799 -0.0256
  708loPI   PO410308  18.197  16.884   5.291 -0.1095  0.0209 -0.1421
  708loPI   GL110309  18.454  17.031   5.620 -0.2353 -0.1409  0.1143
  708loPI   GL210310  18.658  17.222   5.674  0.0926  0.0811  0.3115
  708loPI   C1A10311  18.454  16.746   5.908  0.0612  0.0845  0.1695
  708loPI   C2A10312  18.479  16.846   6.447  0.3528 -0.0094  0.0470
  708loPI   C3A10313  18.397  16.913   6.806  0.1243 -0.0804  0.1815
  708loPI   C4A10314  18.185  16.961   7.281  0.4091 -0.2486  0.0927
  708loPI   C5A10315  17.839  16.971   7.593 -0.3995  0.1024  0.1893
  708loPI   C6A10316  17.761  16.767   7.903 -0.1281 -0.0609  0.0219
  708loPI   C1B10317  18.652  17.215   6.052  0.0727  0.0123 -0.2829
  708loPI   C2B10318  18.777  17.200   6.541  0.1044 -0.0253 -0.0477
  708loPI   C3B10319  18.955  16.898   6.917  0.2299 -0.0866 -0.3011
  708loPI   C4B10320  18.691  16.895   7.302 -0.2873 -0.1324  0.0527
  709loPI    C110321   4.047  12.023   5.039  0.0557 -0.0440 -0.0173
  709loPI    C210322   4.231  11.949   4.691  0.1055 -0.2067  0.0426
  709loPI    C310323   3.857  12.091   4.693  0.1198 -0.1658 -0.0775
  709loPI   PO410324   4.132  11.785   5.257  0.1151  0.1719  0.2012
  709loPI   GL110325   4.167  11.750   5.648  0.0662  0.0615  0.2945
  709loPI   GL210326   4.300  12.047   5.834 -0.0768  0.3429 -0.4153
  709loPI   C1A10327   4.378  11.593   6.018 -0.0094 -0.1638  0.1632
  709loPI   C2A10328   4.767  11.439   6.127 -0.4048  0.0019 -0.5021
  709loPI   C3A10329   5.081  11.490   6.541  0.2805 -0.0711  0.0273
  709loPI   C4A10330   5.204  11.424   6.883 -0.2117 -0.2804  0.0528
  709loPI   C5A10331   5.230  11.555   7.380 -0.4266 -0.2512  0.1678
  709loPI   C6A10332   5.335  11.778   7.784 -0.0493  0.1679  0.1063
  709loPI   C1B10333   4.401  12.217   6.339  0.3213  0.1519 -0.0019
  709loPI   C2B10334   4.478  12.224   6.721 -0.5133  0.1552 -0.2338
  709loPI   C3B10335   4.412  11.974   7.037  0.0731 -0.1758  0.1056
  709loPI   C4B10336   4.147  11.709   7.229 -0.3040 -0.2679  0.2018
  710loPI    C110337  14.187   9.094   5.131  0.0759  0.1856 -0.0169
  710loPI    C210338  13.884   9.316   4.994 -0.1514  0.0038  0.1823
  710loPI    C310339  14.017   9.005   4.780 -0.1081  0.0803  0.0973
  710loPI   PO410340  14.265   9.153   5.305 -0.1315  0.0390 -0.2445
  710loPI   GL110341  14.219   8.947   5.763  0.4249 -0.0376 -0.1408
  710loPI   GL210342  13.901   8.766   5.886 -0.0967 -0.0088  0.0144
  710loPI   C1A10343  14.272   9.176   6.132  0.1074  0.0100  0.1296
  710loPI   C2A10344  14.464   9.403   6.534 -0.1097  0.1493 -0.1039
  710loPI   C3A10345  14.820   9.348   6.867  0.3473 -0.1027 -0.4041
  710loPI   C4A10346  14.803   9.294   7.272 -0.1885  0.0730  0.1344
  710loPI   C5A10347  14.641   9.361   7.700  0.0179  0.1158  0.0576
  710loPI   C6A10348  14.842   9.233   8.040 -0.1817 -0.2076  0.2074
  710loPI   C1B10349  13.887   8.913   6.306  0.1298 -0.3149  0.3434
  710loPI   C2B10350  14.155   9.055   6.664  0.0300  0.2067 -0.0493
  710loPI   C3B10351  14.379   8.853   7.003  0.2234 -0.0876  0.1962
  710loPI   C4B10352  14.454   8.915   7.364 -0.2030  0.3027 -0.1533
  711loPI    C110353   1.911  11.706   5.269 -0.1145 -0.1399  0.1589
  711loPI    C210354   1.622  11.697   4.992  0.0778  0.0397 -0.0512
  711loPI    C310355   1.994  11.584   4.898  0.0784 -0.1947  0.2190
  711loPI   PO410356   1.911  11.863   5.430 -0.1100 -0.0243 -0.2168
  711loPI   GL110357   2.110  11.940   5.714 -0.1104  0.0632  0.0115
  711loPI   GL210358   2.221  12.173   5.849 -0.1427  0.0368 -0.2645
  711loPI   C1A10359   2.166  11.743   6.072  0.1473  0.1029 -0.0161
  711loPI   C2A10360   2.257  11.549   6.417  0.2606 -0.0349 -0.0450
  711loPI   C3A10361   2.252  11.494   6.875  0.0488 -0.0569  0.1113
  711loPI   C4A10362   2.356  11.550   7.269  0.2541  0.2880 -0.2707
  711loPI   C5A10363   2.579  11.779   7.454  0.1136  0.0788  0.2146
  711loPI   C6A10364   2.665  11.976   7.756  0.2694  0.2159 -0.1590
  711loPI   C1B10365   2.251  12.392   6.222  0.1555 -0.2637  0.1245
  711loPI   C2B10366   2.222  12.390   6.686  0.1715  0.0003  0.0517
  711loPI   C3B10367   2.243  12.524   7.122  0.0166  0.1351 -0.0488
  711loPI   C4B10368   2.187  12.528   7.548 -0.2153  0.2373 -0.0939
  712loPI    C110369  11.847   1.044   5.363  0.0462  0.1520  0.1760
  712loPI    C210370  11.978   1.081   4.987 -0.0963  0.3869  0.1475
  712loPI    C310371  11.762   0.761   5.093  0.2160  0.1598  0.1129
  712loPI   PO410372  12.036   1.088   5.508 -0.1784 -0.0190  0.1224
  712loPI   GL110373  12.153   1.264   5.901  0.0246  0.1053  0.0885
  712loPI   GL210374  12.457   1.030   5.825 -0.3202 -0.2838 -0.0235
  712loPI   C1A10375  12.236   1.388   6.341  0.1197  0.1428  0.2590
  712loPI   C2A10376  12.127   1.362   6.748  0.0498 -0.0545  0.1957
  712loPI   C3A10377  11.919   1.337   7.121 -0.2428  0.0417 -0.0308
  712loPI   C4A10378  11.999   1.044   7.463  0.3011  0.2133 -0.2687
  712loPI   C5A10379  12.074   1.137   7.841  0.0294 -0.1366 -0.0373
  712loPI   C6A10380  12.188   1.155   8.230  0.1698 -0.0903 -0.0074
  712loPI   C1B10381  12.562   1.000   6.233 -0.1069  0.4336 -0.0121
  712loPI   C2B10382  12.602   1.127   6.618  0.1652 -0.0300  0.0198
  712loPI   C3B10383  12.460   1.051   6.957 -0.2280  0.1595  0.2828
  712loPI   C4B10384  12.366   1.327   7.287 -0.0967  0.3772 -0.1780
  713loPI    C110385  11.129  12.528   5.526 -0.0352  0.0742 -0.2530
  713loPI    C210386  10.780  12.597   5.342 -0.2455 -0.1070  0.0678
  713loPI    C310387  10.950  12.236   5.319 -0.0983 -0.0314 -0.0515
  713loPI   PO410388  11.038  12.625   5.854  0.1176  0.2114 -0.1627
  713loPI   GL110389  10.790  12.535   6.184  0.0032  0.0312  0.0326
  713loPI   GL210390  10.627  12.255   6.130  0.1948  0.2715 -0.1052
  713loPI   C1A10391  10.701  12.580   6.607  0.3987 -0.1129 -0.0980
  713loPI   C2A10392  10.636  12.636   7.010  0.0620  0.5319 -0.2496
  713loPI   C3A10393  10.604  12.728   7.417 -0.0936 -0.1499 -0.0310
  713loPI   C4A10394  10.647  12.921   7.772  0.1466  0.2142 -0.0560
  713loPI   C5A10395  10.454  13.393   7.865 -0.0365 -0.0460  0.1721
  713loPI   C6A10396  10.459  13.867   7.925  0.0308 -0.0290 -0.1324
  713loPI   C1B10397  10.685  12.103   6.586 -0.1675 -0.0556 -0.2723
  713loPI   C2B10398  10.707  12.134   7.027  0.2452 -0.0494 -0.1368
  713loPI   C3B10399  10.966  11.890   7.341  0.0403  0.2083  0.2026
  713loPI   C4B10400  11.143  11.999   7.700  0.0020 -0.1480  0.0725
  714loPI    C110401  11.479   2.356   5.196  0.0597 -0.2000 -0.1596
  714loPI    C210402  11.255   2.271   4.876  0.0328 -0.1974 -0.1415
  714loPI    C310403  11.619   2.430   4.829 -0.0609  0.0150 -0.1641
  714loPI   PO410404  11.345   2.514   5.353  0.0821 -0.0288 -0.0189
  714loPI   GL110405  11.148   2.634   5.735  0.4297 -0.0901  0.0825
  714loPI   GL210406  11.157   2.987   5.720  0.1608 -0.0121  0.0207
  714loPI   C1A10407  11.316   2.558   6.107  0.0557  0.0914 -0.0356
  714loPI   C2A10408  11.307   2.452   6.462  0.0114  0.1062 -0.3223
  714loPI   C3A10409  11.033   2.132   6.649 -0.0886 -0.1458 -0.0932
  714loPI   C4A10410  11.123   1.929   7.092  0.0008 -0.0994 -0.0350
  714loPI   C5A10411  11.265   1.628   7.335  0.2217 -0.4826 -0.1266
  714loPI   C6A10412  11.319   1.469   7.739  0.1010 -0.0808 -0.0458
  714loPI   C1B10413  11.059   2.981   6.123 -0.2056 -0.2061 -0.0885
  714loPI   C2B10414  11.200   3.005   6.467 -0.3601 -0.0235  0.0389
  714loPI   C3B10415  11.256   2.956   6.916  0.1798  0.0382  0.1454
  714loPI   C4B10416  10.963   2.789   7.174  0.0700 -0.2803 -0.1112
  715loPI    C110417   0.240  14.685   5.288 -0.0607 -0.0523  0.1462
  715loPI    C210418   0.374  14.872   4.960 -0.2641 -0.1474  0.0070
  715loPI    C310419   0.540  14.527   5.077 -0.2113 -0.1288 -0.0132
  715loPI   PO410420   0.350  14.824   5.528  0.2037  0.0347 -0.3324
  715loPI   GL110421   0.221  14.857   5.935  0.1028 -0.1116 -0.0958
  715loPI   GL210422   0.120  15.144   5.888  0.0203 -0.3108 -0.1394
  715loPI   C1A10423   0.184  14.699   6.346  0.1151  0.1076 -0.0918
  715loPI   C2A10424   0.170  14.834   6.762 -0.3961  0.1735 -0.1962
  715loPI   C3A10425   0.238  15.035   7.209 -0.0400 -0.1465  0.0342
  715loPI   C4A10426   0.576  14.965   7.600 -0.3344  0.2491  0.0067
  715loPI   C5A10427   1.003  14.914   7.520 -0.0365 -0.2762  0.0633
  715loPI   C6A10428   1.317  14.665   7.578 -0.0615  0.4136  0.0804
  715loPI   C1B10429   0.111  15.369   6.235 -0.0212  0.1830  0.0277
  715loPI   C2B10430   0.093  15.338   6.708 -0.3201 -0.1669 -0.3182
  715loPI   C3B10431   0.028  15.470   7.187  0.0716  0.1115  0.1549
  715loPI   C4B10432  -0.003  15.268   7.625  0.2445 -0.1551 -0.0030
  716loPI    C110433  12.193   0.058   5.300 -0.2072  0.1275  0.2111
  716loPI    C210434  11.797   0.093   5.341 -0.2925 -0.1393 -0.2980
  716loPI    C310435  11.967   0.154   4.984  0.1050 -0.2087 -0.1261
  716loPI   PO410436  12.317  -0.186   5.350  0.0399  0.0963  0.1023
  716loPI   GL110437  12.484  -0.262   5.700 -0.1628 -0.2663 -0.0025
  716loPI   GL210438  12.429  -0.593   5.733 -0.0191 -0.4320  0.1097
  716loPI   C1A10439  12.683  -0.302   6.106  0.2513 -0.0234  0.0304
  716loPI   C2A10440  12.708  -0.104   6.487  0.1848  0.1231 -0.0961
  716loPI   C3A10441  12.914  -0.142   6.903 -0.1068 -0.1237 -0.0031
  716loPI   C4A10442  12.849  -0.292   7.341  0.2647 -0.4296 -0.1280
  716loPI   C5A10443  12.645  -0.617   7.650 -0.2014 -0.2362  0.0211
  716loPI   C6A10444  12.583  -0.671   8.083 -0.1834 -0.3542 -0.3899
  716loPI   C1B10445  12.383  -0.844   6.093  0.0508  0.1417  0.3728
  716loPI   C2B10446  12.197  -0.942   6.480 -0.2213 -0.2359 -0.1686
  716loPI   C3B10447  12.192  -0.966   6.848 -0.1686  0.0123 -0.1092
  716loPI   C4B10448  12.238  -1.007   7.369  0.4469  0.1045 -0.2395
  717loPI    C110449  14.035   1.935   4.977 -0.2283  0.0504 -0.0137
  717loPI    C210450  14.081   1.609   4.751 -0.4547  0.1682 -0.2342
  717loPI    C310451  14.364   1.891   4.755 -0.0199 -0.2532  0.3437
  717loPI   PO410452  13.884   1.809   5.221  0.0628  0.1585 -0.0004
  717loPI   GL110453  13.863   1.546   5.553 -0.0002 -0.1865 -0.1497
  717loPI   GL210454  14.126   1.570   5.700 -0.1022  0.2542 -0.2512
  717loPI   C1A10455  13.815   1.135   5.716 -0.0232 -0.1745 -0.1017
  717loPI   C2A10456  13.547   0.868   5.873  0.1071 -0.1329  0.0962
  717loPI   C3A10457  13.493   0.987   6.272  0.1949 -0.3693  0.2729
  717loPI   C4A10458  13.473   1.088   6.656 -0.1967 -0.1166  0.0452
  717loPI   C5A10459  13.500   0.984   7.076 -0.4074 -0.0750 -0.1129
  717loPI   C6A10460  13.513   1.001   7.531 -0.0142  0.4263  0.0167
  717loPI   C1B10461  14.022   1.712   6.045  0.2235 -0.0244  0.1788
  717loPI   C2B10462  13.982   1.704   6.473 -0.0180  0.0188 -0.1059
  717loPI   C3B10463  14.043   1.874   6.920 -0.1082  0.1085  0.0018
  717loPI   C4B10464  14.248   1.607   7.255  0.0960 -0.0294 -0.0136
  718loPI    C110465   4.874  17.564   5.272 -0.0161 -0.1347 -0.2062
  718loPI    C210466   4.781  17.249   5.044  0.1910 -0.2785 -0.0955
  718loPI    C310467   4.543  17.353   5.348 -0.0172 -0.1650 -0.2944
  718loPI   PO410468   5.100  17.536   5.402  0.1694 -0.0790  0.1348
  718loPI   GL110469   5.270  17.735   5.744  0.1887 -0.1574  0.0817
  718loPI   GL210470   5.030  17.948   5.706  0.1332 -0.0019 -0.3244
  718loPI   C1A10471   5.304  17.652   6.139 -0.2685 -0.3589  0.2839
  718loPI   C2A10472   5.446  17.698   6.492 -0.2404 -0.1674 -0.1013
  718loPI   C3A10473   5.479  17.912   6.974  0.0500  0.1460  0.3342
  718loPI   C4A10474   5.438  18.081   7.386 -0.1302 -0.1879  0.2502
  718loPI   C5A10475   5.815  18.306   7.610 -0.2215 -0.3692  0.1823
  718loPI   C6A10476   6.041  18.564   7.771 -0.1710 -0.0405  0.5684
  718loPI   C1B10477   4.849  17.872   6.124  0.0852 -0.0490  0.2625
  718loPI   C2B10478   4.845  17.836   6.563  0.0829 -0.1343  0.0036
  718loPI   C3B10479   5.048  17.759   6.872 -0.2386  0.2505 -0.0775
  718loPI   C4B10480   5.059  17.751   7.237  0.0815  0.1986  0.2364
  719loPI    C110481   1.307   4.131   5.209  0.0746 -0.0982  0.1324
  719loPI    C210482   1.563   3.911   4.994  0.0520 -0.2462  0.2543
  719loPI    C310483   1.216   4.029   4.833  0.1454 -0.1416  0.1268
  719loPI   PO410484   1.264   4.040   5.419  0.2487  0.0863 -0.0217
  719loPI   GL110485   1.285   3.895   5.744  0.0461  0.2640 -0.0853
  719loPI   GL210486   1.088   3.698   5.967  0.1812  0.0689  0.0642
  719loPI   C1A10487   1.379   4.001   6.133  0.2571  0.0352 -0.0988
  719loPI   C2A10488   1.376   3.962   6.606  0.0268  0.1640 -0.1750
  719loPI   C3A10489   1.385   3.904   6.913  0.3195 -0.2753 -0.2745
  719loPI   C4A10490   1.351   4.022   7.324  0.0740 -0.3389  0.0932
  719loPI   C5A10491   1.476   3.928   7.712 -0.0974  0.3094  0.1252
  719loPI   C6A10492   1.734   3.690   7.943 -0.2328  0.0525 -0.4453
  719loPI   C1B10493   1.051   3.702   6.320  0.0917  0.0660 -0.2847
  719loPI   C2B10494   1.015   3.574   6.753  0.2887  0.1137 -0.1967
  719loPI   C3B10495   1.025   3.256   7.098  0.4223 -0.2342 -0.1604
  719loPI   C4B10496   1.173   3.097   7.476 -0.0026 -0.1126 -0.3368
  720loPI    C110497   1.436   7.021   5.357  0.1476  0.0117  0.1541
  720loPI    C210498   1.336   7.216   5.022 -0.0667 -0.0196  0.1980
  720loPI    C310499   1.526   6.865   5.000 -0.0351  0.0026  0.1107
  720loPI   PO410500   1.240   7.061   5.538  0.1861  0.2483 -0.0952
  720loPI   GL110501   1.260   6.917   5.886 -0.0098  0.1795 -0.0707
  720loPI   GL210502   1.529   6.744   6.036  0.0295  0.1862 -0.0573
  720loPI   C1A10503   1.248   7.257   6.155  0.3758 -0.0552 -0.1748
  720loPI   C2A10504   1.389   7.302   6.569 -0.1197  0.0891  0.3184
  720loPI   C3A10505   1.536   7.521   6.923 -0.2111  0.0694  0.0294
  720loPI   C4A10506   1.809   7.672   7.258  0.2423  0.0941  0.1885
  720loPI   C5A10507   1.961   7.949   7.751  0.2366  0.1068 -0.3137
  720loPI   C6A10508   2.084   8.180   8.084  0.2131 -0.0801 -0.1681
  720loPI   C1B10509   1.768   6.331   6.202  0.0951  0.0588  0.1250
  720loPI   C2B10510   1.843   6.402   6.636  0.1886 -0.2014  0.2434
  720loPI   C3B10511   1.900   6.568   7.000 -0.2109  0.1093  0.1048
  720loPI   C4B10512   1.823   6.666   7.449 -0.2443 -0.0941  0.2218
  721loPI    C110513   7.644  10.126   5.427 -0.1517 -0.1347 -0.0568
  721loPI    C210514   7.271  10.269   5.448 -0.0687  0.0583  0.1396
  721loPI    C310515   7.379  10.038   5.140 -0.3113  0.1117  0.0116
  721loPI   PO410516   7.858  10.066   5.644 -0.0415 -0.1627  0.0524
  721loPI   GL110517   7.865   9.978   6.134 -0.1919  0.1869 -0.1042
  721loPI   GL210518   7.607  10.179   6.336 -0.0170 -0.2100  0.1680
  721loPI   C1A10519   7.998  10.328   6.511 -0.2130 -0.3558 -0.1160
  721loPI   C2A10520   8.401  10.492   6.683 -0.0265  0.0300 -0.1163
  721loPI   C3A10521   8.637  10.655   6.893 -0.4750 -0.3159  0.2040
  721loPI   C4A10522   8.850  10.746   7.259  0.2186 -0.0221 -0.1546
  721loPI   C5A10523   8.736  10.682   7.690 -0.1329  0.2186  0.1501
  721loPI   C6A10524   8.620  10.851   8.042  0.1251 -0.1171  0.1500
  721loPI   C1B10525   7.415  10.264   6.753 -0.0756 -0.0455  0.2697
  721loPI   C2B10526   7.553  10.199   7.162 -0.0484 -0.1952 -0.2674
  721loPI   C3B10527   7.397  10.088   7.513  0.1846 -0.0107  0.0183
  721loPI   C4B10528   7.364  10.264   7.907 -0.2267  0.1080 -0.2846
  722loPI    C110529  10.478  16.795   5.093  0.0900  0.0137 -0.0294
  722loPI    C210530  10.356  16.434   4.970  0.2592 -0.0846  0.0862
  722loPI    C310531  10.739  16.540   4.929  0.1754  0.1522 -0.1098
  722loPI   PO410532  10.367  16.803   5.388 -0.0668  0.1116  0.2557
  722loPI   GL110533  10.520  16.884   5.866 -0.0240  0.2591  0.1901
  722loPI   GL210534  10.424  17.118   6.112  0.0446 -0.0507 -0.0893
  722loPI   C1A10535  10.369  16.592   6.263  0.0495  0.2217  0.0614
  722loPI   C2A10536  10.400  16.534   6.678  0.1470  0.1930 -0.0240
  722loPI   C3A10537  10.501  16.364   7.095 -0.1599 -0.1500 -0.0157
  722loPI   C4A10538  10.685  16.302   7.565 -0.2890  0.1147 -0.0635
  722loPI   C5A10539  10.913  16.383   7.942 -0.0401  0.1242 -0.2093
  722loPI   C6A10540  11.050  16.763   8.067 -0.2983 -0.2214  0.3166
  722loPI   C1B10541  10.449  17.414   6.452 -0.0168  0.0604  0.1336
  722loPI   C2B10542  10.253  17.547   6.692 -0.0734 -0.1031  0.2641
  722loPI   C3B10543  10.002  17.705   6.910  0.0599  0.1908  0.1928
  722loPI   C4B10544  10.043  17.928   7.412 -0.1122  0.1683 -0.0050
  723loPI    C110545  16.639   1.312   5.115  0.0352 -0.0680  0.1194
  723loPI    C210546  16.959   1.171   4.919  0.0344  0.2431 -0.1125
  723loPI    C310547  16.632   1.280   4.716 -0.0753  0.2953  0.0894
  723loPI   PO410548  16.746   1.198   5.394 -0.0352 -0.2661  0.2811
  723loPI   GL110549  16.930   0.961   5.715  0.1410 -0.0734  0.0726
  723loPI   GL210550  17.007   1.311   5.853  0.2975 -0.2560  0.1814
  723loPI   C1A10551  16.992   0.845   6.155  0.1081  0.1968 -0.0213
  723loPI   C2A10552  17.048   0.838   6.534 -0.2232  0.0055 -0.0297
  723loPI   C3A10553  16.675   0.901   6.866  0.1006  0.2999  0.0971
  723loPI   C4A10554  16.599   1.016   7.289 -0.0272 -0.0740 -0.2248
  723loPI   C5A10555  16.766   1.136   7.715 -0.2508  0.2799  0.2639
  723loPI   C6A10556  17.071   1.220   8.021  0.4043 -0.0711  0.3761
  723loPI   C1B10557  16.928   1.365   6.278  0.1190  0.2753  0.0514
  723loPI   C2B10558  16.921   1.302   6.694  0.0597  0.0701 -0.0713
  723loPI   C3B10559  17.033   1.201   7.141  0.0842  0.0084  0.0013
  723loPI   C4B10560  17.085   0.767   7.159  0.2022  0.3094  0.1783
  724loPI    C110561   5.103  13.932   5.080  0.2216  0.1325 -0.2013
  724loPI    C210562   5.357  13.629   5.022  0.1122 -0.0829  0.3790
  724loPI    C310563   4.977  13.598   4.900  0.2180  0.0197  0.0085
  724loPI   PO410564   5.134  14.013   5.278 -0.3243  0.1435  0.2907
  724loPI   GL110565   5.374  14.211   5.574  0.1670  0.1922  0.1641
  724loPI   GL210566   5.180  14.564   5.684 -0.4576 -0.0211 -0.1054
  724loPI   C1A10567   5.612  14.264   5.907 -0.1210  0.2023  0.0601
  724loPI   C2A10568   5.738  14.207   6.262  0.0862  0.4483 -0.1047
  724loPI   C3A10569   5.770  14.180   6.743  0.0446 -0.0856  0.0209
  724loPI   C4A10570   5.882  14.233   7.196 -0.0438 -0.1017  0.0306
  724loPI   C5A10571   5.789  14.235   7.646  0.1258 -0.0996 -0.0541
  724loPI   C6A10572   5.786  13.930   8.022 -0.2916 -0.4723  0.0543
  724loPI   C1B10573   5.307  14.520   6.235  0.2330 -0.4212  0.2480
  724loPI   C2B10574   5.280  14.417   6.600  0.3509 -0.2089  0.0766
  724loPI   C3B10575   5.481  14.487   7.042  0.0697  0.2664 -0.1147
  724loPI   C4B10576   5.567  14.748   7.388 -0.1361  0.0316  0.0898
  725loPI    C110577   1.975   7.529   4.994 -0.1553 -0.1813 -0.0351
  725loPI    C210578   1.917   7.662   4.622 -0.0320  0.0988  0.0429
  725loPI    C310579   2.127   7.328   4.684 -0.0021  0.0833 -0.1351
  725loPI   PO410580   1.717   7.453   5.107 -0.1383 -0.3187 -0.3418
  725loPI   GL110581   1.690   7.477   5.530  0.0235  0.1421  0.1003
  725loPI   GL210582   1.641   7.202   5.804  0.0377  0.0794  0.1121
  725loPI   C1A10583   1.688   7.663   5.991 -0.0732 -0.2288  0.0298
  725loPI   C2A10584   1.692   7.692   6.461 -0.0364  0.1913  0.0553
  725loPI   C3A10585   2.045   7.698   6.725 -0.1272 -0.2331 -0.1604
  725loPI   C4A10586   2.188   7.946   7.022  0.3600  0.2267 -0.0458
  725loPI   C5A10587   2.350   8.242   7.255  0.2112 -0.0660  0.1051
  725loPI   C6A10588   2.534   8.521   7.379  0.2908  0.1572  0.4634
  725loPI   C1B10589   1.805   7.274   6.233  0.1601 -0.4005 -0.2189
  725loPI   C2B10590   1.884   7.202   6.636 -0.0946 -0.0200  0.1449
  725loPI   C3B10591   1.994   7.291   7.007  0.1116  0.0215 -0.0986
  725loPI   C4B10592   1.730   7.188   7.405  0.1432 -0.2474 -0.2196
  726loPI    C110593   7.354   7.346   5.657 -0.1521  0.1565 -0.0990
  726loPI    C210594   7.723   7.195   5.633 -0.1180  0.1699  0.2859
  726loPI    C310595   7.492   7.210   5.307 -0.0069 -0.4149  0.1686
  726loPI   PO410596   7.416   7.631   5.857  0.1184 -0.1719 -0.0334
  726loPI   GL110597   7.224   7.879   6.213 -0.0082 -0.1599  0.2345
  726loPI   GL210598   7.141   7.532   6.333  0.0548 -0.1568 -0.3071
  726loPI   C1A10599   7.029   7.971   6.622  0.3940 -0.0059  0.2501
  726loPI   C2A10600   6.940   8.102   7.090 -0.0598  0.0427  0.0671
  726loPI   C3A10601   6.990   8.154   7.483 -0.2308 -0.0994  0.0846
  726loPI   C4A10602   7.213   8.270   7.847 -0.0999 -0.0879  0.0292
  726loPI   C5A10603   7.618   8.193   8.001  0.2734 -0.3052  0.1320
  726loPI   C6A10604   8.023   8.044   7.935  0.0090 -0.0712  0.1317
  726loPI   C1B10605   7.028   7.508   6.796 -0.1377 -0.0384 -0.3238
  726loPI   C2B10606   7.060   7.576   7.243 -0.2475 -0.1347 -0.2428
  726loPI   C3B10607   6.839   7.630   7.563  0.0467 -0.2256 -0.1544
  726loPI   C4B10608   6.839   7.399   8.011 -0.2923 -0.0165 -0.0979
  727loPI    C110609   2.700  14.659   5.199 -0.1164  0.0887  0.1242
  727loPI    C210610   2.660  15.056   5.222 -0.1185  0.0909  0.0837
  727loPI    C310611   2.662  14.876   4.865  0.4523  0.1136  0.0669
  727loPI   PO410612   2.952  14.583   5.287  0.2705 -0.0898  0.0947
  727loPI   GL110613   3.209  14.522   5.612  0.0071  0.1189  0.3535
  727loPI   GL210614   3.505  14.565   5.769 -0.2260 -0.1691 -0.0001
  727loPI   C1A10615   3.039  14.557   5.995 -0.0368 -0.1757 -0.1635
  727loPI   C2A10616   3.026  14.481   6.383 -0.5013  0.4954 -0.1556
  727loPI   C3A10617   2.929  14.632   6.746  0.1395 -0.0332  0.0658
  727loPI   C4A10618   2.740  14.617   7.234 -0.5420  0.1818  0.0382
  727loPI   C5A10619   2.704  14.443   7.708 -0.2466  0.0815  0.0078
  727loPI   C6A10620   2.373  14.218   7.926  0.1708 -0.3436 -0.0593
  727loPI   C1B10621   3.454  14.666   6.193 -0.1229 -0.0245 -0.0282
  727loPI   C2B10622   3.427  14.716   6.575  0.1113  0.3359 -0.1202
  727loPI   C3B10623   3.676  14.907   6.975  0.4993 -0.0905  0.0937
  727loPI   C4B10624   3.796  15.077   7.397  0.1158  0.1347 -0.0768
  728loPI    C110625   4.012   8.945   5.500 -0.0301 -0.0101 -0.0486
  728loPI    C210626   3.873   8.867   5.133 -0.1125 -0.0518 -0.0086
  728loPI    C310627   3.716   9.166   5.348 -0.2963 -0.2407  0.1248
  728loPI   PO410628   4.198   8.686   5.534  0.1418  0.0839  0.1746
  728loPI   GL110629   4.164   8.642   5.898  0.1818 -0.1535  0.0832
  728loPI   GL210630   3.852   8.623   5.981  0.1959  0.1766  0.1781
  728loPI   C1A10631   4.483   8.414   6.110  0.0389 -0.1687 -0.2894
  728loPI   C2A10632   4.665   8.362   6.446  0.3220  0.1329 -0.0454
  728loPI   C3A10633   4.907   8.531   6.918  0.2348  0.4145  0.0264
  728loPI   C4A10634   5.075   8.660   7.321  0.1327  0.2216 -0.0458
  728loPI   C5A10635   5.098   8.934   7.693  0.0255  0.0644 -0.0766
  728loPI   C6A10636   5.172   9.409   7.632  0.0040 -0.0450  0.2457
  728loPI   C1B10637   4.083   8.606   6.442  0.0653 -0.3304  0.3914
  728loPI   C2B10638   4.307   8.535   6.789  0.2063  0.0004 -0.1289
  728loPI   C3B10639   4.124   8.460   7.217  0.1020  0.1111 -0.1064
  728loPI   C4B10640   4.174   8.066   7.504  0.2345  0.0337  0.1770
  729loPI    C110641   3.856   9.686   5.063  0.1188 -0.0484 -0.3055
  729loPI    C210642   3.912   9.333   4.884 -0.0348 -0.2428  0.0206
  729loPI    C310643   3.561   9.521   4.849  0.0570 -0.1051 -0.1777
  729loPI   PO410644   3.831   9.659   5.349  0.2243 -0.1521 -0.0559
  729loPI   GL110645   4.106   9.724   5.661  0.1563 -0.0136 -0.1429
  729loPI   GL210646   4.163  10.042   5.698 -0.2997  0.0661 -0.0019
  729loPI   C1A10647   4.052   9.547   6.025 -0.2074 -0.0223  0.2715
  729loPI   C2A10648   4.088   9.478   6.495  0.1297  0.3423  0.1578
  729loPI   C3A10649   4.299   9.466   6.895 -0.0395  0.3237 -0.2295
  729loPI   C4A10650   4.135   9.417   7.333 -0.0114  0.1196  0.3925
  729loPI   C5A10651   4.260   9.368   7.707  0.1271  0.0498 -0.2102
  729loPI   C6A10652   4.653   9.387   7.700  0.0808  0.1648  0.1077
  729loPI   C1B10653   4.237  10.015   6.090  0.0744 -0.0201 -0.0137
  729loPI   C2B10654   4.421   9.942   6.582 -0.2560  0.1332 -0.0958
  729loPI   C3B10655   4.393   9.931   7.055 -0.0086 -0.1979  0.2607
  729loPI   C4B10656   4.343   9.803   7.530 -0.0900 -0.0165 -0.2385
  730loPI    C110657  17.461   5.196   5.194 -0.2485 -0.0863  0.1348
  730loPI    C210658  17.512   5.583   5.109 -0.2020 -0.1052  0.0762
  730loPI    C310659  17.549   5.309   4.821 -0.1279 -0.1624  0.1397
  730loPI   PO410660  17.463   5.286   5.534  0.2215  0.3223  0.1219
  730loPI   GL110661  17.405   5.234   6.042 -0.2116 -0.2167 -0.5248
  730loPI   GL210662  17.543   4.954   6.107  0.0771  0.2072  0.0164
  730loPI   C1A10663  17.578   5.352   6.437  0.0963 -0.1010 -0.3184
  730loPI   C2A10664  17.592   5.245   6.816 -0.0178  0.0870 -0.2019
  730loPI   C3A10665  17.739   5.200   7.236  0.2722  0.1749  0.0561
  730loPI   C4A10666  17.853   5.211   7.641  0.0670  0.0167 -0.0950
  730loPI   C5A10667  18.080   5.601   7.949 -0.1445  0.0636  0.0855
  730loPI   C6A10668  18.200   6.008   8.160  0.1459  0.1311 -0.3204
  730loPI   C1B10669  17.495   4.865   6.507  0.1067  0.1827  0.0948
  730loPI   C2B10670  17.368   4.764   6.857 -0.0440  0.2570 -0.0944
  730loPI   C3B10671  17.630   4.680   7.205  0.0454 -0.2179  0.1416
  730loPI   C4B10672  17.593   4.799   7.567 -0.2167 -0.1300 -0.0224
  731loPI    C110673  12.123   9.409   5.741  0.1281 -0.0253 -0.1461
  731loPI    C210674  12.016   9.025   5.763  0.2575 -0.0508  0.0748
  731loPI    C310675  11.773   9.290   5.589  0.0808 -0.1992  0.0919
  731loPI   PO410676  12.298   9.379   5.926  0.0614 -0.2785 -0.1285
  731loPI   GL110677  12.273   9.432   6.344  0.0128  0.2593 -0.0162
  731loPI   GL210678  12.025   9.392   6.510 -0.4136 -0.1632 -0.1397
  731loPI   C1A10679  12.588   9.531   6.534 -0.1060 -0.0675  0.1232
  731loPI   C2A10680  12.778   9.374   6.879  0.1763  0.0066  0.1444
  731loPI   C3A10681  12.766   9.471   7.251  0.1235 -0.3736 -0.1020
  731loPI   C4A10682  12.429   9.429   7.463 -0.1912  0.2040 -0.1584
  731loPI   C5A10683  12.391   9.444   7.992  0.0663  0.0660  0.0739
  731loPI   C6A10684  11.996   9.469   8.247 -0.2805  0.1022 -0.3053
  731loPI   C1B10685  12.407   9.010   6.589 -0.1028  0.0185 -0.0820
  731loPI   C2B10686  12.584   8.659   6.808  0.0949  0.1128  0.1531
  731loPI   C3B10687  12.649   8.406   7.262 -0.1854  0.0593  0.3403
  731loPI   C4B10688  12.716   8.523   7.649 -0.1795  0.0189  0.0635
  732loPI    C110689  15.454   2.443   5.013  0.0851 -0.1244  0.1496
  732loPI    C210690  15.663   2.780   5.063 -0.2770  0.1342 -0.0263
  732loPI    C310691  15.732   2.548   4.745 -0.1213  0.1119  0.0228
  732loPI   PO410692  15.433   2.368   5.270  0.4208  0.1047  0.0171
  732loPI   GL110693  15.301   2.281   5.701  0.1356 -0.0881  0.1648
  732loPI   GL210694  15.407   2.494   5.863  0.0344 -0.1263 -0.3052
  732loPI   C1A10695  15.326   1.986   6.080  0.1904 -0.1294 -0.0931
  732loPI   C2A10696  15.417   1.672   6.327  0.1953 -0.1043  0.4813
  732loPI   C3A10697  15.500   1.507   6.724 -0.3688 -0.1493 -0.1153
  732loPI   C4A10698  15.381   1.616   7.198  0.0806 -0.0685  0.0244
  732loPI   C5A10699  15.103   1.801   7.443 -0.1128 -0.0646 -0.2080
  732loPI   C6A10700  15.042   2.094   7.712 -0.0739  0.3119  0.1024
  732loPI   C1B10701  15.560   2.482   6.253 -0.1795  0.0790  0.1543
  732loPI   C2B10702  15.617   2.593   6.594  0.0209  0.0645 -0.0275
  732loPI   C3B10703  15.470   2.563   7.039  0.2622  0.2834 -0.1195
  732loPI   C4B10704  15.521   2.710   7.338 -0.1367  0.0729  0.0017
  733loPI    C110705  15.922  18.226   5.381 -0.0586 -0.0852 -0.2002
  733loPI    C210706  16.055  17.940   5.626 -0.2276 -0.0765 -0.0970
  733loPI    C310707  15.878  17.841   5.282 -0.1901 -0.0936 -0.1115
  733loPI   PO410708  15.821  18.397   5.564  0.0914  0.0461  0.2426
  733loPI   GL110709  15.923  18.419   5.866 -0.1383  0.0331  0.0178
  733loPI   GL210710  16.221  18.357   5.873  0.0516  0.0963 -0.2234
  733loPI   C1A10711  15.760  18.602   6.255  0.0927  0.0202  0.0491
  733loPI   C2A10712  15.827  18.588   6.590 -0.2247  0.2127 -0.3534
  733loPI   C3A10713  16.022  18.546   6.909  0.2533  0.4003  0.0606
  733loPI   C4A10714  16.110  18.195   7.248 -0.2130  0.0349 -0.2836
  733loPI   C5A10715  16.350  18.015   7.589  0.2036 -0.0488 -0.2473
  733loPI   C6A10716  16.767  17.906   7.760  0.1677 -0.1774  0.0084
  733loPI   C1B10717  16.254  18.609   6.250 -0.2762  0.1848  0.1072
  733loPI   C2B10718  16.435  18.488   6.668  0.0551 -0.2026 -0.1699
  733loPI   C3B10719  16.552  18.407   7.151  0.1427 -0.0722  0.1281
  733loPI   C4B10720  16.757  18.011   7.250 -0.2232  0.1182 -0.0381
  734loPI    C110721   9.780  17.229   5.422  0.0353  0.1033  0.1805
  734loPI    C210722   9.833  16.849   5.537 -0.0079  0.0042 -0.1178
  734loPI    C310723  10.104  17.127   5.633 -0.0576 -0.0672  0.2436
  734loPI   PO410724   9.451  17.260   5.503  0.1188  0.1181  0.0078
  734loPI   GL110725   9.132  17.029   5.707  0.5247 -0.0138 -0.2609
  734loPI   GL210726   9.475  16.976   5.883 -0.0308 -0.1258 -0.2117
  734loPI   C1A10727   8.958  16.866   6.090  0.2076  0.0054 -0.2247
  734loPI   C2A10728   9.089  16.813   6.561 -0.0949  0.3337  0.3642
  734loPI   C3A10729   9.262  16.963   6.943  0.0161  0.0271 -0.0010
  734loPI   C4A10730   9.372  17.147   7.361  0.1174  0.5187  0.0524
  734loPI   C5A10731   9.392  17.060   7.788  0.5879  0.0763 -0.0985
  734loPI   C6A10732   9.503  16.761   8.031  0.3892 -0.2151  0.2165
  734loPI   C1B10733   9.534  16.887   6.332  0.2576 -0.1189  0.3239
  734loPI   C2B10734   9.579  16.729   6.679 -0.0018  0.0977  0.0298
  734loPI   C3B10735   9.585  16.606   7.146  0.0716 -0.1339  0.1131
  734loPI   C4B10736   9.542  16.642   7.565 -0.0411 -0.1370  0.0655
  735loPI    C110737  13.558  13.578   5.471  0.0701 -0.1854  0.0443
  735loPI    C210738  13.602  13.385   5.123  0.0298 -0.2778  0.0901
  735loPI    C310739  13.280  13.614   5.186  0.2532  0.0986 -0.1030
  735loPI   PO410740  13.563  13.373   5.706 -0.1591  0.1023  0.2282
  735loPI   GL110741  13.800  13.316   6.109  0.2027 -0.0279  0.2081
  735loPI   GL210742  13.811  13.606   6.032 -0.1871  0.0585 -0.0619
  735loPI   C1A10743  13.789  13.218   6.577  0.0175  0.1606 -0.0260
  735loPI   C2A10744  13.844  12.999   7.007 -0.0858 -0.0375  0.2061
  735loPI   C3A10745  13.873  12.867   7.400 -0.0139  0.1723  0.0807
  735loPI   C4A10746  14.051  12.665   7.825  0.1555  0.1194  0.3015
  735loPI   C5A10747  14.151  12.306   8.067  0.0106 -0.1468 -0.0118
  735loPI   C6A10748  14.186  11.904   7.950  0.0617 -0.1787  0.1246
  735loPI   C1B10749  13.884  13.704   6.453 -0.2247  0.1605 -0.0287
  735loPI   C2B10750  13.950  13.525   6.984  0.2867 -0.2191  0.1281
  735loPI   C3B10751  14.017  13.650   7.391 -0.1905 -0.0460  0.0750
  735loPI   C4B10752  14.138  13.675   7.831 -0.0121  0.1007  0.0935
  736loPI    C110753  12.739   7.567   5.562 -0.0909  0.2033  0.0287
  736loPI    C210754  13.000   7.484   5.270  0.0084  0.0567  0.1574
  736loPI    C310755  12.607   7.437   5.207  0.0230  0.1152  0.0180
  736loPI   PO410756  12.784   7.745   5.647  0.0674 -0.1808 -0.0458
  736loPI   GL110757  12.882   7.838   6.039 -0.1247  0.3750  0.1085
  736loPI   GL210758  12.826   7.587   6.176  0.0178  0.1108  0.0810
  736loPI   C1A10759  13.058   7.962   6.382  0.0447  0.1135 -0.1479
  736loPI   C2A10760  13.204   7.765   6.681 -0.0708 -0.1417 -0.0879
  736loPI   C3A10761  13.226   7.852   7.007  0.2036  0.1010 -0.0541
  736loPI   C4A10762  13.274   7.755   7.357 -0.2061  0.0555 -0.1010
  736loPI   C5A10763  12.975   7.939   7.688 -0.0437 -0.0277  0.2722
  736loPI   C6A10764  12.843   7.717   8.049 -0.1015 -0.1558 -0.4139
  736loPI   C1B10765  12.550   7.792   6.453  0.4551 -0.1828  0.0733
  736loPI   C2B10766  12.246   7.676   6.738  0.1503  0.0547  0.2991
  736loPI   C3B10767  12.001   7.348   6.879  0.0327  0.1091  0.2638
  736loPI   C4B10768  11.805   7.265   7.249  0.0776 -0.0118  0.3492
  737loPI    C110769   7.286   1.985   5.453 -0.0604 -0.0913  0.0410
  737loPI    C210770   7.435   2.170   5.132 -0.0929  0.1973  0.1891
  737loPI    C310771   7.059   2.034   5.127  0.0511 -0.2102 -0.0557
  737loPI   PO410772   7.244   2.137   5.652 -0.1342 -0.4713 -0.1152
  737loPI   GL110773   7.227   1.856   6.005 -0.1848 -0.1926 -0.0377
  737loPI   GL210774   7.454   1.697   5.852  0.0580 -0.2570 -0.0586
  737loPI   C1A10775   7.528   2.126   6.253 -0.1046  0.0600 -0.0931
  737loPI   C2A10776   7.672   2.230   6.608  0.0565 -0.0577 -0.0465
  737loPI   C3A10777   7.590   1.967   7.046 -0.0489 -0.3083 -0.1474
  737loPI   C4A10778   7.526   1.785   7.422 -0.1083  0.2046 -0.0597
  737loPI   C5A10779   7.481   1.268   7.623  0.1550 -0.3220 -0.2076
  737loPI   C6A10780   7.251   1.041   7.362 -0.2045  0.0329  0.3018
  737loPI   C1B10781   7.608   1.505   6.226  0.0523 -0.1074  0.2032
  737loPI   C2B10782   7.771   1.129   6.266 -0.0016 -0.1002  0.0498
  737loPI   C3B10783   7.812   1.027   6.708 -0.0944  0.0837  0.2403
  737loPI   C4B10784   7.808   1.018   7.052 -0.4772  0.2506 -0.1647
  738loPI    C110785  15.466  12.230   5.386  0.2357  0.5108  0.2310
  738loPI    C210786  15.846  12.348   5.429  0.3296  0.3097 -0.0245
  738loPI    C310787  15.664  12.385   5.075  0.2136  0.1137  0.0130
  738loPI   PO410788  15.330  12.321   5.579 -0.1853 -0.1076 -0.0560
  738loPI   GL110789  15.163  12.395   5.930 -0.4807  0.1393  0.1595
  738loPI   GL210790  14.932  12.647   6.022  0.0131 -0.2245 -0.0256
  738loPI   C1A10791  15.277  12.190   6.344 -0.0184 -0.0088  0.0343
  738loPI   C2A10792  15.208  12.052   6.753  0.3304  0.1315  0.1198
  738loPI   C3A10793  15.458  11.967   7.143  0.1203  0.2731 -0.0969
  738loPI   C4A10794  15.881  11.823   7.225 -0.1163  0.1466 -0.1442
  738loPI   C5A10795  16.039  11.613   7.587 -0.1166  0.0946  0.0586
  738loPI   C6A10796  16.397  11.609   7.928  0.2295  0.3287 -0.0219
  738loPI   C1B10797  14.979  12.601   6.471 -0.0075  0.0534 -0.0699
  738loPI   C2B10798  15.000  12.650   6.905  0.1861  0.1217 -0.0773
  738loPI   C3B10799  14.692  12.589   7.276 -0.2791 -0.1587 -0.1371
  738loPI   C4B10800  14.393  12.702   7.525  0.0936 -0.1708 -0.0302
  739loPI    C110801   1.560  10.469   4.888 -0.0982  0.2075  0.0550
  739loPI    C210802   1.281  10.584   4.626  0.0598  0.3256 -0.0632
  739loPI    C310803   1.652  10.502   4.500  0.0200 -0.0625  0.0576
  739loPI   PO410804   1.581  10.634   5.125  0.0713 -0.0701 -0.0880
  739loPI   GL110805   1.391  10.642   5.514  0.1240  0.1831 -0.1906
  739loPI   GL210806   1.653  10.743   5.623  0.0339  0.1206 -0.0493
  739loPI   C1A10807   1.142  10.564   5.953  0.1658 -0.1074  0.0273
  739loPI   C2A10808   1.072  10.635   6.389 -0.1303  0.0515  0.0250
  739loPI   C3A10809   1.099  10.732   6.889  0.1030 -0.0543  0.1540
  739loPI   C4A10810   1.086  10.660   7.415 -0.2463  0.1649 -0.2078
  739loPI   C5A10811   1.215  10.422   7.824  0.2690  0.0016 -0.5001
  739loPI   C6A10812   1.284  10.045   7.938  0.1712  0.0775 -0.0764
  739loPI   C1B10813   1.586  10.816   5.996  0.3619  0.3194 -0.3183
  739loPI   C2B10814   1.621  10.824   6.461  0.2222 -0.0339  0.0612
  739loPI   C3B10815   1.528  10.926   6.850 -0.4711  0.1609  0.1158
  739loPI   C4B10816   1.626  11.000   7.295 -0.2111 -0.2621  0.0268
  740loPI    C110817   3.620  15.975   5.072 -0.0228 -0.1466 -0.0827
  740loPI    C210818   3.597  16.036   4.678  0.1134 -0.2733 -0.1114
  740loPI    C310819   3.954  16.021   4.857  0.0550 -0.2967  0.0037
  740loPI   PO410820   3.510  16.067   5.256  0.1857 -0.3445  0.1686
  740loPI   GL110821   3.338  15.940   5.628 -0.2442  0.1037 -0.0312
  740loPI   GL210822   3.289  15.549   5.700  0.1915  0.0331 -0.0481
  740loPI   C1A10823   3.260  16.032   5.983  0.0913  0.2354  0.0412
  740loPI   C2A10824   3.071  16.108   6.426  0.0515  0.1903  0.2318
  740loPI   C3A10825   2.985  16.114   6.894 -0.0279  0.0546  0.1088
  740loPI   C4A10826   2.760  15.982   7.248  0.0020  0.0469 -0.4735
  740loPI   C5A10827   2.820  16.127   7.639 -0.1221 -0.2299  0.2940
  740loPI   C6A10828   2.858  16.201   8.022  0.2885  0.0947  0.0491
  740loPI   C1B10829   2.974  15.492   6.031  0.0007  0.0835 -0.3178
  740loPI   C2B10830   2.927  15.569   6.457  0.2400 -0.2421 -0.5607
  740loPI   C3B10831   2.948  15.649   6.938  0.1663 -0.1364 -0.2143
  740loPI   C4B10832   3.133  15.647   7.358  0.1542 -0.2308 -0.0782
  741loPI    C110833  11.440   9.000   5.818  0.1800  0.0865 -0.1086
  741loPI    C210834  11.283   9.338   5.965  0.0475  0.0740 -0.2194
  741loPI    C310835  11.087   9.132   5.683 -0.0737 -0.3159  0.1388
  741loPI   PO410836  11.545   8.853   6.008 -0.0242 -0.3306 -0.0942
  741loPI   GL110837  11.665   8.747   6.332  0.2010  0.0494  0.1779
  741loPI   GL210838  11.999   8.911   6.379 -0.1374  0.1785  0.2680
  741loPI   C1A10839  11.885   8.517   6.715 -0.0284  0.2272  0.3301
  741loPI   C2A10840  11.949   8.452   7.134  0.1265  0.3566 -0.3778
  741loPI   C3A10841  12.233   8.594   7.468  0.0731 -0.0673 -0.3988
  741loPI   C4A10842  12.179   8.685   7.809  0.0336 -0.2654  0.0096
  741loPI   C5A10843  12.175   9.011   8.126 -0.1413 -0.0059 -0.0568
  741loPI   C6A10844  12.411   9.200   8.483  0.0661 -0.2225  0.0737
  741loPI   C1B10845  11.846   9.056   6.836  0.0979 -0.5351  0.0345
  741loPI   C2B10846  12.067   8.952   7.170 -0.3108 -0.0370  0.0369
  741loPI   C3B10847  12.583   8.923   7.219 -0.1474  0.0556  0.0524
  741loPI   C4B10848  13.015   8.793   7.299  0.1086 -0.2676  0.1655
  742loPI    C110849   6.480   2.680   5.373  0.2652  0.0666 -0.1570
  742loPI    C210850   6.382   3.062   5.436  0.2826  0.0203  0.1666
  742loPI    C310851   6.576   2.958   5.103  0.1616  0.2719  0.0145
  742loPI   PO410852   6.594   2.598   5.557  0.0536 -0.2918 -0.1021
  742loPI   GL110853   6.565   2.811   5.917  0.1269 -0.2362  0.1107
  742loPI   GL210854   6.350   2.744   6.088 -0.1205  0.0079 -0.2414
  742loPI   C1A10855   6.877   2.776   6.191  0.5314 -0.0088 -0.1024
  742loPI   C2A10856   6.884   2.667   6.610  0.0291 -0.3178 -0.1206
  742loPI   C3A10857   6.807   2.565   7.041 -0.0755 -0.1381  0.0944
  742loPI   C4A10858   6.832   2.541   7.462 -0.0764  0.0794 -0.2705
  742loPI   C5A10859   6.801   2.231   7.909 -0.3239  0.0038 -0.1509
  742loPI   C6A10860   7.097   2.240   8.234  0.1347 -0.1091  0.1364
  742loPI   C1B10861   6.519   3.064   6.347 -0.2546  0.2240  0.0315
  742loPI   C2B10862   6.576   3.065   6.817 -0.2180  0.4654  0.1623
  742loPI   C3B10863   6.344   3.280   7.161  0.2475  0.3916 -0.3980
  742loPI   C4B10864   6.214   3.557   7.482 -0.2247 -0.1027  0.1622
  743loPI    C110865   7.317  11.909   5.254 -0.0396 -0.0628  0.0586
  743loPI    C210866   7.160  11.951   4.888 -0.0580 -0.0163  0.0718
  743loPI    C310867   7.291  11.593   5.010 -0.0101 -0.0224  0.0028
  743loPI   PO410868   7.112  12.103   5.444  0.1974  0.0560 -0.4050
  743loPI   GL110869   7.088  12.287   5.887 -0.0775 -0.2445 -0.4267
  743loPI   GL210870   6.764  12.230   5.902 -0.0180 -0.1180 -0.2379
  743loPI   C1A10871   7.150  12.446   6.354 -0.1948  0.1388  0.0723
  743loPI   C2A10872   7.179  12.536   6.775 -0.1173 -0.2896 -0.0381
  743loPI   C3A10873   7.277  12.549   7.219  0.1139 -0.0467 -0.1253
  743loPI   C4A10874   7.504  12.210   7.465  0.0173 -0.3103 -0.0968
  743loPI   C5A10875   7.916  12.029   7.550 -0.0379  0.1292  0.0409
  743loPI   C6A10876   8.295  12.146   7.478 -0.0432  0.1694 -0.1148
  743loPI   C1B10877   6.644  12.308   6.189  0.1567 -0.2322 -0.3081
  743loPI   C2B10878   6.680  12.395   6.549 -0.0891 -0.0258  0.1913
  743loPI   C3B10879   6.698  12.380   6.878 -0.4819 -0.3278 -0.2451
  743loPI   C4B10880   6.652  12.431   7.377 -0.0613 -0.4147 -0.0123
  744loPI    C110881   4.498   4.137   4.906  0.3444 -0.2628  0.0509
  744loPI    C210882   4.129   4.006   4.991  0.1685  0.2928  0.1918
  744loPI    C310883   4.241   4.057   4.610  0.1766 -0.0703  0.1417
  744loPI   PO410884   4.588   4.010   5.181 -0.1044 -0.0098 -0.1594
  744loPI   GL110885   4.429   3.761   5.585  0.0653  0.3653 -0.1221
  744loPI   GL210886   4.209   3.988   5.794 -0.1850  0.0187  0.3365
  744loPI   C1A10887   4.274   3.545   6.006  0.4734 -0.1512  0.2099
  744loPI   C2A10888   4.268   3.562   6.431 -0.0787 -0.1585 -0.1039
  744loPI   C3A10889   4.244   3.555   6.759 -0.1348 -0.6016 -0.2533
  744loPI   C4A10890   4.208   3.586   7.093  0.1737 -0.1787 -0.1257
  744loPI   C5A10891   4.364   3.660   7.334  0.0442  0.1406  0.1419
  744loPI   C6A10892   4.166   3.652   7.797  0.1193 -0.0963  0.0610
  744loPI   C1B10893   4.160   4.068   6.239 -0.4033 -0.0432  0.0475
  744loPI   C2B10894   4.060   4.009   6.643  0.2168  0.0430 -0.0035
  744loPI   C3B10895   3.892   3.933   7.018  0.2203 -0.1157 -0.1676
  744loPI   C4B10896   3.940   3.960   7.500  0.1280 -0.2675 -0.1444
  745loPI    C110897   8.391   5.117   5.607 -0.0103 -0.0184 -0.0626
  745loPI    C210898   8.056   5.098   5.390 -0.0163  0.0775 -0.0620
  745loPI    C310899   8.289   5.423   5.371  0.0828  0.0061 -0.0716
  745loPI   PO410900   8.278   5.094   5.924 -0.0387 -0.1612 -0.0627
  745loPI   GL110901   8.146   4.962   6.292  0.1699 -0.1772  0.1336
  745loPI   GL210902   7.899   5.228   6.364  0.0773 -0.1575 -0.1767
  745loPI   C1A10903   8.157   4.999   6.797 -0.0630 -0.1418  0.0105
  745loPI   C2A10904   8.064   4.904   7.257  0.1009 -0.1931 -0.1474
  745loPI   C3A10905   7.955   5.152   7.611 -0.1361 -0.4297  0.4616
  745loPI   C4A10906   7.611   5.197   7.760  0.2514  0.0628  0.3489
  745loPI   C5A10907   7.263   5.276   7.804  0.1764  0.1151  0.0215
  745loPI   C6A10908   7.028   5.605   8.101 -0.1071  0.1661  0.0668
  745loPI   C1B10909   7.717   5.359   6.684 -0.0191  0.1769 -0.0093
  745loPI   C2B10910   7.881   5.481   7.052  0.0251 -0.2546  0.3450
  745loPI   C3B10911   7.729   5.636   7.485  0.0047 -0.0173  0.0415
  745loPI   C4B10912   7.456   5.744   7.794 -0.1070  0.0549  0.1666
  746loPI    C110913  15.082  11.907   5.297  0.0669 -0.0161 -0.0919
  746loPI    C210914  15.031  11.854   4.904  0.2619  0.1765 -0.1451
  746loPI    C310915  15.257  11.598   5.112  0.1709  0.0828 -0.1605
  746loPI   PO410916  14.931  12.048   5.347 -0.0647  0.0247 -0.2194
  746loPI   GL110917  14.512  11.971   5.481 -0.1953  0.2488  0.3220
  746loPI   GL210918  14.664  12.092   5.807  0.1121  0.1359  0.1237
  746loPI   C1A10919  14.495  11.600   5.873  0.2439 -0.1526 -0.1937
  746loPI   C2A10920  14.417  11.378   6.326  0.4637  0.0099 -0.2879
  746loPI   C3A10921  14.556  11.227   6.760  0.1426  0.0365 -0.0347
  746loPI   C4A10922  14.723  11.215   7.269 -0.0855  0.0380 -0.0328
  746loPI   C5A10923  14.560  11.582   7.627 -0.2014 -0.1323  0.2028
  746loPI   C6A10924  14.695  11.928   7.878  0.0472 -0.0916 -0.0131
  746loPI   C1B10925  14.766  12.187   6.275  0.1727  0.0323  0.0055
  746loPI   C2B10926  14.732  12.262   6.755  0.2797  0.0322 -0.1081
  746loPI   C3B10927  14.942  12.178   7.111 -0.0399  0.1957  0.0537
  746loPI   C4B10928  14.939  11.940   7.508  0.3141  0.2486 -0.0227
  747loPI    C110929  17.670  15.008   5.689  0.2647 -0.2131  0.1014
  747loPI    C210930  17.380  14.755   5.579  0.1881 -0.1333  0.1179
  747loPI    C310931  17.632  14.903   5.305 -0.0448  0.1184  0.0354
  747loPI   PO410932  17.503  15.213   5.826 -0.2047  0.1910 -0.1607
  747loPI   GL110933  17.420  15.274   6.211  0.2088 -0.0565 -0.0043
  747loPI   GL210934  17.208  15.399   6.242  0.0267  0.2738  0.0955
  747loPI   C1A10935  17.627  15.311   6.619 -0.1657 -0.2094  0.0870
  747loPI   C2A10936  17.677  15.205   7.038 -0.3956  0.0239 -0.6923
  747loPI   C3A10937  17.845  15.202   7.476 -0.2124 -0.2452  0.1187
  747loPI   C4A10938  17.806  14.997   7.845 -0.1841  0.1616 -0.1296
  747loPI   C5A10939  17.507  14.687   8.001  0.0291  0.1073 -0.0625
  747loPI   C6A10940  17.292  14.576   8.389  0.0848  0.1535 -0.0623
  747loPI   C1B10941  16.993  15.350   6.595  0.3323 -0.2609 -0.3591
  747loPI   C2B10942  17.208  15.100   6.921  0.0125 -0.1119 -0.1011
  747loPI   C3B10943  17.320  15.009   7.328 -0.1313 -0.1807  0.2580
  747loPI   C4B10944  17.210  14.773   7.605  0.2895  0.0334  0.2707
  748loPI    C110945   1.231   6.432   5.087  0.0471 -0.0440  0.1581
  748loPI    C210946   1.050   6.789   5.083  0.0151 -0.0613 -0.1442
  748loPI    C310947   0.859   6.469   5.229  0.0174  0.0298  0.0621
  748loPI   PO410948   1.414   6.419   5.206  0.0183 -0.0170 -0.0230
  748loPI   GL110949   1.453   6.223   5.535  0.0055 -0.0761  0.0594
  748loPI   GL210950   1.241   6.442   5.696 -0.0744 -0.1854 -0.1625
  748loPI   C1A10951   1.770   6.037   5.807  0.2671 -0.0820  0.0124
  748loPI   C2A10952   1.878   5.796   6.154  0.0075  0.0811  0.0961
  748loPI   C3A10953   1.977   5.819   6.574 -0.0901 -0.0141  0.0779
  748loPI   C4A10954   1.925   6.050   6.932  0.0217  0.2660  0.1160
  748loPI   C5A10955   2.031   6.157   7.355  0.0891 -0.0807 -0.1334
  748loPI   C6A10956   1.703   6.148   7.624 -0.2686  0.1049 -0.1011
  748loPI   C1B10957   1.151   6.386   6.134 -0.1729  0.1891 -0.0339
  748loPI   C2B10958   1.187   6.356   6.516 -0.1741 -0.1523  0.0709
  748loPI   C3B10959   1.415   6.405   6.890  0.2393  0.0697  0.1317
  748loPI   C4B10960   1.377   6.444   7.261 -0.2308  0.3148 -0.2093
  749loPI    C110961   9.148  10.152   6.044 -0.0707  0.1590 -0.0555
  749loPI    C210962   8.990   9.788   5.995  0.0315  0.1004  0.0459
  749loPI    C310963   8.827  10.103   5.811 -0.0360 -0.0018 -0.0706
  749loPI   PO410964   9.372  10.113   5.999 -0.0552 -0.0365 -0.0122
  749loPI   GL110965   9.745  10.341   6.285 -0.0516 -0.0249  0.0268
  749loPI   GL210966   9.680  10.086   6.475 -0.1802  0.0464 -0.0960
  749loPI   C1A10967   9.992  10.497   6.672  0.0282 -0.0029 -0.3353
  749loPI   C2A10968  10.124  10.524   7.144  0.0043 -0.1362  0.0451
  749loPI   C3A10969   9.916  10.814   7.490  0.0566  0.0538  0.0418
  749loPI   C4A10970   9.583  10.797   7.722  0.0185 -0.2185 -0.0774
  749loPI   C5A10971   9.135  10.853   8.049  0.0507 -0.0827 -0.0150
  749loPI   C6A10972   9.105  11.103   8.392  0.0062  0.0562 -0.0850
  749loPI   C1B10973   9.810  10.107   6.970  0.3311  0.1393 -0.0097
  749loPI   C2B10974   9.714  10.176   7.501  0.0648 -0.0646 -0.1662
  749loPI   C3B10975   9.699  10.280   7.865  0.2697  0.1602 -0.1893
  749loPI   C4B10976   9.273  10.344   8.044  0.1038 -0.3018  0.0508
  750loPI    C110977  18.345  14.200   5.262  0.1679 -0.3473  0.0441
  750loPI    C210978  18.720  14.186   5.401  0.1283 -0.1510  0.1739
  750loPI    C310979  18.643  14.087   5.021  0.3290 -0.0756  0.1126
  750loPI   PO410980  18.236  14.085   5.467 -0.2608  0.1551  0.2179
  750loPI   GL110981  18.336  13.884   5.819 -0.0813  0.1066 -0.0877
  750loPI   GL210982  18.588  14.048   5.870  0.1306  0.0727 -0.2011
  750loPI   C1A10983  18.198  13.790   6.198 -0.0361 -0.1325  0.2649
  750loPI   C2A10984  18.203  13.933   6.610 -0.0815 -0.2721 -0.0879
  750loPI   C3A10985  18.268  13.978   6.976 -0.1909 -0.1339 -0.3336
  750loPI   C4A10986  18.313  13.805   7.370 -0.2138 -0.2860  0.2479
  750loPI   C5A10987  18.251  13.823   7.828  0.0408  0.0062 -0.2715
  750loPI   C6A10988  17.800  13.668   8.013  0.0688  0.0807 -0.1479
  750loPI   C1B10989  18.529  14.201   6.262 -0.0672 -0.0910 -0.1998
  750loPI   C2B10990  18.595  14.326   6.796  0.0800  0.2740  0.1749
  750loPI   C3B10991  18.690  14.116   7.155  0.1060 -0.3172 -0.0160
  750loPI   C4B10992  18.663  14.041   7.637  0.0262  0.0736 -0.0525
  751loPI    C110993   7.832   2.435   4.996 -0.2135  0.1421 -0.1775
  751loPI    C210994   7.949   2.055   5.039 -0.1105  0.2060  0.1319
  751loPI    C310995   7.756   2.168   4.708  0.0161 -0.0748 -0.0415
  751loPI   PO410996   7.995   2.504   5.283  0.2808  0.4043 -0.0876
  751loPI   GL110997   8.014   2.479   5.738  0.0183  0.0135  0.0495
  751loPI   GL210998   7.739   2.442   5.880  0.0806 -0.1728  0.4247
  751loPI   C1A10999   8.170   2.283   6.109 -0.0968  0.2741 -0.2021
  751loPI   C2A11000   8.321   2.252   6.588  0.1669 -0.2330  0.0964
  751loPI   C3A11001   8.569   2.344   6.921  0.0088 -0.1155 -0.1500
  751loPI   C4A11002   8.794   2.322   7.311 -0.0918  0.2124 -0.3048
  751loPI   C5A11003   8.726   2.476   7.643  0.1052 -0.1121  0.3470
  751loPI   C6A11004   8.446   2.664   7.977 -0.1760  0.1743 -0.2687
  751loPI   C1B11005   7.859   2.580   6.290 -0.1284 -0.0599  0.0638
  751loPI   C2B11006   8.011   2.607   6.715 -0.1595  0.0785 -0.0892
  751loPI   C3B11007   8.055   2.329   7.082  0.0623  0.1085 -0.0968
  751loPI   C4B11008   8.180   1.901   6.917 -0.2118 -0.0947 -0.1449
  752loPI    C111009   2.384   8.905   5.214 -0.0793 -0.2184  0.0257
  752loPI    C211010   2.622   8.797   4.912  0.0809 -0.1440  0.1243
  752loPI    C311011   2.265   8.959   4.836  0.1198 -0.1270 -0.0253
  752loPI   PO411012   2.447   8.770   5.408 -0.2840 -0.0888 -0.3311
  752loPI   GL111013   2.680   8.856   5.821 -0.1813 -0.2533 -0.0691
  752loPI   GL211014   2.995   8.998   5.981 -0.1213 -0.1040 -0.0273
  752loPI   C1A11015   2.478   9.208   6.120 -0.2089 -0.0090  0.1613
  752loPI   C2A11016   2.539   9.437   6.492 -0.1243 -0.3442  0.0597
  752loPI   C3A11017   2.610   9.443   6.902 -0.3175  0.0298  0.1840
  752loPI   C4A11018   2.632   9.555   7.381  0.4077 -0.1359  0.1118
  752loPI   C5A11019   2.518   9.393   7.722  0.2731  0.1542 -0.1250
  752loPI   C6A11020   2.215   9.214   8.094  0.2161 -0.1203 -0.1451
  752loPI   C1B11021   2.803   8.989   6.344 -0.0590 -0.0562  0.1113
  752loPI   C2B11022   2.929   9.086   6.812 -0.0063  0.1242  0.0308
  752loPI   C3B11023   3.060   8.828   7.121  0.1093  0.1180  0.2675
  752loPI   C4B11024   3.136   8.754   7.639 -0.3163 -0.0676 -0.2602
  753loPI    C111025  11.612  12.256   5.630  0.0772 -0.1853 -0.0556
  753loPI    C211026  11.853  12.202   5.315 -0.1581 -0.4104 -0.2009
  753loPI    C311027  11.542  12.453   5.288 -0.0072 -0.2040 -0.0495
  753loPI   PO411028  11.783  12.229   5.823 -0.1830 -0.2209 -0.2548
  753loPI   GL111029  11.659  12.299   6.140 -0.4469  0.1411  0.0718
  753loPI   GL211030  11.423  12.463   6.314  0.2546  0.0146  0.1653
  753loPI   C1A11031  11.926  12.354   6.493  0.0006  0.2375  0.1462
  753loPI   C2A11032  11.874  12.189   6.845  0.1121 -0.4344  0.0603
  753loPI   C3A11033  12.040  12.123   7.331 -0.0733 -0.1290 -0.1838
  753loPI   C4A11034  12.032  12.119   7.775  0.1167  0.1073 -0.2150
  753loPI   C5A11035  12.035  11.940   8.089 -0.1529  0.2585  0.3972
  753loPI   C6A11036  12.178  12.040   8.522  0.1337  0.2132  0.0809
  753loPI   C1B11037  11.541  12.639   6.694 -0.1284 -0.1476 -0.3922
  753loPI   C2B11038  11.568  12.610   7.120  0.1341 -0.2703 -0.0779
  753loPI   C3B11039  11.498  12.606   7.514  0.1506  0.0357 -0.1104
  753loPI   C4B11040  11.372  12.639   7.977 -0.1255 -0.2795  0.0768
  754loPI    C111041  12.112  17.218   4.898  0.0374 -0.0691  0.1164
  754loPI    C211042  12.436  16.993   4.832  0.0452  0.0760 -0.3747
  754loPI    C311043  12.453  17.389   4.779 -0.0638  0.1579  0.1481
  754loPI   PO411044  11.981  17.191   5.220  0.1614  0.2248  0.0233
  754loPI   GL111045  11.732  16.903   5.492 -0.1397  0.4006  0.4289
  754loPI   GL211046  11.478  16.682   5.554 -0.0529 -0.1664 -0.0012
  754loPI   C1A11047  11.833  16.783   5.866 -0.2999  0.1477 -0.0026
  754loPI   C2A11048  11.760  16.750   6.281  0.1185 -0.1207  0.1181
  754loPI   C3A11049  11.794  16.711   6.726 -0.0510 -0.1890  0.0177
  754loPI   C4A11050  11.901  16.781   7.169 -0.1859  0.1178 -0.0903
  754loPI   C5A11051  11.984  16.570   7.581  0.0508 -0.1553 -0.2878
  754loPI   C6A11052  12.257  16.258   7.695 -0.1074  0.1497 -0.3837
  754loPI   C1B11053  11.340  16.641   6.039 -0.0075 -0.0934  0.2203
  754loPI   C2B11054  11.303  16.793   6.491 -0.3829  0.1002  0.2668
  754loPI   C3B11055  11.134  17.063   6.794  0.1634  0.0437 -0.2309
  754loPI   C4B11056  10.788  17.400   6.842  0.0931  0.0149  0.2093
  755loPI    C111057   4.135  16.496   5.158  0.0324  0.0448 -0.0534
  755loPI    C211058   4.054  16.562   4.772 -0.1465 -0.0818 -0.0385
  755loPI    C311059   4.345  16.307   4.874 -0.0089  0.0533 -0.0895
  755loPI   PO411060   3.915  16.481   5.250  0.2518 -0.2584  0.2283
  755loPI   GL111061   3.832  16.432   5.627  0.1568 -0.2585  0.0695
  755loPI   GL211062   3.577  16.379   5.752  0.0148  0.2853 -0.0231
  755loPI   C1A11063   3.982  16.402   6.063  0.1440  0.2443  0.2168
  755loPI   C2A11064   4.095  16.252   6.435 -0.1682 -0.0286 -0.0671
  755loPI   C3A11065   4.394  16.210   6.836  0.0439 -0.2673 -0.2824
  755loPI   C4A11066   4.790  16.347   6.873  0.3862  0.1950 -0.2675
  755loPI   C5A11067   4.968  16.321   7.341  0.1618 -0.1401 -0.0581
  755loPI   C6A11068   5.136  16.461   7.746  0.0169  0.2621  0.1796
  755loPI   C1B11069   3.757  15.947   5.846  0.1865  0.3001  0.0448
  755loPI   C2B11070   3.795  15.875   6.297  0.1836 -0.1078  0.0519
  755loPI   C3B11071   3.786  15.537   6.598  0.2988 -0.0815 -0.1474
  755loPI   C4B11072   3.818  15.475   6.986 -0.1096 -0.0299  0.3010
  756loPI    C111073   9.204  18.196   5.142 -0.0809 -0.0561 -0.1323
  756loPI    C211074   9.462  17.921   5.009 -0.0374 -0.0621 -0.0367
  756loPI    C311075   9.497  18.302   4.891 -0.0226 -0.0744 -0.0723
  756loPI   PO411076   9.200  18.154   5.421 -0.0535 -0.2970  0.1309
  756loPI   GL111077   9.349  18.029   5.891 -0.2173  0.0658  0.1502
  756loPI   GL211078   9.733  18.048   5.870 -0.1528 -0.0171 -0.1235
  756loPI   C1A11079   9.425  17.774   6.236  0.0092  0.1249 -0.1133
  756loPI   C2A11080   9.583  17.742   6.636  0.1705 -0.4884 -0.3183
  756loPI   C3A11081   9.563  17.918   7.011 -0.1044  0.1026 -0.0984
  756loPI   C4A11082   9.353  17.902   7.386 -0.0933  0.0879  0.1487
  756loPI   C5A11083   9.318  17.569   7.639 -0.0789 -0.1112 -0.1990
  756loPI   C6A11084   8.940  17.386   7.732 -0.0929  0.2871 -0.2197
  756loPI   C1B11085   9.868  18.405   6.174  0.1202 -0.0518  0.3665
  756loPI   C2B11086  10.180  18.467   6.587 -0.1873 -0.1776  0.0387
  756loPI   C3B11087  10.331  18.837   6.896  0.1813 -0.1429 -0.0128
  756loPI   C4B11088  10.202  19.116   7.295 -0.1469 -0.0824  0.1397
  757loPI    C111089   8.995   2.833   5.455 -0.1866 -0.0427 -0.1071
  757loPI    C211090   9.160   2.535   5.245  0.0552  0.0499 -0.0508
  757loPI    C311091   8.845   2.733   5.098 -0.1027 -0.2275 -0.0915
  757loPI   PO411092   8.981   2.643   5.688  0.0984 -0.0023 -0.1269
  757loPI   GL111093   9.041   2.505   6.079 -0.1792 -0.1989  0.2745
  757loPI   GL211094   9.344   2.510   6.138 -0.1523  0.1105  0.0440
  757loPI   C1A11095   8.819   2.239   6.319 -0.0232 -0.0217 -0.0641
  757loPI   C2A11096   8.898   2.067   6.729 -0.0912  0.0804 -0.0461
  757loPI   C3A11097   9.166   1.790   6.840 -0.1723 -0.2379  0.0352
  757loPI   C4A11098   9.493   1.581   6.939  0.0106 -0.2538  0.1081
  757loPI   C5A11099   9.690   1.219   7.120 -0.3245  0.4063 -0.0707
  757loPI   C6A11100  10.055   1.212   7.437  0.2066 -0.1180 -0.6039
  757loPI   C1B11101   9.331   2.160   6.418 -0.1171 -0.0360 -0.0043
  757loPI   C2B11102   9.660   1.840   6.582 -0.1793  0.2967 -0.0153
  757loPI   C3B11103   9.578   1.225   6.569 -0.0324  0.2672 -0.3213
  757loPI   C4B11104   9.685   0.829   6.492 -0.0684  0.3401  0.0217
  758loPI    C111105  15.619  13.940   5.461  0.1851 -0.1526 -0.0649
  758loPI    C211106  15.443  13.722   5.176  0.1110 -0.2465  0.0516
  758loPI    C311107  15.837  13.793   5.159  0.1139 -0.2849 -0.0524
  758loPI   PO411108  15.497  14.201   5.437  0.1430  0.1390  0.0057
  758loPI   GL111109  15.664  14.594   5.665  0.0797  0.1204  0.2633
  758loPI   GL211110  15.762  14.839   5.844 -0.0173 -0.2224 -0.1138
  758loPI   C1A11111  15.383  14.588   6.103  0.2426 -0.3141  0.0262
  758loPI   C2A11112  15.355  14.511   6.553  0.3089  0.4341  0.2764
  758loPI   C3A11113  15.409  14.513   6.960 -0.1373  0.0478 -0.1117
  758loPI   C4A11114  15.486  14.505   7.404 -0.0425 -0.0661 -0.0824
  758loPI   C5A11115  15.281  14.615   7.826 -0.0152  0.3311  0.0394
  758loPI   C6A11116  14.938  14.586   8.158  0.1634 -0.0051 -0.1527
  758loPI   C1B11117  15.586  15.012   6.267  0.0311 -0.1435  0.0757
  758loPI   C2B11118  15.574  14.994   6.731  0.1615 -0.1835  0.2599
  758loPI   C3B11119  15.577  14.994   7.207  0.3767  0.2776  0.0951
  758loPI   C4B11120  15.696  15.201   7.509 -0.3271  0.1238 -0.4289
  759loPI    C111121   5.856   9.217   5.389  0.2577  0.0120 -0.0957
  759loPI    C211122   5.542   9.347   5.177  0.0679 -0.0637  0.1354
  759loPI    C311123   5.795   9.081   5.017  0.0765  0.0785 -0.0914
  759loPI   PO411124   5.645   9.146   5.668  0.3679 -0.2215 -0.0590
  759loPI   GL111125   5.576   8.774   5.933  0.2700 -0.1220 -0.3727
  759loPI   GL211126   5.282   8.886   5.858  0.1058  0.1365  0.0598
  759loPI   C1A11127   5.874   8.764   6.184  0.1508 -0.0774 -0.1504
  759loPI   C2A11128   5.937   8.745   6.558 -0.0868  0.0783 -0.0366
  759loPI   C3A11129   6.009   8.530   6.932  0.0372 -0.2680 -0.0533
  759loPI   C4A11130   6.066   8.424   7.402 -0.1862  0.1516  0.0016
  759loPI   C5A11131   6.069   8.492   7.821  0.2286 -0.0932 -0.0732
  759loPI   C6A11132   6.300   8.296   8.135 -0.1528  0.2302  0.1836
  759loPI   C1B11133   5.416   9.090   6.264  0.2153  0.1518 -0.3281
  759loPI   C2B11134   5.616   9.144   6.696 -0.1436 -0.0292  0.0808
  759loPI   C3B11135   5.902   9.008   6.937  0.0326 -0.0225 -0.0043
  759loPI   C4B11136   6.006   8.952   7.323  0.1459 -0.0037  0.1327
  760loPI    C111137  15.084  16.845   5.380  0.1706 -0.2276  0.0976
  760loPI    C211138  15.457  16.849   5.238  0.1743 -0.2088  0.1079
  760loPI    C311139  15.147  16.847   4.985  0.1755  0.2543  0.0954
  760loPI   PO411140  15.068  16.600   5.477 -0.3182  0.0562 -0.0767
  760loPI   GL111141  15.264  16.583   5.826  0.0609  0.0178 -0.0477
  760loPI   GL211142  15.554  16.702   5.783 -0.0853  0.0982  0.1066
  760loPI   C1A11143  15.085  16.656   6.258 -0.0483  0.1277  0.0365
  760loPI   C2A11144  14.940  16.991   6.517 -0.0770 -0.2344 -0.0585
  760loPI   C3A11145  14.991  17.200   6.918  0.5477  0.3133  0.0791
  760loPI   C4A11146  15.115  17.180   7.370 -0.0996 -0.1187  0.3396
  760loPI   C5A11147  15.179  16.949   7.654 -0.1135 -0.3339 -0.0467
  760loPI   C6A11148  14.964  16.922   8.026 -0.1193  0.1087  0.3049
  760loPI   C1B11149  15.606  16.506   6.201  0.2558 -0.0882 -0.1783
  760loPI   C2B11150  15.561  16.406   6.601 -0.0182  0.1936  0.3638
  760loPI   C3B11151  15.611  16.334   7.033 -0.1031 -0.2139  0.1352
  760loPI   C4B11152  15.474  15.975   7.339 -0.0890  0.4164 -0.0110
  761loPI    C111153   5.558   3.063   5.196 -0.0272  0.1187 -0.0092
  761loPI    C211154   5.456   3.449   5.173 -0.4503  0.0083 -0.0683
  761loPI    C311155   5.563   3.250   4.843  0.0553  0.1444  0.0053
  761loPI   PO411156   5.649   3.021   5.468  0.1310 -0.1078  0.3098
  761loPI   GL111157   5.553   2.812   5.843  0.2047 -0.1454 -0.0601
  761loPI   GL211158   5.448   2.523   6.036 -0.0462  0.1100  0.0668
  761loPI   C1A11159   5.833   2.857   6.243  0.2461 -0.0249 -0.2376
  761loPI   C2A11160   5.573   2.717   6.618 -0.2475 -0.0230 -0.0729
  761loPI   C3A11161   5.404   2.888   6.977 -0.2088  0.1277 -0.2543
  761loPI   C4A11162   5.120   3.087   7.213 -0.2838 -0.0932 -0.1647
  761loPI   C5A11163   4.982   3.039   7.665  0.1978 -0.2934 -0.3263
  761loPI   C6A11164   4.973   3.295   8.094 -0.2874  0.2583 -0.1131
  761loPI   C1B11165   5.350   2.300   6.403  0.0103 -0.1141  0.0401
  761loPI   C2B11166   5.387   2.253   6.879 -0.0646 -0.1101 -0.1640
  761loPI   C3B11167   5.200   2.535   7.234 -0.0216  0.1582 -0.0987
  761loPI   C4B11168   5.211   2.645   7.572 -0.0756 -0.0866 -0.0159
  762loPI    C111169  10.683  16.185   5.310 -0.0680 -0.1160  0.1844
  762loPI    C211170  10.386  15.968   5.152 -0.0616 -0.0028  0.0148
  762loPI    C311171  10.720  16.033   4.942  0.0334 -0.0265  0.1572
  762loPI   PO411172  10.599  16.297   5.444  0.2039  0.2461 -0.0761
  762loPI   GL111173  10.370  16.385   5.841 -0.1592  0.0819  0.0457
  762loPI   GL211174  10.057  16.502   5.843 -0.0686  0.2533  0.0686
  762loPI   C1A11175  10.203  16.108   6.107  0.1112  0.0600 -0.0110
  762loPI   C2A11176  10.175  15.958   6.521  0.2715 -0.0212  0.1050
  762loPI   C3A11177  10.324  15.952   6.861 -0.1489  0.0915 -0.3336
  762loPI   C4A11178  10.323  15.919   7.292  0.1322  0.0568 -0.0420
  762loPI   C5A11179  10.301  16.017   7.704 -0.1690 -0.0178  0.0479
  762loPI   C6A11180  10.310  16.299   7.999  0.0958  0.0403 -0.0404
  762loPI   C1B11181   9.968  16.847   6.056 -0.0610  0.1335 -0.0853
  762loPI   C2B11182  10.042  16.889   6.501  0.2272  0.2317  0.0437
  762loPI   C3B11183  10.024  16.795   7.005 -0.1688  0.0499  0.0269
  762loPI   C4B11184   9.829  16.984   7.391 -0.0409  0.0576 -0.0567
  763loPI    C111185   6.728   3.450   4.980  0.0751  0.1210  0.0881
  763loPI    C211186   6.799   3.827   4.868 -0.1648  0.2084  0.2222
  763loPI    C311187   7.022   3.529   4.721 -0.1046  0.3796 -0.0409
  763loPI   PO411188   6.665   3.460   5.220 -0.2224  0.1217 -0.0210
  763loPI   GL111189   6.398   3.523   5.526  0.2947  0.1095 -0.2503
  763loPI   GL211190   6.375   3.297   5.912 -0.0321 -0.2682  0.1678
  763loPI   C1A11191   6.703   3.640   5.881  0.2200 -0.1443 -0.0050
  763loPI   C2A11192   6.721   4.025   6.092  0.1955 -0.0707 -0.0150
  763loPI   C3A11193   6.637   3.981   6.615 -0.3104 -0.1413  0.2077
  763loPI   C4A11194   6.602   4.036   7.094 -0.1982 -0.5164  0.1276
  763loPI   C5A11195   6.622   3.891   7.507 -0.3059  0.2743 -0.1975
  763loPI   C6A11196   6.603   4.179   7.930  0.1089 -0.0930  0.0449
  763loPI   C1B11197   6.424   3.549   6.360  0.1019  0.0129 -0.3471
  763loPI   C2B11198   6.270   3.607   6.781  0.1126  0.1053  0.2115
  763loPI   C3B11199   5.965   3.490   6.984  0.1764  0.2864  0.1019
  763loPI   C4B11200   5.592   3.367   7.053 -0.1304 -0.1301  0.2339
  764loPI    C111201  10.810  15.540   4.993 -0.0116 -0.0940  0.1344
  764loPI    C211202  10.487  15.599   4.765  0.0936  0.0465  0.0197
  764loPI    C311203  10.773  15.347   4.644  0.1227  0.0777  0.0233
  764loPI   PO411204  10.668  15.587   5.291 -0.1084 -0.2951 -0.3121
  764loPI   GL111205  10.718  15.532   5.822 -0.1373 -0.0939 -0.2372
  764loPI   GL211206  10.826  15.899   5.731  0.3654  0.3155  0.2541
  764loPI   C1A11207  10.489  15.586   6.171 -0.0294 -0.3384  0.0778
  764loPI   C2A11208  10.556  15.539   6.606 -0.1772 -0.0741  0.2290
  764loPI   C3A11209  10.614  15.552   7.025  0.0094 -0.3950  0.2007
  764loPI   C4A11210  10.612  15.457   7.443  0.0745  0.1370  0.0407
  764loPI   C5A11211  10.377  15.488   7.764  0.0210  0.0099  0.1225
  764loPI   C6A11212  10.254  15.254   8.117 -0.1061 -0.0188  0.1530
  764loPI   C1B11213  10.674  16.054   6.087  0.0467  0.2001 -0.0033
  764loPI   C2B11214  10.633  16.131   6.521 -0.0714  0.0137 -0.1767
  764loPI   C3B11215  10.862  16.001   6.870  0.3121  0.4715  0.0050
  764loPI   C4B11216  11.211  16.044   7.056  0.1727 -0.2012 -0.2910
  765loPI    C111217   3.900  12.765   5.104 -0.0903  0.1302  0.1342
  765loPI    C211218   4.202  12.514   5.026 -0.0986  0.0692  0.2949
  765loPI    C311219   4.010  12.696   4.725 -0.0829 -0.1053  0.1777
  765loPI   PO411220   3.975  12.894   5.257 -0.0498 -0.0935  0.0154
  765loPI   GL111221   3.986  12.731   5.677 -0.4031  0.1392  0.0910
  765loPI   GL211222   3.752  12.598   5.691 -0.1025  0.0480  0.0637
  765loPI   C1A11223   4.144  12.894   6.056 -0.0779 -0.2463 -0.0921
  765loPI   C2A11224   4.286  13.032   6.514  0.0010  0.1258  0.1282
  765loPI   C3A11225   4.206  13.195   6.918  0.1249  0.0000 -0.0520
  765loPI   C4A11226   4.203  13.060   7.385 -0.1416 -0.1173 -0.1719
  765loPI   C5A11227   4.163  13.329   7.731 -0.1221  0.2530  0.1330
  765loPI   C6A11228   4.238  13.682   8.044 -0.1500 -0.0386 -0.0705
  765loPI   C1B11229   3.974  12.436   6.077  0.0499 -0.0040  0.1156
  765loPI   C2B11230   4.113  12.608   6.446  0.2734 -0.0529 -0.0790
  765loPI   C3B11231   4.198  12.647   6.885 -0.3342 -0.2558  0.2105
  765loPI   C4B11232   3.967  12.673   7.298  0.1638 -0.5518  0.0685
  766loPI    C111233  15.519  16.366   4.945 -0.1315 -0.2471  0.1833
  766loPI    C211234  15.629  16.005   4.812  0.0165 -0.0774 -0.1684
  766loPI    C311235  15.356  16.218   4.611 -0.3902 -0.1657  0.2709
  766loPI   PO411236  15.425  16.330   5.255 -0.3182  0.0517 -0.0451
  766loPI   GL111237  15.634  16.211   5.688  0.0148  0.2543 -0.3138
  766loPI   GL211238  15.389  16.130   5.751  0.2669  0.2473  0.0071
  766loPI   C1A11239  15.689  15.949   6.148  0.0276 -0.2261  0.3019
  766loPI   C2A11240  15.550  15.864   6.526  0.1817 -0.0487  0.0276
  766loPI   C3A11241  15.261  15.872   6.747  0.4095 -0.0985 -0.0591
  766loPI   C4A11242  15.128  16.181   7.056  0.0574  0.0366 -0.0147
  766loPI   C5A11243  15.110  16.360   7.497  0.2514  0.2892 -0.0276
  766loPI   C6A11244  15.011  16.416   7.816  0.1080 -0.0690  0.0449
  766loPI   C1B11245  15.239  16.185   6.132 -0.1677 -0.0947 -0.1541
  766loPI   C2B11246  15.039  16.217   6.510  0.0155 -0.0893 -0.0686
  766loPI   C3B11247  15.144  16.585   6.769 -0.0195  0.2175 -0.0244
  766loPI   C4B11248  15.029  16.687   7.184  0.0849  0.1248  0.2532
  767loPI    C111249  12.421   7.218   5.670  0.0773  0.2465 -0.1408
  767loPI    C211250  12.220   6.873   5.642 -0.0017  0.2604  0.2138
  767loPI    C311251  12.469   6.983   5.349 -0.1276  0.0006  0.0045
  767loPI   PO411252  12.516   7.244   5.931  0.0467  0.1960  0.2670
  767loPI   GL111253  12.761   7.097   6.244 -0.1658  0.1065  0.0098
  767loPI   GL211254  12.829   6.753   6.295  0.2625 -0.2232 -0.0850
  767loPI   C1A11255  12.782   7.347   6.598  0.4840 -0.0458  0.3932
  767loPI   C2A11256  12.674   7.446   6.936  0.0160  0.0133 -0.0164
  767loPI   C3A11257  12.357   7.391   7.242  0.0631  0.1047 -0.0840
  767loPI   C4A11258  12.069   7.613   7.582 -0.2864 -0.2375  0.0941
  767loPI   C5A11259  12.054   7.853   7.973  0.0935  0.2069  0.0544
  767loPI   C6A11260  12.037   7.985   8.400 -0.0148 -0.3658 -0.2066
  767loPI   C1B11261  13.071   6.849   6.585  0.0718 -0.2246  0.1141
  767loPI   C2B11262  12.788   6.913   6.980 -0.0005  0.0857  0.0860
  767loPI   C3B11263  12.634   7.059   7.393  0.0108  0.1151 -0.1146
  767loPI   C4B11264  12.759   7.063   7.790  0.1585  0.1873  0.1231
  768loPI    C111265  16.866  17.902   5.299  0.0679  0.0366 -0.0748
  768loPI    C211266  17.082  17.829   4.970 -0.0731 -0.2647 -0.1043
  768loPI    C311267  16.687  17.888   4.942 -0.0187  0.1687 -0.0372
  768loPI   PO411268  17.006  17.720   5.450 -0.0383  0.2398 -0.0334
  768loPI   GL111269  17.114  17.737   5.828  0.1660  0.1542 -0.1498
  768loPI   GL211270  17.188  17.378   5.885 -0.2766 -0.3475 -0.0651
  768loPI   C1A11271  17.428  17.741   6.167  0.0432 -0.1108  0.2045
  768loPI   C2A11272  17.422  17.962   6.546  0.0705 -0.3197  0.1424
  768loPI   C3A11273  17.199  18.032   6.890 -0.1554  0.0986 -0.2478
  768loPI   C4A11274  17.231  18.061   7.201 -0.1715 -0.0519  0.2262
  768loPI   C5A11275  17.309  18.087   7.590  0.1480 -0.0469  0.0878
  768loPI   C6A11276  17.707  18.035   7.812 -0.1293 -0.0716  0.0423
  768loPI   C1B11277  17.233  17.143   6.234 -0.0135  0.1140  0.3644
  768loPI   C2B11278  17.211  16.939   6.659 -0.3350  0.0111 -0.0489
  768loPI   C3B11279  17.303  17.228   6.984  0.1520  0.1413  0.0236
  768loPI   C4B11280  17.413  17.314   7.369 -0.2824 -0.0133  0.0309
  769loPI    C111281  15.323  10.556   5.041 -0.2017 -0.1948 -0.1793
  769loPI    C211282  15.132  10.751   4.748 -0.0512 -0.0288 -0.1683
  769loPI    C311283  15.351  10.428   4.663 -0.1005 -0.0479 -0.2226
  769loPI   PO411284  15.272  10.681   5.243 -0.1026 -0.1015 -0.2099
  769loPI   GL111285  15.288  10.766   5.668 -0.0241  0.1719 -0.3451
  769loPI   GL211286  14.971  10.917   5.661  0.2684  0.0691 -0.0508
  769loPI   C1A11287  15.380  10.854   6.080 -0.1020  0.1980  0.0856
  769loPI   C2A11288  15.271  10.661   6.410  0.4108  0.1720  0.2037
  769loPI   C3A11289  15.239  10.646   6.798 -0.0957 -0.3352  0.0810
  769loPI   C4A11290  15.441  10.581   7.266 -0.2031 -0.1155  0.3952
  769loPI   C5A11291  15.384  10.445   7.545 -0.0168 -0.0535 -0.1144
  769loPI   C6A11292  15.195  10.189   7.868 -0.1743  0.1245 -0.2474
  769loPI   C1B11293  14.846  10.565   5.978 -0.1720 -0.1475  0.1856
  769loPI   C2B11294  14.955  10.299   6.373 -0.2066  0.1217  0.0646
  769loPI   C3B11295  14.972  10.249   6.854  0.4454  0.0792  0.0752
  769loPI   C4B11296  14.971  10.239   7.253 -0.0932 -0.1058  0.0868
  770loPI    C111297  16.735   0.281   5.018  0.0058  0.0126  0.0202
  770loPI    C211298  17.129   0.349   5.031  0.0248 -0.0964  0.0269
  770loPI    C311299  16.992  -0.026   5.011 -0.0743 -0.0517 -0.1531
  770loPI   PO411300  16.646   0.413   5.186 -0.1170 -0.3369 -0.1049
  770loPI   GL111301  16.891   0.441   5.568 -0.2421 -0.1979 -0.4417
  770loPI   GL211302  16.662   0.529   5.730 -0.2149  0.1110 -0.0918
  770loPI   C1A11303  17.142   0.391   5.963 -0.1844  0.1420 -0.1067
  770loPI   C2A11304  17.376   0.133   6.316  0.2266 -0.0317  0.1924
  770loPI   C3A11305  17.481   0.222   6.851  0.0100  0.1555 -0.2999
  770loPI   C4A11306  17.420   0.421   7.295  0.1999 -0.1798 -0.1989
  770loPI   C5A11307  17.233   0.210   7.692 -0.0204 -0.1101 -0.2258
  770loPI   C6A11308  16.947   0.365   8.094 -0.0444 -0.2701 -0.2399
  770loPI   C1B11309  16.481   0.768   6.172  0.2033  0.4627  0.1075
  770loPI   C2B11310  16.300   0.600   6.598  0.1961  0.2228 -0.0005
  770loPI   C3B11311  16.353   0.571   7.053 -0.1137 -0.4046  0.1204
  770loPI   C4B11312  16.615   0.508   7.313 -0.2955 -0.2345 -0.2820
  771loPI    C111313   8.558   0.427   5.105 -0.1027  0.1363  0.2492
  771loPI    C211314   8.733   0.677   5.364  0.0240 -0.0242  0.3201
  771loPI    C311315   8.821   0.698   4.974  0.0542  0.0244  0.3295
  771loPI   PO411316   8.439   0.282   5.340 -0.1301  0.0763  0.0542
  771loPI   GL111317   8.230   0.564   5.679  0.1474 -0.2496 -0.2378
  771loPI   GL211318   7.974   0.856   5.553 -0.1527  0.4001  0.0119
  771loPI   C1A11319   8.224   0.373   6.072  0.1457 -0.1247  0.0253
  771loPI   C2A11320   8.191   0.244   6.608 -0.2907  0.1712 -0.1414
  771loPI   C3A11321   8.109   0.097   6.961  0.0186 -0.2747 -0.1389
  771loPI   C4A11322   8.008   0.029   7.484  0.0277  0.2322 -0.0355
  771loPI   C5A11323   7.686  -0.267   7.766  0.0659  0.1370 -0.2105
  771loPI   C6A11324   7.373  -0.495   7.536 -0.0827 -0.0241  0.1250
  771loPI   C1B11325   8.155   0.943   6.021 -0.3159 -0.1727 -0.2925
  771loPI   C2B11326   8.207   0.816   6.443 -0.1109 -0.2510 -0.0017
  771loPI   C3B11327   8.139   0.701   6.875 -0.2899 -0.2147 -0.0799
  771loPI   C4B11328   7.950   0.514   7.257  0.1976  0.1718 -0.2557
  772loPI    C111329   1.274   4.640   5.167  0.2812  0.3341 -0.2267
  772loPI    C211330   1.388   4.532   4.799  0.0538 -0.0787 -0.1820
  772loPI    C311331   1.003   4.503   4.906  0.0751  0.2836  0.0095
  772loPI   PO411332   1.446   4.573   5.360  0.0826 -0.3422 -0.0062
  772loPI   GL111333   1.468   4.718   5.674 -0.0114 -0.0351  0.0842
  772loPI   GL211334   1.448   4.366   5.843  0.1715  0.0336 -0.2103
  772loPI   C1A11335   1.394   4.903   6.060 -0.3230  0.0582  0.2194
  772loPI   C2A11336   1.332   4.987   6.495  0.0619  0.0203  0.2320
  772loPI   C3A11337   1.412   5.057   6.981  0.0384 -0.1795  0.0585
  772loPI   C4A11338   1.263   4.992   7.374 -0.0215  0.1120 -0.1086
  772loPI   C5A11339   1.479   4.920   7.744 -0.0135 -0.0268  0.4157
  772loPI   C6A11340   1.796   4.971   7.987  0.1342  0.2429  0.2710
  772loPI   C1B11341   1.536   4.504   6.283  0.2772 -0.0848  0.1779
  772loPI   C2B11342   1.348   4.459   6.649 -0.0996 -0.0764 -0.1817
  772loPI   C3B11343   1.287   4.541   6.985 -0.1394  0.1147 -0.2672
  772loPI   C4B11344   1.113   4.469   7.356 -0.1835 -0.2903 -0.1684
  773loPI    C111345   4.527  12.150   5.064  0.1092 -0.0090  0.1550
  773loPI    C211346   4.747  12.182   4.731 -0.1538  0.2048 -0.0026
  773loPI    C311347   4.729  11.833   4.926  0.0811  0.1045 -0.1560
  773loPI   PO411348   4.577  12.250   5.261  0.2276 -0.3200 -0.0566
  773loPI   GL111349   4.727  12.326   5.674  0.1709 -0.0062  0.1704
  773loPI   GL211350   4.471  12.509   5.868 -0.0111 -0.2651  0.0252
  773loPI   C1A11351   5.050  12.433   5.943  0.2355  0.0652 -0.1541
  773loPI   C2A11352   5.016  12.327   6.376 -0.0374 -0.2156  0.2883
  773loPI   C3A11353   5.037  12.344   6.791  0.1512 -0.1374  0.0081
  773loPI   C4A11354   4.837  12.229   7.208  0.2968  0.2048  0.0906
  773loPI   C5A11355   4.434  12.389   7.326 -0.1914 -0.2517 -0.0271
  773loPI   C6A11356   4.261  12.682   7.753  0.2913  0.0460  0.0255
  773loPI   C1B11357   4.641  12.661   6.197  0.1852  0.0698 -0.1238
  773loPI   C2B11358   4.676  12.674   6.609 -0.0371  0.3290  0.2418
  773loPI   C3B11359   4.681  12.816   7.091  0.2218  0.0504  0.1049
  773loPI   C4B11360   4.633  12.930   7.612  0.0367 -0.0392  0.0912
  774loPI    C111361  15.505   6.398   5.709  0.1075 -0.1210 -0.0031
  774loPI    C211362  15.490   6.009   5.802 -0.1725 -0.0926  0.0788
  774loPI    C311363  15.373   6.132   5.440 -0.0604 -0.0869  0.0443
  774loPI   PO411364  15.782   6.490   5.823  0.1031 -0.0161  0.4840
  774loPI   GL111365  16.020   6.831   6.030 -0.1064 -0.0441 -0.0455
  774loPI   GL211366  16.286   6.739   6.034  0.2015 -0.0441  0.0033
  774loPI   C1A11367  15.765   6.699   6.414  0.2259  0.0669 -0.3522
  774loPI   C2A11368  15.749   6.814   6.882  0.1005  0.0683 -0.0005
  774loPI   C3A11369  15.847   6.845   7.260 -0.2385 -0.0360  0.0696
  774loPI   C4A11370  15.915   6.850   7.773  0.0316  0.2165  0.0126
  774loPI   C5A11371  15.813   7.079   8.172 -0.0655 -0.0152 -0.3468
  774loPI   C6A11372  15.701   7.471   8.100 -0.1428  0.0476  0.0373
  774loPI   C1B11373  16.285   6.625   6.513  0.1602  0.2034 -0.1616
  774loPI   C2B11374  16.233   6.710   6.930  0.1393 -0.0472 -0.1128
  774loPI   C3B11375  16.294   6.530   7.347 -0.2912  0.2542 -0.1957
  774loPI   C4B11376  16.299   6.474   7.778  0.0719 -0.2210  0.1746
  775loPI    C111377  10.794  11.116   5.506 -0.1464  0.0347  0.0277
  775loPI    C211378  10.464  11.251   5.687 -0.0463  0.2402  0.0598
  775loPI    C311379  10.684  11.498   5.463 -0.0498  0.0420 -0.1666
  775loPI   PO411380  10.902  10.950   5.756 -0.0473 -0.0700  0.0297
  775loPI   GL111381  11.027  11.002   6.186 -0.0037  0.1616  0.0743
  775loPI   GL211382  11.167  11.237   6.300  0.1687 -0.2841 -0.0025
  775loPI   C1A11383  10.783  11.030   6.578 -0.0396  0.0168  0.1348
  775loPI   C2A11384  10.896  10.997   7.075 -0.0066 -0.0225 -0.1137
  775loPI   C3A11385  10.898  11.235   7.370  0.0381 -0.1526 -0.0394
  775loPI   C4A11386  10.782  11.569   7.716  0.0351 -0.1086 -0.0360
  775loPI   C5A11387  10.390  11.541   8.006 -0.1342  0.3345  0.1430
  775loPI   C6A11388  10.027  11.489   8.179  0.0798 -0.2475 -0.0529
  775loPI   C1B11389  11.259  11.465   6.629  0.0020 -0.1326  0.0922
  775loPI   C2B11390  11.222  11.838   6.903 -0.2389  0.1343  0.1957
  775loPI   C3B11391  11.429  12.170   7.242 -0.0281  0.2003 -0.2591
  775loPI   C4B11392  11.580  12.192   7.703 -0.1292  0.1344 -0.0265
  776loPI    C111393   9.107   6.929   5.943  0.2190  0.1792 -0.2548
  776loPI    C211394   9.037   7.270   6.140 -0.2560 -0.0197 -0.0634
  776loPI    C311395   8.882   7.215   5.776 -0.3025 -0.0878 -0.0335
  776loPI   PO411396   9.020   6.695   6.039  0.0940 -0.1584 -0.3408
  776loPI   GL111397   8.996   6.292   6.262 -0.1381 -0.2646 -0.2216
  776loPI   GL211398   8.651   6.268   6.244  0.0999 -0.1242  0.0046
  776loPI   C1A11399   9.407   6.323   6.643  0.2379  0.1292  0.3344
  776loPI   C2A11400   9.541   6.133   6.991 -0.1782  0.1452  0.3106
  776loPI   C3A11401   9.546   6.096   7.411  0.0457  0.1941 -0.2983
  776loPI   C4A11402   9.308   6.148   7.784  0.2505 -0.1417  0.1015
  776loPI   C5A11403   9.013   6.219   8.054  0.2701 -0.0654 -0.0606
  776loPI   C6A11404   8.611   6.314   8.245  0.2186  0.1595 -0.2156
  776loPI   C1B11405   8.367   6.189   6.557 -0.1843  0.2330  0.1219
  776loPI   C2B11406   8.455   6.249   7.031 -0.2411 -0.1572  0.0052
  776loPI   C3B11407   8.339   6.330   7.466  0.1207 -0.2634 -0.0849
  776loPI   C4B11408   8.375   6.014   7.786 -0.2042 -0.0422 -0.1555
  777loPI    C111409  10.432   7.793   5.739  0.0691  0.0861  0.0481
  777loPI    C211410  10.733   7.554   5.627  0.0179  0.0965 -0.1143
  777loPI    C311411  10.644   7.878   5.410  0.0402  0.2239  0.0647
  777loPI   PO411412  10.369   7.640   6.040 -0.2509  0.0808  0.0826
  777loPI   GL111413  10.601   7.518   6.497  0.0278 -0.1970 -0.0728
  777loPI   GL211414  10.285   7.364   6.464  0.1366  0.1266  0.1382
  777loPI   C1A11415  10.741   7.802   6.743  0.1929 -0.0569 -0.1531
  777loPI   C2A11416  11.138   7.869   7.096  0.1651 -0.1370  0.1084
  777loPI   C3A11417  11.172   7.877   7.521  0.0929 -0.1972  0.0308
  777loPI   C4A11418  11.187   7.927   7.990  0.2752 -0.0578  0.0283
  777loPI   C5A11419  11.054   8.067   8.465  0.0769 -0.2523  0.0852
  777loPI   C6A11420  10.832   8.332   8.625 -0.0536  0.0464 -0.1095
  777loPI   C1B11421  10.206   7.752   6.690  0.2297 -0.1209  0.0443
  777loPI   C2B11422  10.034   7.979   7.010 -0.0602 -0.2970  0.1435
  777loPI   C3B11423  10.006   7.940   7.486  0.0205 -0.0926 -0.2704
  777loPI   C4B11424   9.992   8.066   7.940 -0.1163  0.0893  0.3229
  778loPI    C111425   2.958  16.567   5.137 -0.2811 -0.1123 -0.0784
  778loPI    C211426   3.025  16.206   5.296 -0.3370 -0.0519  0.0848
  778loPI    C311427   3.124  16.278   4.915 -0.1774 -0.1906  0.0987
  778loPI   PO411428   2.748  16.594   5.345  0.0648 -0.0644 -0.0923
  778loPI   GL111429   2.729  16.460   5.726  0.1003 -0.2399  0.3272
  778loPI   GL211430   3.064  16.587   5.756 -0.1701  0.0960 -0.0056
  778loPI   C1A11431   2.727  16.355   6.175 -0.0020  0.0638  0.2154
  778loPI   C2A11432   2.500  16.145   6.587  0.0710 -0.0774  0.0387
  778loPI   C3A11433   2.491  15.839   6.868  0.0769 -0.2725  0.1051
  778loPI   C4A11434   2.474  15.597   7.293  0.0171 -0.0413  0.2399
  778loPI   C5A11435   2.171  15.444   7.637 -0.2208 -0.0928 -0.0053
  778loPI   C6A11436   2.017  15.051   7.688 -0.4576 -0.0606 -0.0388
  778loPI   C1B11437   3.188  16.551   6.171 -0.1165  0.0681  0.0318
  778loPI   C2B11438   3.554  16.302   6.303 -0.1492 -0.1409  0.0479
  778loPI   C3B11439   3.658  16.137   6.686  0.0626  0.0206 -0.0777
  778loPI   C4B11440   3.912  15.976   6.973  0.4021  0.1181  0.0113
  779loPI    C111441  17.406  11.927   5.135  0.0835  0.0848 -0.1896
  779loPI    C211442  17.331  12.283   4.970  0.0515  0.0668 -0.2138
  779loPI    C311443  17.149  11.955   4.830 -0.0136  0.0583 -0.1107
  779loPI   PO411444  17.361  11.894   5.389 -0.3161 -0.1236 -0.0239
  779loPI   GL111445  17.557  11.620   5.708 -0.0622  0.1217  0.0606
  779loPI   GL211446  17.674  11.384   5.599  0.3368 -0.1290  0.1794
  779loPI   C1A11447  17.204  11.633   5.941 -0.1100  0.0396  0.2011
  779loPI   C2A11448  17.176  11.790   6.252  0.1033 -0.1835  0.1981
  779loPI   C3A11449  16.919  11.764   6.575 -0.2261  0.1751  0.1960
  779loPI   C4A11450  16.737  11.665   6.984 -0.1315 -0.5196 -0.1534
  779loPI   C5A11451  16.433  11.984   7.277  0.1201  0.2649 -0.1833
  779loPI   C6A11452  16.279  12.222   7.061 -0.0031  0.2295  0.2117
  779loPI   C1B11453  17.728  11.210   5.930 -0.0035  0.1698 -0.3842
  779loPI   C2B11454  17.530  11.404   6.374 -0.1231  0.0875 -0.0161
  779loPI   C3B11455  17.457  11.715   6.703  0.2845  0.0980 -0.2919
  779loPI   C4B11456  17.440  11.783   7.171  0.0712  0.4342 -0.3548
  780loPI    C111457   1.972   6.996   5.206 -0.2221 -0.0483 -0.1148
  780loPI    C211458   1.953   6.598   5.175 -0.0637 -0.0509 -0.1847
  780loPI    C311459   2.088   6.816   4.868  0.0871  0.0374 -0.0565
  780loPI   PO411460   2.026   7.016   5.552 -0.1356  0.1560  0.3284
  780loPI   GL111461   2.157   6.593   5.834  0.0125  0.0025  0.4285
  780loPI   GL211462   2.553   6.650   5.832  0.1063 -0.0491 -0.2280
  780loPI   C1A11463   1.962   6.787   6.207  0.1831 -0.0654 -0.2342
  780loPI   C2A11464   1.608   6.829   6.572  0.0406 -0.0302  0.1287
  780loPI   C3A11465   1.519   7.010   6.965 -0.1476  0.1310 -0.1033
  780loPI   C4A11466   1.267   6.956   7.283 -0.0248 -0.1729  0.2015
  780loPI   C5A11467   1.254   6.707   7.664  0.0088 -0.2777 -0.0818
  780loPI   C6A11468   1.307   6.354   7.893 -0.1345  0.3659  0.0050
  780loPI   C1B11469   2.540   6.721   6.312  0.0028  0.1098 -0.0237
  780loPI   C2B11470   2.191   6.799   6.700 -0.0181  0.1343  0.2242
  780loPI   C3B11471   2.272   6.915   7.153 -0.1951  0.2550  0.1536
  780loPI   C4B11472   2.362   6.942   7.598 -0.0563 -0.1389  0.0203
  781loPI    C111473  12.515  13.448   5.600 -0.0055  0.0474 -0.3314
  781loPI    C211474  12.420  13.831   5.665 -0.1027  0.0087 -0.2429
  781loPI    C311475  12.692  13.737   5.387  0.0906  0.1568 -0.1067
  781loPI   PO411476  12.593  13.346   5.834  0.0253  0.0302 -0.2474
  781loPI   GL111477  12.900  13.408   6.261 -0.0658 -0.3041  0.0254
  781loPI   GL211478  13.226  13.304   6.111  0.0009  0.3162  0.1471
  781loPI   C1A11479  12.965  13.458   6.706  0.0435 -0.0968  0.3202
  781loPI   C2A11480  13.022  13.565   7.155 -0.0401  0.1483 -0.2898
  781loPI   C3A11481  12.985  13.539   7.592  0.1329  0.0181  0.0596
  781loPI   C4A11482  13.152  13.485   8.048  0.2198 -0.2029 -0.0067
  781loPI   C5A11483  13.298  13.121   8.245 -0.3644 -0.0830 -0.0924
  781loPI   C6A11484  13.278  12.679   8.046 -0.2366 -0.0458  0.1107
  781loPI   C1B11485  13.376  13.598   6.411  0.0081  0.1311  0.3696
  781loPI   C2B11486  13.438  13.418   6.825 -0.0672  0.1307 -0.0852
  781loPI   C3B11487  13.511  13.326   7.286 -0.0203 -0.3632  0.0285
  781loPI   C4B11488  13.466  13.030   7.705 -0.3206 -0.2057 -0.0950
  782loPI    C111489   5.435  12.688   5.149 -0.0818 -0.0249  0.0609
  782loPI    C211490   5.228  12.503   4.861  0.0724 -0.0748 -0.0191
  782loPI    C311491   5.523  12.756   4.765  0.1531 -0.1244  0.0952
  782loPI   PO411492   5.471  12.469   5.399  0.0860  0.1917  0.1800
  782loPI   GL111493   5.815  12.470   5.767 -0.0519 -0.0141 -0.1071
  782loPI   GL211494   5.532  12.463   5.979  0.0222 -0.0524  0.1760
  782loPI   C1A11495   5.875  12.826   6.067 -0.0703  0.0424  0.0514
  782loPI   C2A11496   5.955  12.786   6.485 -0.0067 -0.2545  0.0350
  782loPI   C3A11497   5.932  12.716   6.838 -0.1048 -0.0894  0.0544
  782loPI   C4A11498   5.841  12.844   7.265 -0.0234  0.0052 -0.1550
  782loPI   C5A11499   5.580  12.857   7.582 -0.0126  0.0332  0.1375
  782loPI   C6A11500   5.200  12.884   7.895  0.0427 -0.0715  0.0432
  782loPI   C1B11501   5.644  12.435   6.370 -0.0474  0.3344 -0.1243
  782loPI   C2B11502   5.529  12.392   6.824  0.0165 -0.1778  0.0770
  782loPI   C3B11503   5.359  12.620   7.134  0.3065 -0.0454 -0.0790
  782loPI   C4B11504   5.010  12.585   7.511 -0.0087 -0.1495  0.1444
  783loPI    C111505  17.769   2.912   4.897 -0.0792  0.0639  0.0252
  783loPI    C211506  18.014   2.726   4.642  0.1258  0.0516  0.2276
  783loPI    C311507  18.107   3.090   4.779 -0.1834  0.2313 -0.0244
  783loPI   PO411508  17.737   2.744   5.065  0.1468  0.0763 -0.0334
  783loPI   GL111509  17.556   2.730   5.459  0.3895  0.0499 -0.3955
  783loPI   GL211510  17.396   2.996   5.436  0.3101  0.4452  0.0231
  783loPI   C1A11511  17.907   2.803   5.717 -0.1713  0.1463  0.0260
  783loPI   C2A11512  18.099   2.800   6.124 -0.0877  0.1768  0.1022
  783loPI   C3A11513  18.262   2.600   6.494  0.1932  0.0976 -0.0481
  783loPI   C4A11514  18.160   2.508   6.854 -0.0508 -0.1676 -0.1446
  783loPI   C5A11515  18.305   2.523   7.290 -0.1337  0.3190  0.1448
  783loPI   C6A11516  18.151   2.860   7.563 -0.2117 -0.0023  0.3450
  783loPI   C1B11517  17.592   3.167   5.820 -0.2672  0.2674 -0.2674
  783loPI   C2B11518  17.624   2.949   6.219 -0.3005  0.0053  0.2430
  783loPI   C3B11519  17.861   2.989   6.666  0.0364  0.0068 -0.2344
  783loPI   C4B11520  17.970   2.902   7.095  0.0877 -0.2416  0.2385
  784loPI    C111521   6.589  12.041   5.488 -0.1120  0.1089  0.1711
  784loPI    C211522   6.402  12.331   5.286 -0.0405  0.1012  0.0932
  784loPI    C311523   6.728  12.158   5.131 -0.0406  0.0295  0.1725
  784loPI   PO411524   6.272  11.897   5.489  0.1691  0.3054 -0.4647
  784loPI   GL111525   5.961  11.823   5.773  0.0708  0.2195 -0.0770
  784loPI   GL211526   5.808  12.005   6.047 -0.1339  0.2451  0.0366
  784loPI   C1A11527   6.110  11.523   6.159  0.0537  0.3691 -0.2321
  784loPI   C2A11528   6.125  11.465   6.646  0.0284  0.0959  0.1199
  784loPI   C3A11529   6.195  11.442   7.049 -0.1528  0.0961 -0.1669
  784loPI   C4A11530   6.229  11.395   7.497  0.4662 -0.1451  0.3319
  784loPI   C5A11531   6.369  11.439   7.873 -0.1390 -0.1025 -0.2073
  784loPI   C6A11532   6.702  11.414   8.081  0.0260 -0.0191 -0.0259
  784loPI   C1B11533   5.922  11.881   6.511 -0.2000  0.1128 -0.0942
  784loPI   C2B11534   5.925  11.911   6.958 -0.0808 -0.1965  0.1287
  784loPI   C3B11535   6.005  11.834   7.298  0.2939 -0.0474  0.3474
  784loPI   C4B11536   5.803  11.752   7.696  0.0185 -0.0992 -0.0148
  785loPI    C111537   3.807   4.293   5.211  0.0819  0.1486  0.0207
  785loPI    C211538   3.427   4.311   5.090  0.0654  0.1633  0.0743
  785loPI    C311539   3.676   4.614   5.012  0.0266  0.2204  0.1711
  785loPI   PO411540   3.775   4.134   5.392  0.2566  0.1028  0.1879
  785loPI   GL111541   3.655   4.262   5.819  0.2528 -0.1631 -0.0594
  785loPI   GL211542   3.890   4.454   5.905 -0.0689  0.3008  0.0771
  785loPI   C1A11543   3.664   4.271   6.302 -0.0623  0.0237 -0.4503
  785loPI   C2A11544   3.570   4.137   6.714 -0.0991 -0.0285  0.3227
  785loPI   C3A11545   3.337   3.945   7.024  0.2210  0.1820  0.0450
  785loPI   C4A11546   3.466   3.578   7.328  0.1256 -0.4202  0.4318
  785loPI   C5A11547   3.716   3.399   7.544 -0.0005 -0.0558 -0.0327
  785loPI   C6A11548   4.047   3.167   7.575 -0.1837  0.0136 -0.2337
  785loPI   C1B11549   4.047   4.651   6.145 -0.0658 -0.0421  0.0654
  785loPI   C2B11550   3.783   4.962   6.323 -0.0031 -0.2056 -0.0716
  785loPI   C3B11551   3.537   5.288   6.290 -0.2254 -0.1969  0.0149
  785loPI   C4B11552   3.219   5.423   6.683 -0.0457  0.1159 -0.2476
  786loPI    C111553  14.228  11.689   5.176 -0.0975  0.1781 -0.0069
  786loPI    C211554  14.582  11.506   5.145 -0.3082 -0.2295 -0.0707
  786loPI    C311555  14.513  11.843   4.941  0.1019 -0.0433  0.0864
  786loPI   PO411556  14.129  11.508   5.348 -0.1299 -0.0345 -0.1468
  786loPI   GL111557  13.861  11.737   5.713 -0.1657 -0.2644  0.0219
  786loPI   GL211558  13.722  11.989   5.867 -0.0342 -0.0524 -0.1375
  786loPI   C1A11559  14.002  11.633   6.097 -0.2929  0.0376 -0.0972
  786loPI   C2A11560  13.965  11.499   6.542  0.1853 -0.1259 -0.5236
  786loPI   C3A11561  14.099  11.351   6.980 -0.2882 -0.0099  0.3325
  786loPI   C4A11562  14.241  11.307   7.318 -0.4541  0.0046 -0.1713
  786loPI   C5A11563  14.109  11.310   7.679  0.0081  0.0351 -0.1332
  786loPI   C6A11564  13.897  11.468   7.984  0.2535  0.1123  0.1938
  786loPI   C1B11565  13.569  11.841   6.302  0.0894 -0.2879  0.1580
  786loPI   C2B11566  13.385  11.817   6.628 -0.1061 -0.0854 -0.3170
  786loPI   C3B11567  13.487  11.632   7.007  0.0806 -0.1369 -0.0723
  786loPI   C4B11568  13.786  11.478   7.305 -0.1342  0.1219 -0.0804
  787loPI    C111569  16.324  13.628   5.481 -0.1955 -0.2005 -0.1858
  787loPI    C211570  16.317  13.924   5.212 -0.1731  0.1746  0.2143
  787loPI    C311571  16.506  13.581   5.128 -0.2125  0.2628 -0.2619
  787loPI   PO411572  16.037  13.591   5.587  0.0103 -0.2622 -0.1899
  787loPI   GL111573  15.806  13.708   5.875  0.3155 -0.4243 -0.0526
  787loPI   GL211574  15.444  13.789   5.999 -0.1975 -0.1290  0.2474
  787loPI   C1A11575  15.898  13.635   6.276 -0.2275  0.0051 -0.0984
  787loPI   C2A11576  16.125  13.693   6.590  0.0461  0.0539 -0.1715
  787loPI   C3A11577  16.040  13.613   7.025 -0.0856 -0.1330 -0.2015
  787loPI   C4A11578  15.780  13.495   7.344 -0.0417  0.2244 -0.2526
  787loPI   C5A11579  15.383  13.461   7.406  0.3562  0.0699 -0.2454
  787loPI   C6A11580  15.044  13.380   7.652 -0.0395  0.1218  0.3089
  787loPI   C1B11581  15.582  14.095   6.398  0.0799 -0.2239 -0.4389
  787loPI   C2B11582  15.877  14.056   6.750  0.0527 -0.2960  0.0275
  787loPI   C3B11583  15.891  14.078   7.284 -0.3542 -0.2516 -0.0798
  787loPI   C4B11584  16.067  13.920   7.756  0.1629  0.1366  0.0295
  788loPI    C111585   7.699   8.156   5.870  0.0032 -0.1684  0.0196
  788loPI    C211586   7.476   8.058   5.552 -0.0168 -0.1508  0.0282
  788loPI    C311587   7.868   8.124   5.508 -0.0566  0.0531 -0.0293
  788loPI   PO411588   7.672   8.035   6.027  0.1880 -0.1574  0.1086
  788loPI   GL111589   7.718   8.081   6.473 -0.2192 -0.0793 -0.1927
  788loPI   GL211590   7.999   8.248   6.353 -0.0155  0.0087 -0.1255
  788loPI   C1A11591   7.908   8.119   6.885  0.0658  0.0301 -0.0022
  788loPI   C2A11592   7.845   7.906   7.201  0.2458  0.2533 -0.1256
  788loPI   C3A11593   8.093   7.729   7.458 -0.1081 -0.1741  0.2269
  788loPI   C4A11594   8.396   7.696   7.835 -0.5573 -0.0872  0.0843
  788loPI   C5A11595   8.711   7.577   8.151  0.0077  0.2341  0.1144
  788loPI   C6A11596   8.957   7.276   8.316  0.0520 -0.0065  0.1286
  788loPI   C1B11597   8.136   8.496   6.585 -0.0802  0.2021  0.1206
  788loPI   C2B11598   8.164   8.606   7.044 -0.0259  0.2122  0.0699
  788loPI   C3B11599   8.303   8.631   7.480 -0.1670 -0.0065  0.0640
  788loPI   C4B11600   8.177   8.563   7.921 -0.1188 -0.1525  0.1674
  789loPI    C111601  10.652   4.972   5.228  0.0415 -0.1310  0.1712
  789loPI    C211602  10.983   5.007   5.006 -0.0123 -0.1037  0.0947
  789loPI    C311603  10.677   5.258   4.949 -0.1960 -0.3657 -0.0976
  789loPI   PO411604  10.703   4.951   5.406  0.1365 -0.0007  0.0997
  789loPI   GL111605  11.009   4.929   5.707  0.0258  0.3987  0.2218
  789loPI   GL211606  11.275   4.844   5.510 -0.1480 -0.0521  0.1423
  789loPI   C1A11607  10.845   4.907   6.058 -0.0794 -0.2119 -0.0503
  789loPI   C2A11608  10.892   4.821   6.460 -0.2057 -0.2124  0.1772
  789loPI   C3A11609  10.796   4.773   6.931 -0.0341 -0.2149 -0.0623
  789loPI   C4A11610  10.942   4.630   7.265  0.1453 -0.2170  0.1680
  789loPI   C5A11611  11.078   4.586   7.659  0.0515 -0.0262 -0.0632
  789loPI   C6A11612  11.258   4.561   8.092 -0.0045  0.3355 -0.0122
  789loPI   C1B11613  11.382   4.813   6.015  0.2174 -0.0908 -0.1428
  789loPI   C2B11614  11.374   4.771   6.472  0.0686  0.1611  0.1842
  789loPI   C3B11615  11.334   4.738   6.860  0.2949  0.0018  0.3750
  789loPI   C4B11616  11.468   4.643   7.207  0.0771 -0.0730 -0.3142
  790loPI    C111617   9.024   4.547   5.387  0.1523  0.0740  0.1353
  790loPI    C211618   9.333   4.773   5.274  0.0200  0.2014  0.0253
  790loPI    C311619   8.966   4.853   5.137 -0.0219 -0.1072 -0.0501
  790loPI   PO411620   9.171   4.306   5.380 -0.1785 -0.1648  0.0600
  790loPI   GL111621   9.060   3.987   5.706 -0.0892 -0.2066 -0.2803
  790loPI   GL211622   8.760   3.965   5.745  0.1959 -0.0095  0.1998
  790loPI   C1A11623   9.242   3.992   6.166 -0.0140 -0.2725 -0.2118
  790loPI   C2A11624   9.352   3.812   6.547  0.1043 -0.0102  0.2670
  790loPI   C3A11625   9.435   3.865   6.948  0.2986  0.1621 -0.1126
  790loPI   C4A11626   9.318   3.680   7.405 -0.0536 -0.1194  0.1834
  790loPI   C5A11627   9.256   3.417   7.721 -0.0857 -0.0375 -0.2752
  790loPI   C6A11628   9.338   3.090   8.037 -0.0767 -0.0396 -0.0700
  790loPI   C1B11629   8.786   3.767   6.164 -0.0528 -0.0100 -0.0600
  790loPI   C2B11630   8.754   3.847   6.639 -0.0869  0.1433  0.4684
  790loPI   C3B11631   8.600   3.917   7.113  0.1452  0.1147  0.0086
  790loPI   C4B11632   8.562   3.961   7.615 -0.0270  0.0809  0.0676
  791loPI    C111633   6.083   7.951   5.579  0.0228  0.2355 -0.0318
  791loPI    C211634   6.005   8.226   5.299 -0.0286  0.1139 -0.1381
  791loPI    C311635   5.705   8.051   5.496  0.0021  0.1046 -0.0992
  791loPI   PO411636   6.321   8.069   5.687  0.0634 -0.0791  0.0666
  791loPI   GL111637   6.281   8.176   6.096  0.0175  0.0406 -0.0306
  791loPI   GL211638   6.348   8.579   6.078 -0.2370 -0.2873  0.1759
  791loPI   C1A11639   6.030   8.215   6.472 -0.0643 -0.0004  0.1603
  791loPI   C2A11640   6.038   8.049   6.902 -0.3137  0.1669 -0.0568
  791loPI   C3A11641   5.836   7.979   7.271 -0.1524  0.2243 -0.0751
  791loPI   C4A11642   5.623   7.964   7.638 -0.1236 -0.1164  0.3216
  791loPI   C5A11643   5.398   7.896   7.896  0.0217 -0.0349 -0.0582
  791loPI   C6A11644   5.388   7.625   8.196  0.0311  0.0635  0.3675
  791loPI   C1B11645   6.408   8.545   6.451  0.0701 -0.1231 -0.0076
  791loPI   C2B11646   6.487   8.732   6.851  0.5623  0.2921 -0.2492
  791loPI   C3B11647   6.412   8.738   7.203  0.2408  0.2147  0.0568
  791loPI   C4B11648   6.386   8.949   7.608  0.1421  0.2378 -0.1335
  792loPI    C111649  10.321   2.224   4.834 -0.0468  0.0102  0.0493
  792loPI    C211650   9.990   2.251   4.611 -0.2329 -0.2298  0.2887
  792loPI    C311651  10.226   1.929   4.581  0.1037  0.0380 -0.0406
  792loPI   PO411652  10.217   2.324   5.069  0.0020  0.0837 -0.3630
  792loPI   GL111653  10.383   2.445   5.439 -0.0231  0.0669 -0.1681
  792loPI   GL211654  10.515   2.751   5.418 -0.4158  0.0060 -0.2374
  792loPI   C1A11655  10.348   2.351   5.817  0.3237 -0.0803 -0.0007
  792loPI   C2A11656  10.356   2.191   6.282  0.0591  0.1004  0.0643
  792loPI   C3A11657  10.534   2.298   6.644  0.1828  0.1838 -0.2057
  792loPI   C4A11658  10.737   2.339   7.007  0.1208  0.1734 -0.0156
  792loPI   C5A11659  10.895   2.319   7.313 -0.1943  0.4298 -0.0631
  792loPI   C6A11660  10.965   2.525   7.695 -0.1039  0.1471  0.3116
  792loPI   C1B11661  10.654   2.712   5.794 -0.1754  0.0424  0.1821
  792loPI   C2B11662  10.653   2.599   6.150  0.1704  0.1120  0.0506
  792loPI   C3B11663  10.830   2.273   6.231 -0.2448  0.0881 -0.1335
  792loPI   C4B11664  11.201   2.079   6.137 -0.1449  0.0313  0.2979
  793loPI    C111665  15.124   4.532   5.227 -0.0074  0.1085 -0.1635
  793loPI    C211666  15.208   4.914   5.142 -0.1604  0.1406 -0.1730
  793loPI    C311667  15.488   4.632   5.094 -0.0545  0.2477 -0.1889
  793loPI   PO411668  15.058   4.405   5.533 -0.3055 -0.1533 -0.3131
  793loPI   GL111669  15.140   4.509   5.903  0.0671  0.0152 -0.2645
  793loPI   GL211670  15.475   4.615   6.014  0.0473  0.0751  0.1855
  793loPI   C1A11671  15.071   4.469   6.238  0.0372  0.2949 -0.0468
  793loPI   C2A11672  14.804   4.385   6.593 -0.0488 -0.3035 -0.0152
  793loPI   C3A11673  14.640   4.115   6.824  0.0645  0.0602 -0.1181
  793loPI   C4A11674  14.686   4.136   7.287 -0.0437 -0.2132  0.0560
  793loPI   C5A11675  14.662   4.301   7.652  0.2240 -0.0361 -0.2083
  793loPI   C6A11676  14.737   4.613   7.930 -0.1647  0.0072 -0.2032
  793loPI   C1B11677  15.457   4.741   6.357 -0.1967 -0.0805 -0.1494
  793loPI   C2B11678  15.351   4.776   6.636 -0.2962  0.1850 -0.1407
  793loPI   C3B11679  15.062   4.571   6.980  0.3842 -0.2588  0.0221
  793loPI   C4B11680  15.126   4.465   7.498  0.1746 -0.0557  0.2213
  794loPI    C111681   1.724   2.135   5.049  0.0483 -0.0023  0.2223
  794loPI    C211682   2.057   2.290   4.890  0.0798 -0.3841 -0.1016
  794loPI    C311683   1.721   2.275   4.674 -0.1366 -0.0623  0.2003
  794loPI   PO411684   1.755   1.861   5.228 -0.1744  0.0803  0.1941
  794loPI   GL111685   1.974   1.972   5.641  0.1055 -0.0502  0.1630
  794loPI   GL211686   2.273   2.094   5.724  0.0794  0.0694 -0.2989
  794loPI   C1A11687   2.017   2.058   6.185  0.2207  0.2091  0.0825
  794loPI   C2A11688   2.094   2.174   6.567 -0.1309  0.1083  0.1581
  794loPI   C3A11689   2.211   2.317   6.992 -0.0845  0.1102 -0.2798
  794loPI   C4A11690   2.390   2.291   7.450 -0.4217 -0.1918  0.0761
  794loPI   C5A11691   2.480   2.565   7.721  0.3606 -0.1069 -0.1644
  794loPI   C6A11692   2.441   2.558   8.090 -0.1260 -0.3679  0.1380
  794loPI   C1B11693   2.535   2.101   6.162 -0.0575  0.1660 -0.2133
  794loPI   C2B11694   2.713   2.008   6.471 -0.0937  0.1461 -0.1446
  794loPI   C3B11695   2.712   2.026   6.974  0.0719  0.0992 -0.0282
  794loPI   C4B11696   2.782   1.895   7.406  0.1251  0.4302  0.0514
  795loPI    C111697  17.276   4.534   4.978 -0.0142  0.0001  0.2086
  795loPI    C211698  17.542   4.333   4.756 -0.3216 -0.0166 -0.1538
  795loPI    C311699  17.538   4.733   4.751  0.0248 -0.0016  0.2519
  795loPI   PO411700  17.248   4.339   5.164 -0.1086 -0.0702 -0.1193
  795loPI   GL111701  17.262   4.253   5.530  0.0444  0.0376  0.0772
  795loPI   GL211702  16.995   4.442   5.703 -0.1964 -0.0127 -0.4201
  795loPI   C1A11703  17.236   4.002   5.967 -0.0210 -0.2541  0.0021
  795loPI   C2A11704  17.259   3.834   6.380  0.2670 -0.0267 -0.0242
  795loPI   C3A11705  17.154   3.750   6.782 -0.1153 -0.2198 -0.0477
  795loPI   C4A11706  17.197   3.546   7.155 -0.3534 -0.1871 -0.0551
  795loPI   C5A11707  17.019   3.452   7.542 -0.3703  0.2722 -0.0782
  795loPI   C6A11708  16.766   3.131   7.676  0.2525 -0.0528 -0.0147
  795loPI   C1B11709  16.832   4.310   6.077 -0.0470 -0.0508 -0.2980
  795loPI   C2B11710  16.849   4.130   6.457 -0.0247  0.3098  0.2400
  795loPI   C3B11711  16.644   3.957   6.820 -0.1777  0.3608  0.0385
  795loPI   C4B11712  16.704   3.763   7.174 -0.0680 -0.4322  0.0281
  796loPI    C111713  13.229   6.789   5.575 -0.1981  0.1107 -0.0774
  796loPI    C211714  12.973   7.094   5.612 -0.1631  0.1758 -0.3531
  796loPI    C311715  13.341   7.157   5.466  0.0084  0.0799  0.0265
  796loPI   PO411716  13.103   6.556   5.771  0.0295  0.0403  0.1104
  796loPI   GL111717  13.053   6.222   5.967  0.0461  0.1671 -0.1441
  796loPI   GL211718  13.288   6.080   6.105 -0.0339  0.1970  0.0201
  796loPI   C1A11719  13.011   6.310   6.470  0.2247 -0.2246 -0.2078
  796loPI   C2A11720  12.697   6.432   6.778 -0.0922 -0.0271 -0.0280
  796loPI   C3A11721  12.542   6.520   7.217  0.3498  0.3019  0.3291
  796loPI   C4A11722  12.495   6.639   7.577 -0.3814 -0.0354 -0.0216
  796loPI   C5A11723  12.575   6.674   7.999  0.0157 -0.1307  0.1113
  796loPI   C6A11724  12.329   6.632   8.356 -0.1404 -0.0757 -0.0838
  796loPI   C1B11725  12.989   5.825   6.349  0.1916  0.2378 -0.2355
  796loPI   C2B11726  12.806   5.816   6.679  0.1693  0.0571  0.2378
  796loPI   C3B11727  12.776   5.968   7.086 -0.0955 -0.1585  0.1871
  796loPI   C4B11728  12.781   6.119   7.421 -0.3189 -0.1857 -0.1527
  797loPI    C111729  17.537   0.504   5.409 -0.3278  0.2007 -0.1323
  797loPI    C211730  17.809   0.668   5.166 -0.0959  0.1308  0.0763
  797loPI    C311731  17.621   0.331   5.058  0.2483 -0.0847  0.1329
  797loPI   PO411732  17.403   0.681   5.462 -0.0357 -0.1018  0.0709
  797loPI   GL111733  17.428   0.810   5.892 -0.1613  0.1254  0.0608
  797loPI   GL211734  17.608   0.551   5.946  0.0473 -0.2812  0.1499
  797loPI   C1A11735  17.440   1.174   6.157  0.1822  0.0502 -0.0772
  797loPI   C2A11736  17.450   1.261   6.551  0.0304  0.1126 -0.0223
  797loPI   C3A11737  17.592   1.276   6.917 -0.0368  0.0028  0.1078
  797loPI   C4A11738  17.494   1.021   7.282  0.0492  0.1165 -0.1530
  797loPI   C5A11739  17.323   0.812   7.631 -0.0174  0.0491 -0.2620
  797loPI   C6A11740  17.415   0.535   8.056 -0.1069 -0.0064 -0.1148
  797loPI   C1B11741  17.507   0.670   6.390  0.1611 -0.1193  0.1671
  797loPI   C2B11742  17.610   0.813   6.797 -0.1400 -0.0221 -0.3097
  797loPI   C3B11743  17.979   0.827   7.040 -0.1313 -0.0382 -0.0778
  797loPI   C4B11744  17.825   0.665   7.445 -0.1382  0.0935 -0.1750
  798loPI    C111745  18.015   0.163   5.168 -0.1433 -0.0350 -0.1643
  798loPI    C211746  18.290  -0.019   4.941 -0.0657 -0.0294 -0.0753
  798loPI    C311747  17.970  -0.222   5.068 -0.1438 -0.0141 -0.2448
  798loPI   PO411748  18.073   0.262   5.345 -0.0173  0.2090 -0.2962
  798loPI   GL111749  17.964   0.216   5.824 -0.0362  0.1391  0.2002
  798loPI   GL211750  18.213   0.325   5.878  0.2615 -0.1237  0.0225
  798loPI   C1A11751  17.894   0.314   6.244 -0.2729  0.1192  0.1163
  798loPI   C2A11752  17.910   0.379   6.690 -0.1135 -0.0016 -0.3467
  798loPI   C3A11753  18.003   0.315   7.140 -0.0455  0.0233 -0.0524
  798loPI   C4A11754  18.199   0.186   7.503  0.1765 -0.2346  0.0838
  798loPI   C5A11755  18.285   0.090   7.933  0.1717 -0.1284  0.0096
  798loPI   C6A11756  18.267   0.403   8.265 -0.1449  0.0290 -0.0118
  798loPI   C1B11757  18.433   0.584   6.028  0.0748 -0.0290 -0.4786
  798loPI   C2B11758  18.386   0.480   6.441 -0.1604  0.2528 -0.4170
  798loPI   C3B11759  18.482   0.442   6.882  0.1128 -0.0311  0.0298
  798loPI   C4B11760  18.507   0.497   7.194  0.2034  0.1934 -0.0048
  799loPI    C111761  11.646  16.455   5.168 -0.1276 -0.0077  0.1075
  799loPI    C211762  11.806  16.757   4.961 -0.1684 -0.0528  0.0099
  799loPI    C311763  11.433  16.787   5.101 -0.1383 -0.0195  0.0835
  799loPI   PO411764  11.887  16.443   5.318 -0.0496 -0.2188 -0.0402
  799loPI   GL111765  12.050  16.473   5.594  0.0458  0.1682  0.0654
  799loPI   GL211766  12.048  16.114   5.710 -0.2465  0.1686 -0.0151
  799loPI   C1A11767  12.171  16.509   6.041 -0.0047 -0.2888 -0.1597
  799loPI   C2A11768  12.201  16.725   6.473 -0.3975 -0.2080  0.1357
  799loPI   C3A11769  12.347  16.901   6.887  0.2102 -0.4026 -0.0835
  799loPI   C4A11770  12.387  16.908   7.277  0.2728  0.0471 -0.1004
  799loPI   C5A11771  12.550  17.209   7.712  0.1270  0.0425 -0.1491
  799loPI   C6A11772  12.783  17.282   7.982 -0.1313 -0.0835  0.3252
  799loPI   C1B11773  12.419  16.049   6.047 -0.1754 -0.0520  0.2696
  799loPI   C2B11774  12.457  16.292   6.378 -0.2535 -0.0105  0.5169
  799loPI   C3B11775  12.588  16.412   6.850 -0.0498  0.1901 -0.0733
  799loPI   C4B11776  12.821  16.918   7.009  0.1185 -0.0457  0.1034
  800loPI    C111777  13.904   7.937   5.369  0.2063 -0.0485 -0.3178
  800loPI    C211778  13.930   8.150   5.031  0.0292  0.2282 -0.1612
  800loPI    C311779  13.611   8.189   5.268 -0.0693 -0.3121 -0.1902
  800loPI   PO411780  14.104   7.973   5.537 -0.1970 -0.0617  0.1675
  800loPI   GL111781  14.213   8.214   5.900 -0.0794  0.2182 -0.1290
  800loPI   GL211782  14.437   8.507   5.835 -0.0548  0.1440  0.0276
  800loPI   C1A11783  14.446   8.202   6.339  0.0928  0.2478  0.1194
  800loPI   C2A11784  14.196   8.063   6.739  0.0450 -0.0906 -0.0301
  800loPI   C3A11785  14.063   8.097   7.112  0.1912  0.3758  0.1403
  800loPI   C4A11786  14.144   7.870   7.474 -0.1894 -0.0089  0.0680
  800loPI   C5A11787  14.237   7.601   7.844  0.0718  0.1784 -0.2958
  800loPI   C6A11788  14.179   7.202   8.043  0.0835 -0.2369 -0.4521
  800loPI   C1B11789  14.380   8.699   6.194  0.0092  0.0866  0.1505
  800loPI   C2B11790  14.363   8.613   6.581 -0.1526  0.0489 -0.0825
  800loPI   C3B11791  14.503   8.401   6.905 -0.0499 -0.2301  0.1670
  800loPI   C4B11792  14.430   8.419   7.337  0.1644  0.4208 -0.0090
  801loPI    C111793   4.809   0.127   5.232 -0.0277  0.0035  0.1091
  801loPI    C211794   5.135   0.079   5.004 -0.0766 -0.1281  0.0657
  801loPI    C311795   5.023   0.446   5.120  0.0830 -0.0818  0.0757
  801loPI   PO411796   4.859  -0.044   5.402  0.0410 -0.1796 -0.0942
  801loPI   GL111797   4.556  -0.013   5.744 -0.3053  0.1935 -0.0162
  801loPI   GL211798   4.535  -0.126   5.824 -0.2795 -0.0113 -0.1005
  801loPI   C1A11799   4.238   0.240   5.976 -0.1931 -0.0580  0.0795
  801loPI   C2A11800   4.114   0.177   6.409  0.1416 -0.2114 -0.1489
  801loPI   C3A11801   4.047   0.113   6.817  0.0213  0.2486  0.0457
  801loPI   C4A11802   4.346   0.132   7.137 -0.1466 -0.0447  0.2388
  801loPI   C5A11803   4.430   0.030   7.508 -0.1835  0.0463 -0.2383
  801loPI   C6A11804   4.311   0.023   7.885 -0.2782  0.4156  0.2453
  801loPI   C1B11805   4.536  -0.150   6.306  0.0637  0.0857  0.1490
  801loPI   C2B11806   4.475  -0.274   6.754  0.3587 -0.2463  0.0461
  801loPI   C3B11807   4.684  -0.351   7.072  0.1563  0.1032 -0.2253
  801loPI   C4B11808   4.862  -0.205   7.385 -0.2177  0.0331  0.0978
  802loPI    C111809   2.414  11.792   5.231  0.1586  0.0762  0.0404
  802loPI    C211810   2.511  11.881   4.853 -0.2267  0.0016 -0.0805
  802loPI    C311811   2.591  11.517   5.000 -0.4123 -0.0943 -0.2125
  802loPI   PO411812   2.490  11.987   5.392  0.1937  0.0289  0.0900
  802loPI   GL111813   2.653  12.339   5.626  0.0797  0.0829 -0.2534
  802loPI   GL211814   2.822  12.099   5.751  0.2122 -0.1983 -0.1308
  802loPI   C1A11815   2.786  12.548   6.008 -0.0605 -0.1561 -0.3664
  802loPI   C2A11816   2.755  12.455   6.403 -0.2249 -0.1027 -0.0577
  802loPI   C3A11817   2.682  12.423   6.826 -0.1489 -0.0479  0.0839
  802loPI   C4A11818   2.699  12.659   7.097  0.4884  0.5845  0.0243
  802loPI   C5A11819   2.700  12.666   7.560  0.1518 -0.1057 -0.1461
  802loPI   C6A11820   2.979  12.596   7.891 -0.1084 -0.0502 -0.1594
  802loPI   C1B11821   2.630  11.932   6.002  0.2128 -0.1094  0.0837
  802loPI   C2B11822   2.477  11.968   6.456 -0.3840 -0.0993  0.0965
  802loPI   C3B11823   2.524  11.966   6.934  0.2253  0.3569 -0.0831
  802loPI   C4B11824   2.578  12.228   7.291  0.1315 -0.3921 -0.2667
  803loPI    C111825   4.623  13.302   5.234  0.2120  0.0941  0.0341
  803loPI    C211826   4.423  13.020   5.034  0.0011  0.0943  0.2405
  803loPI    C311827   4.495  13.374   4.862 -0.1863  0.0981  0.1670
  803loPI   PO411828   4.783  13.171   5.357  0.0229 -0.0640 -0.1706
  803loPI   GL111829   4.832  12.896   5.748  0.1917  0.4013 -0.1114
  803loPI   GL211830   5.022  13.209   5.816  0.0651 -0.2439 -0.1332
  803loPI   C1A11831   4.605  13.158   6.171  0.1374 -0.0372 -0.0631
  803loPI   C2A11832   4.743  13.220   6.601 -0.2597  0.1364 -0.0489
  803loPI   C3A11833   4.700  13.401   7.083 -0.1404 -0.1826  0.0526
  803loPI   C4A11834   4.562  13.398   7.529  0.0902  0.0031 -0.2552
  803loPI   C5A11835   4.697  13.406   7.924  0.1181 -0.1288  0.1426
  803loPI   C6A11836   4.883  13.148   8.284  0.0870  0.1013  0.2668
  803loPI   C1B11837   5.143  13.393   6.224  0.1726 -0.1440 -0.0325
  803loPI   C2B11838   5.239  13.418   6.673 -0.2893 -0.0172 -0.2346
  803loPI   C3B11839   5.182  13.611   7.107 -0.0121 -0.0528  0.1119
  803loPI   C4B11840   5.039  13.576   7.485  0.0907 -0.5506  0.0574
  804loPI    C111841   4.751   2.300   5.050  0.0856 -0.0814 -0.1672
  804loPI    C211842   4.806   2.024   4.766 -0.0251 -0.1280 -0.1441
  804loPI    C311843   4.696   2.395   4.665  0.1774 -0.0764 -0.1791
  804loPI   PO411844   4.986   2.327   5.235  0.2628 -0.2201 -0.2182
  804loPI   GL111845   5.018   2.385   5.665 -0.0049  0.0022  0.1332
  804loPI   GL211846   4.622   2.349   5.751 -0.3109  0.0194  0.1819
  804loPI   C1A11847   5.019   2.150   6.030  0.3632 -0.0213  0.2097
  804loPI   C2A11848   4.934   2.038   6.472  0.1594 -0.3919 -0.0823
  804loPI   C3A11849   5.229   1.786   6.741 -0.1792 -0.2773  0.0419
  804loPI   C4A11850   5.155   1.678   7.288 -0.2690 -0.1989  0.1612
  804loPI   C5A11851   5.050   1.644   7.723  0.1414 -0.1155 -0.1056
  804loPI   C6A11852   4.775   1.852   8.051  0.1261 -0.4845 -0.0814
  804loPI   C1B11853   4.648   2.553   6.097  0.2371  0.0407  0.2151
  804loPI   C2B11854   4.593   2.737   6.493 -0.4761 -0.1724 -0.0650
  804loPI   C3B11855   4.336   3.024   6.621  0.0877 -0.2435  0.1407
  804loPI   C4B11856   4.127   3.105   7.048  0.2258 -0.2272 -0.0750
  805loPI    C111857  18.166   3.882   5.135 -0.3250 -0.1917  0.1065
  805loPI    C211858  18.106   4.189   5.383  0.0568  0.0269 -0.0643
  805loPI    C311859  18.023   4.228   4.994  0.0173 -0.1182 -0.0705
  805loPI   PO411860  18.031   3.647   5.248 -0.0066 -0.0182  0.1388
  805loPI   GL111861  18.007   3.236   5.524  0.0918  0.1607 -0.1556
  805loPI   GL211862  18.112   3.027   5.309  0.0662 -0.0550 -0.1155
  805loPI   C1A11863  18.093   3.241   6.007  0.1832 -0.2962 -0.1211
  805loPI   C2A11864  18.235   3.155   6.454 -0.1702 -0.1590  0.0024
  805loPI   C3A11865  18.395   3.054   6.798 -0.0258  0.0981  0.2235
  805loPI   C4A11866  18.484   3.048   7.144  0.3076 -0.2004  0.1200
  805loPI   C5A11867  18.532   3.269   7.581 -0.0305  0.2073  0.1350
  805loPI   C6A11868  18.635   3.414   8.052  0.1709 -0.1443  0.0215
  805loPI   C1B11869  18.444   2.855   5.710  0.2278 -0.1101 -0.1032
  805loPI   C2B11870  18.594   2.790   6.151 -0.2776 -0.1306  0.0007
  805loPI   C3B11871  18.776   2.648   6.573  0.2342  0.1589 -0.0104
  805loPI   C4B11872  18.746   2.644   6.964 -0.2224 -0.1653  0.2074
  806loPI    C111873  17.892   8.046   5.043 -0.1638 -0.0650  0.1546
  806loPI    C211874  17.750   7.790   4.771 -0.0444 -0.0699  0.0961
  806loPI    C311875  18.143   7.806   4.844 -0.0492  0.1080  0.0877
  806loPI   PO411876  17.771   8.080   5.282 -0.0626  0.2242  0.3036
  806loPI   GL111877  17.741   8.235   5.669 -0.1309 -0.0814  0.2711
  806loPI   GL211878  17.981   8.448   5.572  0.1158 -0.0334 -0.0099
  806loPI   C1A11879  17.777   8.353   6.059 -0.2724  0.3347  0.3275
  806loPI   C2A11880  17.930   8.258   6.456  0.0468 -0.3631 -0.0706
  806loPI   C3A11881  18.150   7.998   6.738 -0.1879 -0.0424 -0.1234
  806loPI   C4A11882  18.404   7.811   7.124  0.3249  0.0489  0.1128
  806loPI   C5A11883  18.746   7.928   7.310  0.2560  0.0263 -0.1541
  806loPI   C6A11884  19.199   7.772   7.363  0.3417  0.4167  0.1363
  806loPI   C1B11885  18.206   8.158   5.837 -0.1562  0.1598  0.4433
  806loPI   C2B11886  18.283   7.764   6.047 -0.3330  0.2072  0.0779
  806loPI   C3B11887  18.490   7.821   6.389  0.1686  0.0363  0.1068
  806loPI   C4B11888  18.733   7.876   6.752  0.0772  0.1688  0.0306
  807loPI    C111889  12.676   4.954   5.247 -0.0503  0.0001 -0.0757
  807loPI    C211890  12.681   5.270   5.001 -0.0882 -0.0452 -0.1350
  807loPI    C311891  12.776   4.907   4.862  0.1804 -0.0237 -0.0147
  807loPI   PO411892  12.526   5.137   5.465 -0.2249  0.0484  0.3013
  807loPI   GL111893  12.361   5.073   5.861 -0.0155  0.0434  0.0955
  807loPI   GL211894  12.030   5.127   5.855 -0.0092 -0.1687  0.1368
  807loPI   C1A11895  12.341   5.095   6.243 -0.0144 -0.0633 -0.1245
  807loPI   C2A11896  12.246   5.028   6.566 -0.1098  0.3247 -0.0235
  807loPI   C3A11897  12.315   4.989   6.960  0.1643 -0.0344 -0.0805
  807loPI   C4A11898  12.200   5.004   7.372 -0.1571 -0.1469  0.1398
  807loPI   C5A11899  12.075   5.119   7.675  0.0606  0.3607 -0.3396
  807loPI   C6A11900  11.796   5.243   7.996  0.2062 -0.0516 -0.0137
  807loPI   C1B11901  11.757   5.090   6.125 -0.3696 -0.2048  0.1547
  807loPI   C2B11902  11.751   5.064   6.579 -0.0034 -0.2575 -0.1775
  807loPI   C3B11903  11.642   5.055   7.006 -0.0643 -0.0439 -0.0655
  807loPI   C4B11904  11.545   5.070   7.487  0.1144 -0.2172  0.0488
  808loPI    C111905  18.349   5.251   5.495 -0.0037 -0.2926  0.1899
  808loPI    C211906  18.493   4.943   5.284  0.0582  0.0441 -0.2753
  808loPI    C311907  18.344   5.262   5.095 -0.3458  0.1487  0.1993
  808loPI   PO411908  18.356   5.148   5.791 -0.0276  0.0732 -0.1269
  808loPI   GL111909  18.048   5.041   6.068  0.0383 -0.2699 -0.0881
  808loPI   GL211910  17.962   4.681   6.072  0.0325  0.0168 -0.1789
  808loPI   C1A11911  18.109   5.067   6.516 -0.2000 -0.4803  0.0255
  808loPI   C2A11912  17.950   4.874   6.782 -0.0733 -0.2752  0.0469
  808loPI   C3A11913  18.101   4.886   7.142 -0.1703 -0.0530  0.1240
  808loPI   C4A11914  18.082   4.785   7.549 -0.0495  0.2559  0.1734
  808loPI   C5A11915  17.871   4.465   7.833  0.1024 -0.2004 -0.1961
  808loPI   C6A11916  17.549   4.092   8.000  0.1348 -0.0891 -0.1564
  808loPI   C1B11917  17.839   4.571   6.374 -0.2714  0.0777 -0.1540
  808loPI   C2B11918  17.720   4.407   6.793 -0.1923 -0.2207 -0.0709
  808loPI   C3B11919  17.533   4.162   7.187  0.0465  0.3247  0.2748
  808loPI   C4B11920  17.389   3.860   7.464  0.1230  0.3153 -0.0543
  809loPI    C111921   1.169   0.044   5.406 -0.0871 -0.1591  0.0725
  809loPI    C211922   0.949   0.222   5.124  0.1105 -0.1852 -0.1011
  809loPI    C311923   1.153   0.443   5.388 -0.4340 -0.1581  0.3146
  809loPI   PO411924   1.073  -0.089   5.486  0.0574 -0.0873 -0.1028
  809loPI   GL111925   1.223  -0.282   5.877 -0.2307 -0.0584 -0.2316
  809loPI   GL211926   1.399   0.083   5.837 -0.1334  0.2809 -0.1588
  809loPI   C1A11927   1.259  -0.177   6.384  0.0092  0.1076  0.2224
  809loPI   C2A11928   1.300  -0.196   6.922 -0.0045 -0.1228 -0.1411
  809loPI   C3A11929   1.350  -0.165   7.271 -0.1624 -0.1141  0.1711
  809loPI   C4A11930   1.110  -0.269   7.422 -0.0136  0.0194 -0.0557
  809loPI   C5A11931   1.041  -0.471   7.850  0.3306 -0.4102  0.0148
  809loPI   C6A11932   0.835  -0.547   8.214  0.1788  0.0484 -0.0269
  809loPI   C1B11933   1.620   0.147   6.136 -0.0670  0.0374  0.2405
  809loPI   C2B11934   1.570   0.223   6.628  0.2508 -0.2181  0.0995
  809loPI   C3B11935   1.479   0.397   6.989  0.0630  0.0336  0.3168
  809loPI   C4B11936   1.461   0.667   7.371  0.0109  0.1561 -0.0462
  810loPI    C111937  12.070  12.768   5.246  0.0255 -0.0130  0.0740
  810loPI    C211938  12.462  12.696   5.279  0.0213 -0.1011 -0.0596
  810loPI    C311939  12.329  13.072   5.258  0.1034 -0.0726 -0.0742
  810loPI   PO411940  11.946  12.677   5.543  0.1843  0.2640 -0.2370
  810loPI   GL111941  12.096  12.591   5.987 -0.1794  0.2551 -0.0483
  810loPI   GL211942  11.902  12.724   6.262 -0.0889  0.1614  0.0676
  810loPI   C1A11943  12.403  12.459   6.257  0.1308  0.4106 -0.0270
  810loPI   C2A11944  12.420  12.405   6.717  0.0150  0.1153  0.0511
  810loPI   C3A11945  12.457  12.526   7.124  0.2485  0.1365  0.0298
  810loPI   C4A11946  12.407  12.453   7.542 -0.0368  0.2285  0.0589
  810loPI   C5A11947  12.359  12.588   7.950  0.1803  0.0439 -0.2162
  810loPI   C6A11948  12.250  12.569   8.430 -0.0319 -0.3741  0.1004
  810loPI   C1B11949  12.032  12.825   6.589  0.2498 -0.2698 -0.1097
  810loPI   C2B11950  12.046  12.839   6.957 -0.1225  0.0468 -0.0844
  810loPI   C3B11951  12.040  12.806   7.375  0.2580 -0.0291 -0.0310
  810loPI   C4B11952  12.052  13.060   7.615  0.0529 -0.3750  0.0556
  811loPI    C111953   3.673   5.506   5.595  0.2034 -0.1410  0.1041
  811loPI    C211954   3.917   5.554   5.282  0.0462  0.0383  0.0073
  811loPI    C311955   3.561   5.738   5.289 -0.0932 -0.2303  0.1410
  811loPI   PO411956   3.816   5.520   5.773 -0.0619  0.1741  0.0085
  811loPI   GL111957   4.029   5.348   6.115  0.0821  0.1248  0.1321
  811loPI   GL211958   3.933   5.746   6.164  0.0595  0.0476  0.2483
  811loPI   C1A11959   3.936   5.381   6.608 -0.1338 -0.0838  0.0407
  811loPI   C2A11960   3.784   5.475   6.966  0.1280 -0.1814  0.0417
  811loPI   C3A11961   3.485   5.510   7.139 -0.0206 -0.0228 -0.0687
  811loPI   C4A11962   3.188   5.268   7.198  0.1726  0.2476  0.0032
  811loPI   C5A11963   2.997   5.035   7.452  0.1617 -0.0963 -0.1464
  811loPI   C6A11964   2.558   4.899   7.442  0.0512  0.4170  0.1345
  811loPI   C1B11965   3.573   5.905   6.477 -0.1105 -0.0616 -0.1754
  811loPI   C2B11966   3.484   5.936   6.929 -0.1545 -0.4283  0.0026
  811loPI   C3B11967   3.485   6.104   7.302 -0.2138 -0.3748  0.0241
  811loPI   C4B11968   3.377   6.393   7.690 -0.2390 -0.3479  0.0041
  812loPI    C111969  13.570  16.447   5.385 -0.0431 -0.0005 -0.0619
  812loPI    C211970  13.271  16.632   5.194 -0.1040 -0.0337  0.0005
  812loPI    C311971  13.540  16.420   4.987 -0.0064  0.1622 -0.0764
  812loPI   PO411972  13.650  16.641   5.601 -0.0824 -0.0422 -0.1844
  812loPI   GL111973  13.538  16.963   5.810  0.4417 -0.2800  0.0688
  812loPI   GL211974  13.228  16.955   5.659 -0.4091 -0.0223 -0.1534
  812loPI   C1A11975  13.608  16.818   6.275 -0.2451  0.1261  0.1328
  812loPI   C2A11976  13.617  16.595   6.638  0.1217  0.2833  0.2420
  812loPI   C3A11977  13.455  16.599   7.057 -0.2207  0.0381 -0.5085
  812loPI   C4A11978  13.386  16.863   7.290  0.0099 -0.0619 -0.1327
  812loPI   C5A11979  13.158  17.176   7.451  0.2636 -0.4287 -0.0495
  812loPI   C6A11980  13.105  17.570   7.677 -0.1934  0.3667  0.1803
  812loPI   C1B11981  13.175  16.659   6.075  0.2217  0.2293 -0.2502
  812loPI   C2B11982  13.363  16.369   6.250  0.2650  0.3317  0.1595
  812loPI   C3B11983  13.677  16.117   6.496  0.0579  0.1381 -0.2367
  812loPI   C4B11984  13.782  16.145   6.927  0.1273  0.3078  0.1941
  813loPI    C111985  11.478   9.750   5.802  0.3509 -0.2053  0.1296
  813loPI    C211986  11.649   9.746   5.441  0.1324 -0.2662  0.0251
  813loPI    C311987  11.305   9.551   5.501 -0.0607  0.1048  0.1527
  813loPI   PO411988  11.809   9.792   5.931 -0.0193 -0.1696  0.0603
  813loPI   GL111989  12.026   9.870   6.276 -0.1029 -0.0751 -0.0705
  813loPI   GL211990  11.791  10.117   6.388 -0.0328  0.1398 -0.0018
  813loPI   C1A11991  12.196   9.845   6.643 -0.0554  0.0220 -0.3883
  813loPI   C2A11992  12.496   9.870   6.994 -0.0040  0.2490 -0.1574
  813loPI   C3A11993  12.644   9.927   7.387 -0.1926 -0.0007  0.0996
  813loPI   C4A11994  12.820   9.623   7.683  0.0127  0.0713 -0.0824
  813loPI   C5A11995  12.967   9.223   7.613  0.2886  0.1967 -0.1869
  813loPI   C6A11996  13.127   8.808   7.778 -0.0390  0.2116 -0.0707
  813loPI   C1B11997  11.802  10.166   6.773 -0.1036  0.2235 -0.0607
  813loPI   C2B11998  11.865  10.217   7.187 -0.2570 -0.2658  0.2777
  813loPI   C3B11999  12.068   9.834   7.337 -0.3615  0.3211 -0.0264
  813loPI   C4B12000  12.280   9.453   7.003  0.0139  0.0639  0.0415
  814loPI    C112001  12.968  17.916   5.017  0.0426  0.2287  0.1225
  814loPI    C212002  12.679  17.902   5.293  0.0677  0.2392  0.1494
  814loPI    C312003  12.590  17.847   4.906  0.0875 -0.1554  0.1969
  814loPI   PO412004  13.092  18.102   5.243 -0.1371  0.0106  0.0502
  814loPI   GL112005  13.008  18.019   5.661  0.0544 -0.0907  0.1668
  814loPI   GL212006  12.911  17.761   5.721 -0.1838  0.0816 -0.0176
  814loPI   C1A12007  13.178  18.122   6.023  0.0072 -0.0182 -0.0292
  814loPI   C2A12008  13.286  18.210   6.437 -0.0393  0.0206 -0.4021
  814loPI   C3A12009  13.444  18.271   6.823 -0.0536  0.1063  0.0315
  814loPI   C4A12010  13.366  18.261   7.270 -0.0815  0.2887  0.1595
  814loPI   C5A12011  13.298  18.001   7.677 -0.0121 -0.0088 -0.0745
  814loPI   C6A12012  13.084  17.955   8.041  0.2599  0.2137  0.1298
  814loPI   C1B12013  12.846  17.633   6.280  0.0047 -0.1450 -0.1478
  814loPI   C2B12014  12.696  17.839   6.676 -0.1037  0.1045  0.0340
  814loPI   C3B12015  12.563  17.708   7.068 -0.0627  0.0002  0.3626
  814loPI   C4B12016  12.766  17.386   7.237  0.0016  0.1590  0.0020
  815loPI    C112017   6.989   9.753   5.176  0.0391 -0.0454  0.1533
  815loPI    C212018   6.615   9.614   5.187 -0.1127  0.3359 -0.0021
  815loPI    C312019   6.837   9.563   4.858 -0.0386  0.1432  0.0762
  815loPI   PO412020   6.934   9.984   5.317  0.2028 -0.1423  0.2669
  815loPI   GL112021   6.899  10.205   5.773  0.1745  0.0536 -0.0366
  815loPI   GL212022   6.745  10.074   6.036  0.1237 -0.0749  0.2930
  815loPI   C1A12023   6.743  10.594   6.064  0.1261  0.0686  0.0565
  815loPI   C2A12024   6.949  10.953   6.223  0.0433  0.1505 -0.4393
  815loPI   C3A12025   6.938  11.144   6.592  0.2425 -0.1066 -0.2869
  815loPI   C4A12026   7.126  11.256   6.880  0.0563 -0.0992 -0.1996
  815loPI   C5A12027   7.039  11.123   7.303 -0.0093  0.1751 -0.0479
  815loPI   C6A12028   6.709  11.234   7.550  0.1050 -0.0998 -0.0057
  815loPI   C1B12029   6.633  10.184   6.390 -0.2034 -0.2578  0.0720
  815loPI   C2B12030   6.484  10.187   6.888  0.0964 -0.0395 -0.0385
  815loPI   C3B12031   6.519  10.312   7.303 -0.1413 -0.0199  0.1407
  815loPI   C4B12032   6.437  10.414   7.708 -0.1389  0.0414  0.1520
  816loPI    C112033   8.419  17.157   5.294 -0.0758 -0.0855 -0.2780
  816loPI    C212034   8.273  17.423   5.033 -0.0317  0.0461 -0.1696
  816loPI    C312035   8.098  17.065   5.074 -0.1436  0.0908 -0.2540
  816loPI   PO412036   8.608  17.293   5.393 -0.1136  0.0761  0.0798
  816loPI   GL112037   8.719  17.391   5.697 -0.1339  0.0690 -0.3518
  816loPI   GL212038   8.625  17.698   5.893  0.2406  0.2920  0.0170
  816loPI   C1A12039   8.606  17.230   6.052 -0.0704  0.0938  0.0672
  816loPI   C2A12040   8.706  17.131   6.412  0.0464 -0.0034 -0.3290
  816loPI   C3A12041   8.639  17.122   6.856 -0.1648 -0.1892  0.0680
  816loPI   C4A12042   8.777  17.094   7.189 -0.1483  0.2375 -0.0400
  816loPI   C5A12043   8.853  16.948   7.581 -0.0036  0.2895 -0.0098
  816loPI   C6A12044   9.058  16.628   7.767  0.4344  0.0981 -0.3312
  816loPI   C1B12045   8.845  17.918   6.310  0.0811  0.0361  0.0081
  816loPI   C2B12046   9.139  17.963   6.591  0.0802 -0.2184  0.2190
  816loPI   C3B12047   9.045  18.113   7.037  0.0822 -0.0080  0.0835
  816loPI   C4B12048   8.867  18.505   7.260  0.2409 -0.0503 -0.0691
  817loPI    C112049  15.295   9.800   5.310 -0.2458  0.3101 -0.1554
  817loPI    C212050  15.523   9.934   5.010 -0.0050 -0.2384 -0.2298
  817loPI    C312051  15.156  10.084   5.065  0.1921  0.3289 -0.3916
  817loPI   PO412052  15.469   9.766   5.536  0.0097  0.0990  0.1578
  817loPI   GL112053  15.652   9.980   5.884  0.4573 -0.0718  0.0232
  817loPI   GL212054  15.899   9.841   5.795  0.0583 -0.3027 -0.1567
  817loPI   C1A12055  15.765  10.236   6.214  0.0934 -0.2230 -0.0475
  817loPI   C2A12056  15.953  10.167   6.598 -0.0203  0.2284 -0.0010
  817loPI   C3A12057  16.194  10.020   7.046  0.0292 -0.0087  0.1842
  817loPI   C4A12058  16.299   9.831   7.468  0.2165  0.0714  0.2453
  817loPI   C5A12059  16.079   9.574   7.720  0.2939  0.2015 -0.4821
  817loPI   C6A12060  16.132   9.076   7.846 -0.0261  0.1026 -0.0208
  817loPI   C1B12061  16.103   9.809   6.174 -0.2455 -0.0942 -0.2089
  817loPI   C2B12062  16.217   9.711   6.655  0.1300  0.5128 -0.0247
  817loPI   C3B12063  16.206   9.406   6.873 -0.1610  0.1939 -0.2607
  817loPI   C4B12064  16.268   9.343   7.269 -0.0177 -0.1824 -0.0230
  818loPI    C112065   5.890   6.049   5.317 -0.2581  0.0431 -0.0991
  818loPI    C212066   5.755   5.705   5.470  0.0095 -0.0311 -0.0263
  818loPI    C312067   5.749   5.763   5.074 -0.3821  0.0317 -0.0145
  818loPI   PO412068   6.139   6.075   5.432 -0.0475 -0.2594  0.3583
  818loPI   GL112069   6.088   6.145   5.820 -0.2649 -0.0850  0.0346
  818loPI   GL212070   5.719   6.029   5.893 -0.1878  0.1141  0.2143
  818loPI   C1A12071   6.099   6.233   6.328 -0.0781  0.1853 -0.1352
  818loPI   C2A12072   6.132   6.314   6.727 -0.1510  0.0060 -0.2341
  818loPI   C3A12073   6.268   6.434   7.093  0.2031 -0.2710  0.2267
  818loPI   C4A12074   6.322   6.577   7.475 -0.0680 -0.3721 -0.0403
  818loPI   C5A12075   6.382   6.768   7.979 -0.0492  0.1724 -0.1256
  818loPI   C6A12076   6.653   6.700   8.211 -0.0763 -0.5027 -0.1984
  818loPI   C1B12077   5.765   5.859   6.231 -0.0243  0.2344  0.0739
  818loPI   C2B12078   5.831   5.814   6.634  0.3207  0.0065 -0.4407
  818loPI   C3B12079   6.120   5.951   7.063 -0.2958  0.4402 -0.1505
  818loPI   C4B12080   6.043   6.041   7.498 -0.2549  0.0832  0.2732
  819loPI    C112081  12.247   8.361   5.650  0.0472 -0.0086  0.1756
  819loPI    C212082  12.388   8.314   5.279 -0.1126 -0.0730  0.1218
  819loPI    C312083  12.368   8.000   5.526  0.2537  0.0229  0.2811
  819loPI   PO412084  12.389   8.637   5.701 -0.1209 -0.0610  0.0333
  819loPI   GL112085  12.426   8.913   6.034 -0.0972 -0.0052  0.1287
  819loPI   GL212086  12.452   8.627   6.279  0.0127 -0.1699  0.0215
  819loPI   C1A12087  12.896   8.834   6.314  0.1677 -0.1573 -0.0222
  819loPI   C2A12088  13.050   8.985   6.731  0.4227  0.2483 -0.3553
  819loPI   C3A12089  13.189   9.250   7.079  0.2699 -0.1905 -0.0932
  819loPI   C4A12090  13.429   9.249   7.423  0.1004  0.1477  0.2469
  819loPI   C5A12091  13.589   9.189   7.772 -0.0395  0.1477  0.0220
  819loPI   C6A12092  13.897   9.368   8.013  0.1232  0.1716  0.3076
  819loPI   C1B12093  12.650   8.247   6.529  0.1368 -0.2775  0.1957
  819loPI   C2B12094  12.730   7.989   6.900  0.0402 -0.1148 -0.0505
  819loPI   C3B12095  12.750   7.881   7.275  0.0783  0.1540  0.1703
  819loPI   C4B12096  12.709   7.559   7.562  0.1159  0.3297 -0.0992
  820loPI    C112097   8.744  16.717   5.253 -0.1176  0.1641 -0.0383
  820loPI    C212098   8.358  16.619   5.223 -0.0071 -0.3495  0.1177
  820loPI    C312099   8.616  16.505   4.939  0.0118  0.1208 -0.0625
  820loPI   PO412100   8.780  16.677   5.458 -0.1215 -0.2745  0.0078
  820loPI   GL112101   8.598  16.764   5.791  0.0977  0.1742 -0.0482
  820loPI   GL212102   8.294  16.817   5.639  0.0470  0.2323 -0.0535
  820loPI   C1A12103   8.585  16.529   6.110 -0.0642  0.3593 -0.1751
  820loPI   C2A12104   8.673  16.581   6.557 -0.0274  0.1954  0.0873
  820loPI   C3A12105   8.658  16.644   6.963  0.2197 -0.2053  0.1108
  820loPI   C4A12106   8.576  16.488   7.455  0.0541  0.2997  0.2268
  820loPI   C5A12107   8.304  16.176   7.824 -0.1056 -0.2839 -0.1329
  820loPI   C6A12108   8.070  15.690   7.811  0.3021 -0.2924  0.2175
  820loPI   C1B12109   8.175  16.843   6.037 -0.1839 -0.0528  0.1525
  820loPI   C2B12110   8.290  16.883   6.426 -0.1635 -0.4197 -0.1858
  820loPI   C3B12111   8.231  16.886   6.882  0.3198  0.0249 -0.0336
  820loPI   C4B12112   8.261  16.917   7.328 -0.0630 -0.1454  0.2311
  821loPI    C112113   5.119  13.060   5.041 -0.1482 -0.1925 -0.0882
  821loPI    C212114   5.246  13.162   4.676 -0.0487  0.2086  0.0540
  821loPI    C312115   4.855  13.116   4.746 -0.0746  0.2184 -0.0814
  821loPI   PO412116   5.301  13.160   5.188  0.2534  0.0939 -0.0403
  821loPI   GL112117   5.401  13.014   5.621 -0.0034  0.3550  0.1275
  821loPI   GL212118   5.315  12.794   5.715  0.2257  0.1683  0.1762
  821loPI   C1A12119   5.543  13.152   5.996  0.0499  0.4455 -0.0245
  821loPI   C2A12120   5.618  13.182   6.436 -0.1036  0.1206 -0.1457
  821loPI   C3A12121   5.586  13.075   6.812  0.0255 -0.3118 -0.0796
  821loPI   C4A12122   5.605  13.280   7.197 -0.0754  0.4766 -0.1178
  821loPI   C5A12123   5.551  13.370   7.614  0.1452  0.1069  0.3049
  821loPI   C6A12124   5.661  13.131   8.012  0.0664 -0.1060 -0.1160
  821loPI   C1B12125   5.218  12.837   6.212  0.1646  0.2951 -0.4463
  821loPI   C2B12126   5.223  12.730   6.641  0.1252 -0.0032  0.3646
  821loPI   C3B12127   5.089  13.007   6.934 -0.1228  0.0084  0.2716
  821loPI   C4B12128   5.108  13.117   7.394  0.0446 -0.0063  0.0425
  822loPI    C112129   0.711   4.894   5.113  0.0287 -0.0222  0.1708
  822loPI    C212130   0.556   5.250   5.210  0.2305  0.0916  0.0844
  822loPI    C312131   0.731   5.199   4.854 -0.1576 -0.2115 -0.0705
  822loPI   PO412132   0.892   4.920   5.458  0.0292 -0.1008  0.0424
  822loPI   GL112133   0.936   4.707   5.800 -0.0949 -0.0049 -0.0170
  822loPI   GL212134   0.867   4.985   6.002 -0.0042  0.0075  0.3909
  822loPI   C1A12135   1.046   4.684   6.294  0.2840  0.1492  0.4176
  822loPI   C2A12136   0.941   4.751   6.694 -0.2180  0.0302 -0.2238
  822loPI   C3A12137   0.857   5.072   6.850  0.4099  0.0106 -0.0739
  822loPI   C4A12138   0.783   5.212   7.199  0.2712  0.1918  0.1103
  822loPI   C5A12139   0.560   5.371   7.453 -0.1336 -0.0727  0.0330
  822loPI   C6A12140   0.527   5.244   7.949 -0.0307  0.1396  0.2521
  822loPI   C1B12141   0.811   5.141   6.340  0.2485 -0.2026 -0.0624
  822loPI   C2B12142   0.673   5.451   6.479 -0.3243 -0.2059 -0.1131
  822loPI   C3B12143   0.560   5.517   6.744 -0.0814  0.0197 -0.0891
  822loPI   C4B12144   0.726   5.706   7.092 -0.0545 -0.0493  0.4146
  823loPI    C112145  11.157  15.284   5.289 -0.1665  0.0755 -0.1048
  823loPI    C212146  11.513  15.147   5.170 -0.0806  0.1252  0.0917
  823loPI    C312147  11.232  15.234   4.900  0.0291  0.0127 -0.0600
  823loPI   PO412148  11.209  15.379   5.553  0.0023  0.0078 -0.0252
  823loPI   GL112149  11.233  15.689   5.801 -0.1044  0.1823 -0.3301
  823loPI   GL212150  11.591  15.793   5.941  0.0767  0.0272 -0.0108
  823loPI   C1A12151  10.981  15.729   6.229  0.0183  0.3560 -0.0105
  823loPI   C2A12152  11.068  15.631   6.613 -0.1097 -0.0283  0.2496
  823loPI   C3A12153  11.112  15.508   7.089  0.1896  0.0164  0.1093
  823loPI   C4A12154  11.354  15.251   7.349  0.0000 -0.2715  0.2481
  823loPI   C5A12155  11.693  15.051   7.528  0.1926 -0.2548 -0.2321
  823loPI   C6A12156  12.028  15.188   7.816 -0.1068 -0.0546  0.2020
  823loPI   C1B12157  11.458  15.746   6.313  0.1635  0.4393  0.2700
  823loPI   C2B12158  11.513  15.747   6.762 -0.2285 -0.0394 -0.0131
  823loPI   C3B12159  11.677  15.821   7.100  0.0795 -0.0530 -0.1765
  823loPI   C4B12160  11.623  16.268   7.231 -0.2167  0.0780 -0.2597
  824loPI    C112161   5.543   1.614   5.216 -0.1631 -0.0595 -0.0004
  824loPI    C212162   5.352   1.332   5.005 -0.0001 -0.0827 -0.1189
  824loPI    C312163   5.245   1.716   4.969 -0.0714 -0.1035 -0.1303
  824loPI   PO412164   5.524   1.572   5.511  0.0065  0.1903  0.0502
  824loPI   GL112165   5.438   1.393   5.840  0.3947 -0.0005  0.0692
  824loPI   GL212166   5.322   1.205   5.993  0.2273  0.1883  0.0306
  824loPI   C1A12167   5.838   1.359   6.140 -0.2419  0.3905 -0.0880
  824loPI   C2A12168   5.976   1.469   6.518 -0.1039  0.1703  0.0299
  824loPI   C3A12169   6.073   1.361   6.845  0.0752  0.3517 -0.1520
  824loPI   C4A12170   5.864   1.409   7.294  0.0053 -0.0662  0.2985
  824loPI   C5A12171   5.564   1.580   7.656  0.0311 -0.2612  0.0370
  824loPI   C6A12172   5.407   1.720   8.127 -0.1631  0.1043  0.3812
  824loPI   C1B12173   5.188   0.995   6.380  0.0419  0.2763 -0.0717
  824loPI   C2B12174   5.230   0.909   6.858  0.2566  0.0256 -0.0168
  824loPI   C3B12175   5.229   0.738   7.358  0.2520  0.1233  0.1936
  824loPI   C4B12176   5.269   0.609   7.815  0.2363 -0.0313  0.1836
  825loPI    C112177  15.296  12.731   5.260  0.0824 -0.1333  0.0042
  825loPI    C212178  15.360  12.698   4.867 -0.1331  0.1589 -0.0590
  825loPI    C312179  15.133  12.428   5.056 -0.1067  0.0705 -0.1524
  825loPI   PO412180  15.522  12.794   5.395 -0.0145 -0.0679  0.0700
  825loPI   GL112181  15.679  12.718   5.807 -0.0333  0.0222  0.0165
  825loPI   GL212182  15.321  12.921   5.834  0.0687  0.1394 -0.0548
  825loPI   C1A12183  15.575  12.593   6.215  0.0584 -0.1179 -0.1934
  825loPI   C2A12184  15.424  12.673   6.677 -0.1692 -0.0660  0.1491
  825loPI   C3A12185  15.436  12.623   7.042 -0.0255  0.0556 -0.1706
  825loPI   C4A12186  15.315  12.379   7.356 -0.2511 -0.1502  0.1098
  825loPI   C5A12187  15.249  12.454   7.680  0.0296  0.1381  0.1663
  825loPI   C6A12188  15.061  12.856   7.966 -0.3650  0.3165 -0.2322
  825loPI   C1B12189  15.210  13.075   6.250 -0.0569 -0.0163  0.1160
  825loPI   C2B12190  15.195  13.175   6.676  0.3240 -0.0928 -0.1054
  825loPI   C3B12191  15.292  13.124   7.051 -0.0957 -0.0123 -0.0935
  825loPI   C4B12192  15.220  12.928   7.466  0.2697 -0.3500  0.1614
  826loPI    C112193   8.051   8.583   5.616  0.2260 -0.0908  0.0938
  826loPI    C212194   8.418   8.731   5.560  0.2698 -0.3241 -0.2636
  826loPI    C312195   8.333   8.356   5.446  0.0154 -0.3950  0.1407
  826loPI   PO412196   7.993   8.575   5.929 -0.2265  0.1193  0.1376
  826loPI   GL112197   7.824   8.754   6.273 -0.0391  0.0454 -0.2061
  826loPI   GL212198   7.564   8.560   6.159  0.0104  0.2158 -0.1153
  826loPI   C1A12199   7.696   8.809   6.736  0.1706 -0.0501  0.2143
  826loPI   C2A12200   7.479   8.808   7.062 -0.0611  0.1604 -0.1668
  826loPI   C3A12201   7.499   9.157   7.266  0.2793  0.1240  0.0932
  826loPI   C4A12202   7.781   9.347   7.482  0.0019 -0.2744  0.1034
  826loPI   C5A12203   8.046   9.386   7.755  0.1327  0.0792 -0.1454
  826loPI   C6A12204   8.172   9.561   8.045 -0.1756 -0.2833  0.0236
  826loPI   C1B12205   7.344   8.452   6.550 -0.1809  0.1551 -0.0443
  826loPI   C2B12206   7.444   8.341   6.948  0.1153  0.1019  0.0618
  826loPI   C3B12207   7.502   8.444   7.377 -0.4048  0.0762  0.3702
  826loPI   C4B12208   7.874   8.355   7.608  0.0500 -0.0067  0.1548
  827loPI    C112209   3.932  17.455   5.050  0.0027 -0.0702  0.0053
  827loPI    C212210   4.047  17.353   4.680 -0.0022 -0.3364  0.0748
  827loPI    C312211   3.658  17.360   4.774 -0.0210  0.0497 -0.0130
  827loPI   PO412212   4.096  17.362   5.214  0.2028 -0.3333 -0.0677
  827loPI   GL112213   4.201  17.415   5.720 -0.1328 -0.1321  0.3716
  827loPI   GL212214   4.225  17.708   5.879 -0.0176  0.2399 -0.1457
  827loPI   C1A12215   4.277  17.251   6.208 -0.2741  0.1306  0.1793
  827loPI   C2A12216   4.180  17.129   6.645 -0.0893 -0.1109  0.0553
  827loPI   C3A12217   4.441  17.125   6.979  0.0917 -0.0555  0.0748
  827loPI   C4A12218   4.504  17.058   7.411 -0.0455 -0.1465 -0.0211
  827loPI   C5A12219   4.532  17.017   7.803 -0.1547  0.0229 -0.1085
  827loPI   C6A12220   4.528  17.067   8.231  0.0867 -0.1258  0.0071
  827loPI   C1B12221   4.400  17.697   6.361 -0.2601  0.1202  0.1749
  827loPI   C2B12222   4.506  17.563   6.805 -0.0214 -0.0123  0.0958
  827loPI   C3B12223   4.602  17.544   7.291 -0.3499  0.1881 -0.0118
  827loPI   C4B12224   4.487  17.889   7.532  0.2048 -0.2912 -0.0169
  828loPI    C112225  16.891  14.964   5.414  0.0993 -0.0412  0.2615
  828loPI    C212226  17.149  14.836   5.137 -0.2127  0.1112 -0.1090
  828loPI    C312227  16.756  14.791   5.079 -0.2842  0.1807  0.2960
  828loPI   PO412228  16.945  15.152   5.519  0.0965 -0.0038  0.0348
  828loPI   GL112229  16.833  15.172   5.972  0.3904  0.4035 -0.1930
  828loPI   GL212230  17.079  14.936   5.967  0.0192  0.4130 -0.0172
  828loPI   C1A12231  16.625  15.261   6.296  0.0832  0.1901 -0.0787
  828loPI   C2A12232  16.495  15.269   6.732 -0.0438 -0.2995  0.0976
  828loPI   C3A12233  16.751  15.198   7.105  0.2948  0.1334  0.0704
  828loPI   C4A12234  16.689  14.977   7.504 -0.0348 -0.0418  0.3324
  828loPI   C5A12235  16.364  14.711   7.716  0.2518  0.1390  0.1509
  828loPI   C6A12236  15.945  14.514   7.771 -0.0524  0.0118  0.2716
  828loPI   C1B12237  17.068  14.913   6.374 -0.1441 -0.2746 -0.0031
  828loPI   C2B12238  16.976  14.649   6.698  0.1928  0.2365  0.1319
  828loPI   C3B12239  16.918  14.689   7.080  0.2122 -0.0092 -0.0199
  828loPI   C4B12240  16.873  14.469   7.418  0.0199  0.1750 -0.2245
  829loPI    C112241  13.379   9.688   4.915  0.0744  0.0135  0.1722
  829loPI    C212242  13.609   9.530   4.628 -0.0138  0.0098  0.1032
  829loPI    C312243  13.255   9.691   4.535  0.0800  0.2590  0.1709
  829loPI   PO412244  13.630   9.717   5.112  0.2120 -0.2259 -0.1817
  829loPI   GL112245  13.728   9.544   5.537  0.2381 -0.1524  0.4320
  829loPI   GL212246  13.804   9.197   5.520  0.0463 -0.2637 -0.1015
  829loPI   C1A12247  13.631   9.746   5.849 -0.0732  0.2924 -0.1018
  829loPI   C2A12248  13.840  10.032   6.054  0.2794  0.2523 -0.0411
  829loPI   C3A12249  14.021  10.159   6.400  0.1179  0.2154  0.0166
  829loPI   C4A12250  14.036  10.094   6.857  0.1961 -0.2506 -0.0224
  829loPI   C5A12251  14.208   9.880   7.129  0.2245 -0.3399  0.5774
  829loPI   C6A12252  14.356   9.709   7.487 -0.1619  0.0785 -0.4281
  829loPI   C1B12253  13.803   9.313   5.995  0.2371  0.3342 -0.1146
  829loPI   C2B12254  14.019   9.514   6.358  0.2810 -0.0901 -0.0827
  829loPI   C3B12255  14.048   9.569   6.805  0.0545 -0.0144 -0.2213
  829loPI   C4B12256  14.303   9.406   7.100  0.1042  0.0624  0.1260
  830loPI    C112257  10.168  15.486   5.324 -0.1742  0.0473  0.0319
  830loPI    C212258  10.262  15.196   5.066  0.0718  0.0147  0.1556
  830loPI    C312259   9.925  15.405   5.017 -0.0492 -0.2127 -0.0008
  830loPI   PO412260  10.311  15.324   5.604 -0.1021  0.1227 -0.0018
  830loPI   GL112261  10.387  15.113   5.926  0.0933  0.1749  0.2723
  830loPI   GL212262  10.086  15.074   5.927  0.1740  0.1659 -0.1328
  830loPI   C1A12263  10.336  15.153   6.351 -0.1770  0.2438  0.2691
  830loPI   C2A12264  10.355  15.143   6.842 -0.1874  0.0656 -0.0853
  830loPI   C3A12265  10.255  15.064   7.206  0.0603 -0.1727 -0.0876
  830loPI   C4A12266  10.283  15.057   7.580 -0.0466  0.2027  0.3007
  830loPI   C5A12267  10.577  14.950   7.894  0.1402  0.0987  0.0060
  830loPI   C6A12268  10.961  14.744   8.144 -0.0079 -0.2621  0.0739
  830loPI   C1B12269   9.823  15.131   6.317 -0.1028 -0.0195  0.1197
  830loPI   C2B12270   9.791  15.074   6.716  0.2277  0.0421 -0.0647
  830loPI   C3B12271   9.688  15.129   7.102 -0.1831 -0.1276  0.1383
  830loPI   C4B12272   9.278  15.196   7.317  0.1346 -0.1891  0.2204
  831loPI    C112273   5.918  14.356   5.054 -0.2645  0.0082 -0.1078
  831loPI    C212274   5.991  14.213   4.688  0.0483 -0.1362  0.0082
  831loPI    C312275   6.103  14.585   4.783 -0.1711 -0.0438 -0.0879
  831loPI   PO412276   6.053  14.171   5.148 -0.1054 -0.0782 -0.2767
  831loPI   GL112277   6.065  14.212   5.607  0.2494  0.0935  0.1375
  831loPI   GL212278   6.318  14.460   5.622  0.0168  0.1448 -0.4597
  831loPI   C1A12279   6.156  14.192   5.968  0.1204  0.1835  0.0849
  831loPI   C2A12280   6.206  14.255   6.400 -0.0416  0.3054 -0.1004
  831loPI   C3A12281   6.271  14.236   6.772  0.3073  0.0587 -0.0244
  831loPI   C4A12282   6.385  14.335   7.124 -0.0177 -0.1512 -0.0635
  831loPI   C5A12283   6.596  14.247   7.382 -0.0483  0.0925  0.0499
  831loPI   C6A12284   6.659  14.066   7.867 -0.1887 -0.0554  0.0221
  831loPI   C1B12285   6.332  14.642   6.067 -0.3095  0.1802 -0.0011
  831loPI   C2B12286   6.379  14.733   6.481 -0.0075  0.0369 -0.0931
  831loPI   C3B12287   6.518  14.700   6.837  0.0790  0.2187  0.0757
  831loPI   C4B12288   6.650  14.704   7.274  0.0130  0.3815  0.1812
  832loPI    C112289   1.072   0.950   5.327 -0.2456 -0.0223 -0.2033
  832loPI    C212290   1.154   1.333   5.245  0.0173 -0.0361 -0.0173
  832loPI    C312291   1.183   1.056   4.957  0.0579  0.0476 -0.0945
  832loPI   PO412292   0.924   0.967   5.491 -0.3676 -0.4179 -0.1124
  832loPI   GL112293   0.821   1.033   5.825  0.3827 -0.1022 -0.3589
  832loPI   GL212294   1.014   0.758   5.949  0.0253  0.0973 -0.2215
  832loPI   C1A12295   0.795   1.403   6.164  0.3936 -0.1676  0.1573
  832loPI   C2A12296   0.818   1.467   6.600  0.1573 -0.1913  0.4284
  832loPI   C3A12297   0.969   1.468   7.039 -0.0566 -0.1205 -0.1198
  832loPI   C4A12298   0.961   1.292   7.493  0.1618 -0.1180  0.0813
  832loPI   C5A12299   1.152   1.321   7.951 -0.0061 -0.1087 -0.1786
  832loPI   C6A12300   1.031   1.277   8.458  0.2107  0.0086 -0.0836
  832loPI   C1B12301   0.910   0.968   6.443  0.1467 -0.1926  0.1377
  832loPI   C2B12302   0.955   1.080   6.791 -0.2240  0.0253  0.1569
  832loPI   C3B12303   0.999   0.800   7.138 -0.3353  0.0965 -0.0003
  832loPI   C4B12304   0.970   0.717   7.553 -0.0707  0.3116 -0.1184
  833loPI    C112305  15.459   3.275   5.005 -0.1550 -0.2841  0.0238
  833loPI    C212306  15.262   3.608   4.906 -0.1483 -0.2604  0.0901
  833loPI    C312307  15.259   3.293   4.659 -0.0903 -0.1842 -0.0086
  833loPI   PO412308  15.426   3.196   5.343 -0.1386 -0.2914  0.0032
  833loPI   GL112309  15.384   3.355   5.720  0.0241  0.0991 -0.0056
  833loPI   GL212310  15.532   3.210   5.957 -0.0108  0.2107 -0.0381
  833loPI   C1A12311  15.136   3.402   6.172  0.2262  0.2483 -0.3161
  833loPI   C2A12312  14.998   3.226   6.551  0.1313  0.3207  0.1192
  833loPI   C3A12313  14.989   3.222   7.041  0.2590 -0.0935 -0.1145
  833loPI   C4A12314  15.001   2.990   7.356  0.0609 -0.1397  0.0074
  833loPI   C5A12315  14.697   2.854   7.687  0.1275 -0.1544  0.2333
  833loPI   C6A12316  14.349   2.704   7.909  0.1560 -0.2129  0.1483
  833loPI   C1B12317  15.446   3.012   6.317  0.3227 -0.0343  0.3078
  833loPI   C2B12318  15.470   3.031   6.750 -0.0971  0.0379  0.1883
  833loPI   C3B12319  15.468   3.183   7.204 -0.2294 -0.1178  0.0183
  833loPI   C4B12320  15.475   3.136   7.664 -0.1662 -0.1472 -0.2856
  834loPI    C112321   9.478   9.716   5.684 -0.1904 -0.1075 -0.0061
  834loPI    C212322   9.167   9.867   5.483 -0.1697 -0.0635 -0.0053
  834loPI    C312323   9.408   9.602   5.307 -0.1559 -0.0308 -0.0361
  834loPI   PO412324   9.431   9.558   5.924 -0.1918  0.0420  0.2232
  834loPI   GL112325   9.400   9.683   6.301 -0.0406 -0.0886  0.1900
  834loPI   GL212326   9.614   9.565   6.488 -0.2853 -0.1893  0.2060
  834loPI   C1A12327   9.075   9.797   6.447 -0.0193  0.2217  0.1283
  834loPI   C2A12328   8.928   9.789   6.857 -0.1184 -0.1352  0.0743
  834loPI   C3A12329   8.867   9.742   7.246 -0.0566  0.1223 -0.0019
  834loPI   C4A12330   8.678   9.510   7.535  0.0842 -0.2250 -0.0384
  834loPI   C5A12331   8.734   9.374   7.903  0.2053 -0.2049  0.0513
  834loPI   C6A12332   8.815   9.307   8.370  0.3883 -0.0885  0.0812
  834loPI   C1B12333   9.403   9.688   6.830  0.0012 -0.0676 -0.1201
  834loPI   C2B12334   9.385   9.780   7.183 -0.0039  0.2935  0.1221
  834loPI   C3B12335   9.550   9.789   7.712 -0.0136 -0.1106  0.1818
  834loPI   C4B12336   9.556   9.923   8.171  0.1050 -0.0209  0.1195
  835loPI    C112337   0.962   5.453   5.428  0.0336 -0.0220  0.0067
  835loPI    C212338   1.275   5.255   5.580 -0.0300 -0.0533  0.0973
  835loPI    C312339   1.185   5.218   5.192  0.0680 -0.0580  0.0747
  835loPI   PO412340   0.835   5.475   5.577 -0.2252  0.0254 -0.0649
  835loPI   GL112341   0.816   5.473   5.933 -0.1848 -0.2485 -0.0407
  835loPI   GL212342   0.504   5.587   5.940  0.0074 -0.1554 -0.0503
  835loPI   C1A12343   1.110   5.539   6.290  0.2253  0.1554  0.2181
  835loPI   C2A12344   1.119   5.569   6.796  0.1064  0.1261  0.2112
  835loPI   C3A12345   1.253   5.491   7.239 -0.1448 -0.2218 -0.1014
  835loPI   C4A12346   1.608   5.328   7.406  0.0501  0.1520 -0.0764
  835loPI   C5A12347   1.814   5.391   7.789 -0.0020 -0.2735  0.0155
  835loPI   C6A12348   1.802   5.353   8.288 -0.2281  0.0930  0.2789
  835loPI   C1B12349   0.444   5.804   6.232 -0.1355 -0.0792  0.0229
  835loPI   C2B12350   0.449   5.992   6.643  0.0094  0.2567 -0.0132
  835loPI   C3B12351   0.494   6.171   7.056 -0.0565  0.4034  0.2838
  835loPI   C4B12352   0.481   6.272   7.517  0.3862  0.5045  0.1141
  836loPI    C112353   7.989   3.758   5.275  0.1905 -0.1837 -0.0056
  836loPI    C212354   7.772   4.053   5.114  0.2187 -0.0319  0.2287
  836loPI    C312355   7.809   3.704   4.922  0.0186  0.0457  0.0442
  836loPI   PO412356   7.973   3.795   5.573  0.1189 -0.1385  0.0412
  836loPI   GL112357   7.688   3.807   5.880 -0.0991 -0.0425 -0.3019
  836loPI   GL212358   7.550   3.446   5.901  0.0956  0.2177  0.1704
  836loPI   C1A12359   7.585   3.818   6.281 -0.3650  0.1352 -0.0664
  836loPI   C2A12360   7.383   3.617   6.612 -0.0621 -0.1323  0.2591
  836loPI   C3A12361   7.315   3.534   6.949  0.0422 -0.1467 -0.0544
  836loPI   C4A12362   7.239   3.403   7.338 -0.0179 -0.1807  0.1125
  836loPI   C5A12363   6.875   3.425   7.644  0.1331 -0.1056  0.0489
  836loPI   C6A12364   6.669   3.674   7.951  0.0260  0.0539  0.1590
  836loPI   C1B12365   7.195   3.558   6.089  0.2173  0.0270 -0.0792
  836loPI   C2B12366   6.902   3.631   6.383 -0.1346 -0.0692  0.0556
  836loPI   C3B12367   6.872   3.503   6.772  0.0487  0.0327  0.6594
  836loPI   C4B12368   6.700   3.570   7.174 -0.1380  0.3608 -0.0673
  837loPI    C112369   7.638   5.862   5.485  0.1752 -0.0679  0.0927
  837loPI    C212370   7.993   6.047   5.492  0.1482 -0.0181  0.1645
  837loPI    C312371   7.917   5.770   5.214  0.1678  0.1211  0.0193
  837loPI   PO412372   7.561   5.855   5.757  0.0186  0.1526  0.0808
  837loPI   GL112373   7.571   5.594   6.038  0.0462 -0.0267  0.0297
  837loPI   GL212374   7.284   5.336   5.908 -0.3612 -0.1159  0.1334
  837loPI   C1A12375   7.654   5.793   6.410  0.0404 -0.2755 -0.0812
  837loPI   C2A12376   7.576   5.858   6.788  0.0980 -0.1869 -0.1433
  837loPI   C3A12377   7.564   6.032   7.150  0.0403  0.0469 -0.0719
  837loPI   C4A12378   7.479   6.424   7.392 -0.0847 -0.0370 -0.1762
  837loPI   C5A12379   7.621   6.565   7.796  0.2178 -0.2546 -0.3488
  837loPI   C6A12380   7.609   6.542   8.286 -0.0359 -0.0252 -0.1011
  837loPI   C1B12381   7.249   5.219   6.381  0.3002 -0.0723  0.1400
  837loPI   C2B12382   7.228   5.237   6.836 -0.1703  0.1563  0.2134
  837loPI   C3B12383   6.910   5.022   7.034 -0.0498 -0.1897 -0.3070
  837loPI   C4B12384   6.572   5.032   6.884  0.0442  0.0303 -0.0756
  838loPI    C112385  15.534   9.037   5.542 -0.0205 -0.2082 -0.2402
  838loPI    C212386  15.541   8.997   5.144  0.2983 -0.1714 -0.2406
  838loPI    C312387  15.312   9.278   5.313  0.2789 -0.0854 -0.4076
  838loPI   PO412388  15.740   8.804   5.561  0.3863 -0.3161 -0.1849
  838loPI   GL112389  15.849   8.587   5.915  0.2992 -0.2145 -0.1038
  838loPI   GL212390  15.605   8.797   6.092 -0.0330 -0.0102  0.0920
  838loPI   C1A12391  15.933   8.414   6.343 -0.0598  0.1156  0.1839
  838loPI   C2A12392  16.003   8.479   6.809  0.0979  0.1301 -0.2386
  838loPI   C3A12393  15.832   8.603   7.182 -0.0086 -0.0548 -0.0724
  838loPI   C4A12394  16.046   8.804   7.459 -0.3796  0.2857 -0.2121
  838loPI   C5A12395  16.289   8.579   7.789  0.0383 -0.1253  0.1699
  838loPI   C6A12396  16.521   8.363   8.119  0.1584  0.0926 -0.4126
  838loPI   C1B12397  15.795   9.000   6.414 -0.0538  0.0978  0.2217
  838loPI   C2B12398  15.688   9.197   6.845 -0.3536 -0.2266 -0.3726
  838loPI   C3B12399  15.760   9.226   7.259 -0.0493  0.0514 -0.1110
  838loPI   C4B12400  15.691   9.303   7.618 -0.0658 -0.1058 -0.2436
  839loPI    C112401  16.823   6.117   5.656  0.2607  0.0921 -0.1394
  839loPI    C212402  16.853   5.908   5.316 -0.1868  0.0071 -0.1331
  839loPI    C312403  16.733   6.289   5.306  0.1428  0.1154 -0.0979
  839loPI   PO412404  17.090   6.156   5.744  0.1674 -0.0217 -0.0427
  839loPI   GL112405  17.138   6.292   6.068 -0.0431  0.0060  0.1972
  839loPI   GL212406  17.234   6.631   6.066  0.0777 -0.0038 -0.2660
  839loPI   C1A12407  17.363   6.264   6.457  0.0564 -0.0307  0.0622
  839loPI   C2A12408  17.542   6.062   6.792  0.1122 -0.2086  0.0275
  839loPI   C3A12409  17.620   6.206   7.280 -0.0666  0.0971 -0.2533
  839loPI   C4A12410  17.868   5.913   7.559 -0.0887 -0.0820 -0.3873
  839loPI   C5A12411  18.301   6.010   7.645  0.0779  0.1485  0.0219
  839loPI   C6A12412  18.645   6.171   7.949  0.4082  0.3146 -0.0281
  839loPI   C1B12413  17.128   6.936   6.337 -0.0683  0.0279 -0.1040
  839loPI   C2B12414  17.249   7.082   6.771 -0.4158  0.0387 -0.1393
  839loPI   C3B12415  17.366   7.232   7.230 -0.2361 -0.3775 -0.2673
  839loPI   C4B12416  17.499   7.286   7.676  0.0361  0.1010 -0.0995
  840loPI    C112417   0.531  10.792   5.063  0.3447 -0.0805 -0.0012
  840loPI    C212418   0.302  10.471   5.001 -0.0963  0.1735  0.2566
  840loPI    C312419   0.370  10.728   4.702  0.1095 -0.0590  0.0984
  840loPI   PO412420   0.411  10.850   5.374 -0.0441  0.1572 -0.1529
  840loPI   GL112421   0.427  10.609   5.759 -0.0787 -0.1310 -0.1398
  840loPI   GL212422   0.160  10.841   5.921  0.3631 -0.2248  0.2311
  840loPI   C1A12423   0.513  10.542   6.224 -0.2069 -0.1216  0.0112
  840loPI   C2A12424   0.641  10.573   6.732  0.3073 -0.0998 -0.1629
  840loPI   C3A12425   0.695  10.554   7.184 -0.0119 -0.1684 -0.0661
  840loPI   C4A12426   0.416  10.702   7.534  0.2123 -0.3139  0.1614
  840loPI   C5A12427   0.247  10.731   7.898  0.0572 -0.0956  0.2092
  840loPI   C6A12428  -0.047  10.616   8.004  0.2592 -0.0619  0.2803
  840loPI   C1B12429   0.137  10.828   6.272 -0.1392  0.1965 -0.1091
  840loPI   C2B12430   0.197  10.802   6.709  0.3008 -0.0013  0.2736
  840loPI   C3B12431   0.165  10.804   7.081 -0.0128  0.0482 -0.0157
  840loPI   C4B12432   0.009  10.490   7.224 -0.0038 -0.0830  0.1823
  841loPI    C112433  12.888  12.304   5.407 -0.0688  0.1483 -0.1393
  841loPI    C212434  12.626  12.226   5.115 -0.0443  0.1280 -0.1560
  841loPI    C312435  13.017  12.235   5.035 -0.0318  0.0411 -0.1070
  841loPI   PO412436  12.776  12.140   5.655 -0.0331  0.1475  0.0757
  841loPI   GL112437  12.586  12.117   6.018  0.1877  0.1392  0.2342
  841loPI   GL212438  12.541  11.828   6.140  0.1711  0.4377 -0.0288
  841loPI   C1A12439  12.839  12.138   6.367 -0.1150  0.0351 -0.0219
  841loPI   C2A12440  12.970  12.078   6.784  0.4094 -0.0303 -0.0838
  841loPI   C3A12441  13.074  11.867   7.124 -0.0945 -0.4246  0.2146
  841loPI   C4A12442  13.099  11.592   7.422 -0.1792 -0.0006 -0.2714
  841loPI   C5A12443  13.108  11.555   7.939  0.1692 -0.3842  0.0049
  841loPI   C6A12444  13.391  11.629   8.170 -0.0633  0.2253  0.1006
  841loPI   C1B12445  12.448  11.857   6.575 -0.1115 -0.2789 -0.1978
  841loPI   C2B12446  12.442  11.941   6.975 -0.0141  0.1411 -0.1659
  841loPI   C3B12447  12.584  12.056   7.330  0.3545 -0.0148 -0.1013
  841loPI   C4B12448  12.794  11.923   7.732 -0.0530 -0.0132 -0.0592
  842loPI    C112449  10.388  14.614   5.723  0.1696  0.0758 -0.0547
  842loPI    C212450  10.549  14.592   5.357  0.1742  0.2393 -0.0634
  842loPI    C312451  10.272  14.870   5.437  0.1277  0.1640  0.0401
  842loPI   PO412452  10.286  14.310   5.688 -0.0361 -0.1048  0.0946
  842loPI   GL112453  10.278  13.920   5.865 -0.1873  0.0031 -0.0096
  842loPI   GL212454  10.547  13.764   5.945 -0.1265 -0.0890  0.1313
  842loPI   C1A12455  10.154  13.667   6.273 -0.2944  0.0137 -0.0765
  842loPI   C2A12456  10.087  13.760   6.633 -0.0799  0.1079 -0.2837
  842loPI   C3A12457   9.901  13.597   7.020  0.2591 -0.1412 -0.2603
  842loPI   C4A12458   9.883  13.448   7.412 -0.2444 -0.0756 -0.0992
  842loPI   C5A12459   9.732  13.115   7.774  0.0617  0.2456  0.1402
  842loPI   C6A12460   9.703  12.843   8.075 -0.3612  0.0189 -0.1385
  842loPI   C1B12461  10.739  13.726   6.243 -0.0732 -0.4067  0.0281
  842loPI   C2B12462  10.661  13.653   6.639 -0.0903  0.1354  0.0320
  842loPI   C3B12463  10.574  13.646   7.053  0.0055  0.1874  0.2643
  842loPI   C4B12464  10.283  13.726   7.381  0.0413 -0.3323 -0.2274
  843loPI    C112465  17.986   2.263   4.844 -0.1389  0.0423  0.1284
  843loPI    C212466  18.311   2.274   4.611 -0.1319  0.2131  0.1448
  843loPI    C312467  17.947   2.261   4.446 -0.1163 -0.0517  0.1264
  843loPI   PO412468  18.136   2.179   5.082  0.0634 -0.1051  0.0003
  843loPI   GL112469  18.032   2.476   5.440  0.1130  0.2365 -0.1958
  843loPI   GL212470  17.809   2.232   5.599 -0.0502 -0.1295  0.1975
  843loPI   C1A12471  18.264   2.412   5.833 -0.0358  0.1446  0.0056
  843loPI   C2A12472  18.409   2.302   6.130 -0.0432 -0.0558  0.3121
  843loPI   C3A12473  18.499   2.200   6.594  0.1108 -0.2960  0.2713
  843loPI   C4A12474  18.573   2.199   6.981  0.0695 -0.0641 -0.1899
  843loPI   C5A12475  18.604   2.207   7.475 -0.1547  0.2252  0.1047
  843loPI   C6A12476  18.708   1.904   7.804 -0.1337  0.4236 -0.0446
  843loPI   C1B12477  17.808   2.097   6.002 -0.0669 -0.0641 -0.0445
  843loPI   C2B12478  18.055   2.098   6.349  0.1130  0.3573 -0.1055
  843loPI   C3B12479  18.108   2.030   6.784 -0.2945 -0.0491 -0.3567
  843loPI   C4B12480  18.087   2.112   7.186  0.1828  0.3540 -0.1313
  844loPI    C112481  17.703  14.021   5.519 -0.1376  0.0249 -0.1111
  844loPI    C212482  17.884  13.829   5.219  0.1091  0.1356 -0.0365
  844loPI    C312483  17.832  14.225   5.200  0.2030  0.1555  0.1032
  844loPI   PO412484  17.771  13.903   5.692 -0.0064 -0.2352  0.2127
  844loPI   GL112485  17.621  13.942   6.112 -0.0101 -0.0193  0.0353
  844loPI   GL212486  17.734  13.694   6.128  0.0550 -0.1308 -0.3719
  844loPI   C1A12487  17.737  14.180   6.424  0.0821  0.2150 -0.0588
  844loPI   C2A12488  17.700  14.160   6.875  0.0639 -0.1410  0.0402
  844loPI   C3A12489  17.787  13.994   7.239 -0.1477  0.2191 -0.0175
  844loPI   C4A12490  17.763  13.952   7.599  0.0628 -0.0008  0.1021
  844loPI   C5A12491  17.624  14.153   7.884  0.1328  0.0895  0.4467
  844loPI   C6A12492  17.703  14.277   8.300 -0.1994  0.3339 -0.2497
  844loPI   C1B12493  17.843  13.599   6.509  0.1812 -0.2142  0.1487
  844loPI   C2B12494  17.848  13.633   6.918 -0.0846 -0.0875  0.1959
  844loPI   C3B12495  17.877  13.469   7.236  0.0107  0.3266 -0.2146
  844loPI   C4B12496  17.963  13.441   7.617  0.0357  0.1152 -0.1781
  845loPI    C112497   6.392  12.884   5.165  0.1496  0.1374 -0.1301
  845loPI    C212498   6.695  12.658   5.033  0.1282 -0.0310  0.1031
  845loPI    C312499   6.399  12.761   4.785  0.2387 -0.0934 -0.0558
  845loPI   PO412500   6.389  12.811   5.452 -0.5192 -0.0117 -0.1200
  845loPI   GL112501   6.393  12.556   5.746  0.3241 -0.1427 -0.3431
  845loPI   GL212502   6.254  12.315   5.799  0.0747  0.1349  0.1653
  845loPI   C1A12503   6.374  12.789   6.165 -0.1864 -0.0453  0.0173
  845loPI   C2A12504   6.407  12.892   6.577  0.0991 -0.1951 -0.0290
  845loPI   C3A12505   6.375  12.918   7.054  0.1455  0.0964  0.1598
  845loPI   C4A12506   6.850  12.978   7.302 -0.1458 -0.5598  0.2745
  845loPI   C5A12507   6.911  13.232   7.667  0.1447  0.0456 -0.0295
  845loPI   C6A12508   7.176  13.268   7.975  0.0868 -0.1912  0.0376
  845loPI   C1B12509   6.141  12.360   6.212  0.1507 -0.2080 -0.0788
  845loPI   C2B12510   6.218  12.380   6.604  0.1028 -0.1054  0.1014
  845loPI   C3B12511   6.233  12.395   7.075  0.0358  0.2331  0.3426
  845loPI   C4B12512   5.769  12.347   7.247 -0.1766  0.1097  0.1678
  846loPI    C112513   3.081  11.306   5.015 -0.0937 -0.0436  0.0969
  846loPI    C212514   3.225  11.038   4.755 -0.2075 -0.1005  0.0921
  846loPI    C312515   2.833  11.119   4.763 -0.1712  0.0809  0.0798
  846loPI   PO412516   3.232  11.400   5.098 -0.2565  0.1144 -0.0939
  846loPI   GL112517   3.362  11.502   5.557 -0.1267 -0.1699  0.1688
  846loPI   GL212518   3.215  11.237   5.620 -0.2668  0.3493 -0.1141
  846loPI   C1A12519   3.206  11.805   5.856 -0.0213 -0.1090 -0.1206
  846loPI   C2A12520   3.113  12.051   6.252  0.3595  0.2279  0.0144
  846loPI   C3A12521   3.123  12.242   6.617  0.0899 -0.4101  0.0991
  846loPI   C4A12522   3.091  12.306   7.069 -0.0017  0.0891 -0.1265
  846loPI   C5A12523   3.018  12.333   7.461 -0.0550  0.2336 -0.2167
  846loPI   C6A12524   3.302  12.159   7.759 -0.1915  0.1840  0.1972
  846loPI   C1B12525   2.894  11.415   5.866 -0.0819 -0.0948  0.2390
  846loPI   C2B12526   2.963  11.464   6.297 -0.0492 -0.0105  0.1564
  846loPI   C3B12527   2.908  11.661   6.697 -0.1251 -0.1330 -0.2987
  846loPI   C4B12528   2.942  11.835   7.123 -0.3647 -0.1395 -0.0865
  847loPI    C112529  14.310  12.569   5.207  0.3591 -0.0360  0.0459
  847loPI    C212530  14.608  12.356   5.046  0.1259 -0.3993  0.0815
  847loPI    C312531  14.229  12.279   4.944  0.0506  0.2378 -0.1695
  847loPI   PO412532  14.354  12.513   5.520  0.2692 -0.0831 -0.0320
  847loPI   GL112533  14.159  12.469   5.972 -0.0033 -0.3712 -0.0081
  847loPI   GL212534  14.178  12.164   5.854  0.0218 -0.1017 -0.1446
  847loPI   C1A12535  14.358  12.438   6.426 -0.0267  0.3271  0.0408
  847loPI   C2A12536  14.526  12.816   6.548  0.1834 -0.2354  0.1738
  847loPI   C3A12537  14.701  13.052   6.847  0.1662  0.3530 -0.2178
  847loPI   C4A12538  14.796  13.138   7.173 -0.2833  0.1831 -0.2619
  847loPI   C5A12539  14.753  13.018   7.584 -0.2866 -0.1872  0.1938
  847loPI   C6A12540  14.598  12.822   7.992  0.1691 -0.1772 -0.0616
  847loPI   C1B12541  14.369  11.914   6.277  0.2284  0.0320 -0.0402
  847loPI   C2B12542  14.323  11.887   6.707  0.0951  0.0470 -0.1686
  847loPI   C3B12543  14.330  12.281   7.006 -0.0412  0.0783  0.6268
  847loPI   C4B12544  14.344  12.715   6.974  0.0329  0.1941 -0.1315
  848loPI    C112545  11.979  13.493   5.477 -0.0864 -0.0222  0.1431
  848loPI    C212546  11.694  13.640   5.237  0.0486 -0.1201 -0.0809
  848loPI    C312547  11.845  13.866   5.531 -0.0667  0.0272 -0.1338
  848loPI   PO412548  11.946  13.286   5.590 -0.1554  0.0278 -0.0813
  848loPI   GL112549  11.945  13.168   6.070  0.2447 -0.0592 -0.0795
  848loPI   GL212550  11.614  13.161   6.034  0.1765  0.2575  0.2007
  848loPI   C1A12551  12.146  13.317   6.337 -0.1396  0.2539  0.0511
  848loPI   C2A12552  12.085  13.358   6.750 -0.1747  0.0739 -0.0872
  848loPI   C3A12553  12.055  13.283   7.155 -0.2065  0.4002 -0.2613
  848loPI   C4A12554  11.828  13.487   7.556 -0.1873 -0.0858 -0.0106
  848loPI   C5A12555  11.638  13.642   7.869 -0.0132  0.0255 -0.0274
  848loPI   C6A12556  11.636  13.969   8.133 -0.0678  0.1219 -0.1353
  848loPI   C1B12557  11.557  13.112   6.512  0.1663 -0.0667 -0.0675
  848loPI   C2B12558  11.622  13.124   6.917 -0.0009 -0.1271 -0.2720
  848loPI   C3B12559  11.633  13.103   7.357  0.0897 -0.1264 -0.2206
  848loPI   C4B12560  11.616  13.108   7.796 -0.0102 -0.2480 -0.2641
  849loPI    C112561   5.870  16.694   5.085  0.0683  0.2414  0.1139
  849loPI    C212562   6.021  16.960   4.828  0.0166  0.2011  0.0416
  849loPI    C312563   5.778  16.671   4.697  0.1015  0.0961  0.1139
  849loPI   PO412564   6.023  16.713   5.252 -0.1199 -0.0163  0.1907
  849loPI   GL112565   6.078  16.643   5.736  0.2711 -0.0457 -0.0291
  849loPI   GL212566   5.869  16.953   5.690  0.3110  0.0737  0.0738
  849loPI   C1A12567   6.150  16.607   6.270 -0.0994 -0.0203 -0.1796
  849loPI   C2A12568   6.031  16.595   6.839  0.1449 -0.4139  0.0226
  849loPI   C3A12569   5.946  16.548   7.270  0.1362  0.1531 -0.0615
  849loPI   C4A12570   6.144  16.606   7.531  0.1637 -0.0572 -0.1534
  849loPI   C5A12571   6.497  16.465   7.750 -0.3014 -0.1010  0.2179
  849loPI   C6A12572   6.915  16.335   7.858  0.0251 -0.0577 -0.1732
  849loPI   C1B12573   5.725  16.754   6.087 -0.1339 -0.2310  0.0086
  849loPI   C2B12574   5.687  16.766   6.515  0.1091 -0.0305 -0.0333
  849loPI   C3B12575   5.661  16.926   6.986 -0.1608  0.0423  0.1670
  849loPI   C4B12576   5.971  17.153   7.314  0.1017 -0.1194  0.1719
  850loPI    C112577   2.390  18.029   5.392  0.3418  0.0001 -0.0017
  850loPI    C212578   2.135  18.071   5.087  0.2033  0.2543  0.1465
  850loPI    C312579   2.432  17.805   5.063 -0.1092 -0.0906 -0.0044
  850loPI   PO412580   2.176  17.945   5.578 -0.1605  0.0381 -0.1972
  850loPI   GL112581   2.285  17.884   6.007 -0.1026  0.1352 -0.2932
  850loPI   GL212582   2.286  17.602   6.122  0.1961  0.2361  0.0329
  850loPI   C1A12583   2.286  18.181   6.246 -0.2613  0.0389 -0.0087
  850loPI   C2A12584   2.190  18.269   6.629  0.0743  0.0343  0.1547
  850loPI   C3A12585   1.915  18.418   6.952  0.0728 -0.0519  0.2090
  850loPI   C4A12586   1.831  18.701   7.382 -0.0740 -0.0190 -0.0691
  850loPI   C5A12587   1.379  18.591   7.661  0.1950 -0.0291 -0.2123
  850loPI   C6A12588   1.013  18.487   7.825 -0.3032 -0.1910  0.2442
  850loPI   C1B12589   2.125  17.759   6.611 -0.0475 -0.4614  0.4971
  850loPI   C2B12590   2.009  17.787   6.964 -0.1956 -0.2554 -0.2120
  850loPI   C3B12591   1.938  17.950   7.382 -0.3906  0.0655  0.1129
  850loPI   C4B12592   1.909  17.837   7.752 -0.0438 -0.0965 -0.1484
  851loPI    C112593   3.066   1.380   5.360 -0.0113  0.1117 -0.1945
  851loPI    C212594   3.385   1.188   5.506 -0.1838 -0.0501 -0.0234
  851loPI    C312595   3.308   1.178   5.114 -0.1392 -0.2536 -0.0280
  851loPI   PO412596   3.106   1.651   5.470  0.0488 -0.0716  0.1711
  851loPI   GL112597   3.048   1.899   5.842 -0.0528 -0.1838 -0.0899
  851loPI   GL212598   3.228   2.136   5.982 -0.2190 -0.0055 -0.0574
  851loPI   C1A12599   2.917   1.607   6.227  0.1390 -0.2185  0.0894
  851loPI   C2A12600   2.947   1.598   6.681 -0.1255 -0.1570 -0.0688
  851loPI   C3A12601   3.066   1.583   7.088  0.1832 -0.0885 -0.1052
  851loPI   C4A12602   3.101   1.451   7.518 -0.1253 -0.0505 -0.0739
  851loPI   C5A12603   3.189   1.315   7.882 -0.2485 -0.0084 -0.2411
  851loPI   C6A12604   3.069   1.350   8.351  0.0293  0.0764  0.4345
  851loPI   C1B12605   3.290   1.879   6.354 -0.0672  0.0658 -0.0002
  851loPI   C2B12606   3.566   1.705   6.662  0.0817  0.0184  0.3093
  851loPI   C3B12607   3.641   1.796   7.124 -0.0042 -0.2266 -0.1920
  851loPI   C4B12608   3.683   1.866   7.543 -0.3573  0.1554 -0.0890
  852loPI    C112609  11.216   6.087   5.749  0.2536 -0.3170  0.1839
  852loPI    C212610  11.006   5.843   5.511 -0.0925 -0.1618  0.3238
  852loPI    C312611  11.385   5.755   5.602 -0.0148 -0.3211 -0.1277
  852loPI   PO412612  11.009   6.206   5.859 -0.0915 -0.1168  0.2981
  852loPI   GL112613  10.779   6.417   6.182 -0.0536  0.0758  0.1640
  852loPI   GL212614  10.756   6.094   6.312 -0.2140 -0.0987  0.2147
  852loPI   C1A12615  11.024   6.530   6.576  0.0830 -0.0821 -0.2102
  852loPI   C2A12616  10.967   6.659   6.948 -0.0008 -0.0567  0.1891
  852loPI   C3A12617  10.587   6.784   7.204 -0.2412  0.1849  0.1741
  852loPI   C4A12618  10.577   6.813   7.659 -0.5151  0.0449 -0.2344
  852loPI   C5A12619  10.809   7.059   7.975  0.1746 -0.2944 -0.2452
  852loPI   C6A12620  11.087   6.917   8.380 -0.1311  0.2886  0.0448
  852loPI   C1B12621  10.605   5.775   6.667  0.0857  0.4330  0.1053
  852loPI   C2B12622  10.513   5.664   7.111  0.1526 -0.1279 -0.0596
  852loPI   C3B12623  10.349   5.931   7.491 -0.1616 -0.0762  0.0897
  852loPI   C4B12624  10.308   5.806   7.911  0.2203 -0.1336 -0.1169
  853loPI    C112625  17.370   8.435   5.107 -0.1753  0.0417 -0.0681
  853loPI    C212626  17.143   8.758   5.169 -0.2833 -0.0025 -0.2253
  853loPI    C312627  17.263   8.667   4.799  0.3643  0.2686 -0.0951
  853loPI   PO412628  17.262   8.263   5.310  0.0349 -0.0155 -0.0221
  853loPI   GL112629  17.338   7.898   5.605 -0.0661  0.4962 -0.2224
  853loPI   GL212630  17.257   7.685   5.894  0.1159  0.2302  0.0619
  853loPI   C1A12631  17.272   8.210   5.939  0.2888 -0.0713 -0.3162
  853loPI   C2A12632  17.416   8.288   6.404  0.1136 -0.2606 -0.2213
  853loPI   C3A12633  17.553   8.253   6.801 -0.0655  0.0615  0.0025
  853loPI   C4A12634  17.852   8.089   7.126 -0.1768 -0.0132 -0.1729
  853loPI   C5A12635  18.069   7.761   7.458 -0.1021 -0.0266 -0.2653
  853loPI   C6A12636  18.508   7.770   7.704 -0.0310  0.0056  0.2972
  853loPI   C1B12637  17.094   7.899   6.273  0.2312  0.2500  0.1835
  853loPI   C2B12638  17.078   7.964   6.725  0.0238 -0.0586 -0.2661
  853loPI   C3B12639  17.250   7.995   7.121  0.2234 -0.2703  0.1662
  853loPI   C4B12640  17.492   8.192   7.462 -0.1039  0.0691  0.1150
  854loPI    C112641   1.764   5.692   5.305  0.1510 -0.1226  0.1476
  854loPI    C212642   1.864   6.078   5.269  0.0797 -0.1217 -0.0541
  854loPI    C312643   1.996   5.811   5.001 -0.0720 -0.1967 -0.0548
  854loPI   PO412644   1.451   5.712   5.360 -0.1316  0.1621 -0.1323
  854loPI   GL112645   1.395   5.767   5.715  0.1181  0.0721  0.0644
  854loPI   GL212646   1.056   5.852   5.797  0.2807 -0.0444  0.1462
  854loPI   C1A12647   1.409   5.911   6.131  0.2788  0.3734 -0.1079
  854loPI   C2A12648   1.508   5.993   6.615  0.0066  0.0437 -0.1437
  854loPI   C3A12649   1.375   5.957   7.048 -0.1165  0.3453  0.0588
  854loPI   C4A12650   1.318   5.935   7.516  0.3623 -0.0633 -0.2531
  854loPI   C5A12651   1.322   5.674   7.874  0.4424  0.1916  0.1736
  854loPI   C6A12652   1.726   5.836   8.047  0.2678  0.0435 -0.1823
  854loPI   C1B12653   0.922   5.947   6.099  0.2315  0.0935  0.1160
  854loPI   C2B12654   0.934   5.954   6.496 -0.2124 -0.2110  0.0397
  854loPI   C3B12655   0.935   6.085   6.841  0.0298  0.0622  0.1915
  854loPI   C4B12656   0.961   6.187   7.260 -0.1496  0.3009 -0.2273
  855loPI    C112657   9.296  15.513   5.395 -0.0946 -0.0355 -0.0544
  855loPI    C212658   9.131  15.353   5.723  0.0315 -0.1820 -0.0608
  855loPI    C312659   8.997  15.250   5.360  0.0104 -0.1550 -0.0607
  855loPI   PO412660   9.548  15.501   5.350  0.1646 -0.0765  0.2742
  855loPI   GL112661   9.835  15.590   5.651  0.2517 -0.2518  0.2395
  855loPI   GL212662   9.633  15.313   5.910  0.1569 -0.0473  0.0226
  855loPI   C1A12663   9.967  15.569   6.139 -0.0530  0.0371  0.0917
  855loPI   C2A12664  10.043  15.480   6.580 -0.0546  0.0164  0.0059
  855loPI   C3A12665  10.078  15.528   7.020  0.0000  0.3362 -0.3469
  855loPI   C4A12666  10.029  15.508   7.424 -0.1370  0.0733  0.3051
  855loPI   C5A12667   9.815  15.193   7.711 -0.0925  0.0964  0.0713
  855loPI   C6A12668   9.912  14.815   7.946 -0.2378 -0.0686  0.1659
  855loPI   C1B12669   9.308  15.321   6.158  0.1892 -0.3425  0.1937
  855loPI   C2B12670   9.050  15.307   6.518 -0.0705  0.2089  0.2249
  855loPI   C3B12671   9.093  15.661   6.815 -0.0456  0.0384  0.1142
  855loPI   C4B12672   9.153  15.715   7.242  0.1218 -0.2834 -0.0370
  856loPI    C112673  15.474  18.166   5.192 -0.1268 -0.0884  0.0212
  856loPI    C212674  15.439  18.391   4.862 -0.0370 -0.2208 -0.0796
  856loPI    C312675  15.733  18.120   4.890  0.1228 -0.0228  0.2215
  856loPI   PO412676  15.211  18.097   5.335  0.1260  0.1800  0.0884
  856loPI   GL112677  15.018  18.157   5.669  0.0032  0.2394 -0.1170
  856loPI   GL212678  14.831  17.985   5.742 -0.1169 -0.0943 -0.0150
  856loPI   C1A12679  15.322  18.405   6.059  0.2230  0.0763  0.1595
  856loPI   C2A12680  15.406  18.311   6.479  0.0927 -0.4588  0.0881
  856loPI   C3A12681  15.641  18.178   6.867 -0.2008 -0.2226  0.0522
  856loPI   C4A12682  15.666  18.394   7.280 -0.2770 -0.0601 -0.1409
  856loPI   C5A12683  15.700  18.647   7.582  0.1702 -0.1639  0.0060
  856loPI   C6A12684  15.930  19.040   7.673  0.0738  0.0287  0.0537
  856loPI   C1B12685  14.880  18.124   6.160  0.1729  0.1992  0.0851
  856loPI   C2B12686  15.000  17.908   6.603  0.2217  0.1403 -0.2384
  856loPI   C3B12687  15.084  17.822   7.097  0.0699 -0.0866 -0.3192
  856loPI   C4B12688  15.004  17.687   7.487 -0.2056  0.0677  0.0979
  857loPI    C112689  10.885   1.633   5.083  0.2375  0.1692 -0.0455
  857loPI    C212690  11.082   1.312   5.217  0.1440  0.1994  0.1695
  857loPI    C312691  11.001   1.348   4.827  0.1751 -0.0263  0.1404
  857loPI   PO412692  10.818   1.678   5.398  0.0007  0.1095 -0.1564
  857loPI   GL112693  11.067   1.531   5.809 -0.0720  0.0623 -0.0791
  857loPI   GL212694  11.172   1.246   5.939  0.1112 -0.0084 -0.3928
  857loPI   C1A12695  10.834   1.765   6.124  0.0845  0.2450 -0.1993
  857loPI   C2A12696  10.753   1.785   6.520  0.1050 -0.0222 -0.0048
  857loPI   C3A12697  10.616   1.858   6.923 -0.2429 -0.1783 -0.0440
  857loPI   C4A12698  10.606   1.924   7.245  0.1667  0.1203  0.2547
  857loPI   C5A12699  10.509   2.231   7.630  0.2426  0.0422 -0.1176
  857loPI   C6A12700  10.493   2.618   7.504  0.0474  0.2767  0.1056
  857loPI   C1B12701  11.140   1.478   6.383 -0.0363  0.0733  0.0083
  857loPI   C2B12702  11.102   1.549   6.834 -0.1137 -0.0944  0.0776
  857loPI   C3B12703  10.818   1.441   7.124  0.2365 -0.2416  0.2386
  857loPI   C4B12704  10.737   1.529   7.472  0.0433  0.1118 -0.0553
  858loPI    C112705  16.369   5.378   5.863 -0.0044  0.0096 -0.1426
  858loPI    C212706  16.450   5.233   5.499  0.1227 -0.1118 -0.0670
  858loPI    C312707  16.635   5.563   5.628 -0.0073 -0.0030 -0.1558
  858loPI   PO412708  16.159   5.289   5.984 -0.0209 -0.2616  0.0671
  858loPI   GL112709  16.049   5.625   6.285  0.0954  0.2432  0.2324
  858loPI   GL212710  16.226   5.380   6.479  0.2790 -0.0856 -0.0061
  858loPI   C1A12711  15.897   5.687   6.630  0.0201 -0.2064  0.0499
  858loPI   C2A12712  15.956   5.752   7.062 -0.2552  0.0914  0.2884
  858loPI   C3A12713  16.037   5.506   7.314  0.2091 -0.0303 -0.1121
  858loPI   C4A12714  16.221   5.201   7.539  0.1190  0.0815 -0.1377
  858loPI   C5A12715  16.526   5.359   7.801  0.2254 -0.2606  0.1082
  858loPI   C6A12716  16.858   5.347   8.010 -0.1337 -0.1065  0.1994
  858loPI   C1B12717  16.322   5.508   6.895  0.1551  0.3301  0.2024
  858loPI   C2B12718  16.506   5.253   7.103  0.0490  0.3390  0.2822
  858loPI   C3B12719  16.814   5.291   7.432 -0.0752 -0.1662 -0.0800
  858loPI   C4B12720  16.937   4.908   7.583 -0.0062 -0.0546  0.2150
  859loPI    C112721   1.185  11.996   5.282 -0.0704  0.1751  0.0078
  859loPI    C212722   1.132  12.338   5.082 -0.0165  0.0345 -0.2526
  859loPI    C312723   1.192  11.998   4.882 -0.1307 -0.1392  0.0030
  859loPI   PO412724   1.329  12.135   5.534 -0.3550  0.0418 -0.1895
  859loPI   GL112725   1.416  12.180   5.955  0.0048  0.2008  0.0578
  859loPI   GL212726   1.653  11.880   5.896  0.0041 -0.1824  0.1088
  859loPI   C1A12727   1.486  12.347   6.355  0.4910  0.2349  0.0344
  859loPI   C2A12728   1.555  12.286   6.784  0.1004 -0.0782 -0.1128
  859loPI   C3A12729   1.774  12.367   7.244 -0.1117  0.1270 -0.3799
  859loPI   C4A12730   1.663  12.450   7.530  0.0525  0.1142 -0.0295
  859loPI   C5A12731   1.463  12.605   7.941  0.1204  0.0957  0.3121
  859loPI   C6A12732   1.390  12.997   8.234 -0.0150  0.1328 -0.0343
  859loPI   C1B12733   1.932  12.054   6.350  0.0967  0.0520 -0.0674
  859loPI   C2B12734   2.004  11.921   6.807  0.0947 -0.0251 -0.0226
  859loPI   C3B12735   2.082  11.977   7.289 -0.1885  0.0423  0.1436
  859loPI   C4B12736   2.023  12.056   7.736 -0.2336  0.0298 -0.1631
  860loPI    C112737   7.273  12.808   5.226 -0.2424  0.0577 -0.1175
  860loPI    C212738   7.131  12.455   5.103  0.0094 -0.1052  0.0500
  860loPI    C312739   7.164  12.758   4.844  0.0611 -0.2906 -0.1639
  860loPI   PO412740   7.289  12.813   5.504  0.2593 -0.0235  0.0383
  860loPI   GL112741   7.194  12.767   5.847  0.0388  0.0623  0.0531
  860loPI   GL212742   6.832  12.773   5.906 -0.1883  0.1407 -0.0298
  860loPI   C1A12743   7.474  12.885   6.178 -0.1115  0.0163  0.2082
  860loPI   C2A12744   7.557  12.862   6.642 -0.0402  0.1768  0.2215
  860loPI   C3A12745   7.694  12.689   7.006  0.0070 -0.2176  0.0467
  860loPI   C4A12746   7.818  12.614   7.372 -0.0383  0.1249  0.1030
  860loPI   C5A12747   7.965  12.564   7.738 -0.4350  0.0555 -0.1574
  860loPI   C6A12748   8.130  12.225   7.921 -0.0225 -0.1669  0.1905
  860loPI   C1B12749   6.891  12.828   6.324 -0.0937 -0.1785  0.0555
  860loPI   C2B12750   6.881  12.965   6.739 -0.2581 -0.0924 -0.0365
  860loPI   C3B12751   7.283  13.052   7.008  0.2791 -0.1428  0.0519
  860loPI   C4B12752   7.510  12.991   7.467 -0.0206  0.2110  0.2071
  861loPI    C112753   0.301   8.371   4.878  0.0244 -0.1418  0.0140
  861loPI    C212754   0.593   8.140   5.024  0.0628 -0.1159 -0.0218
  861loPI    C312755   0.222   7.994   4.987  0.0714 -0.1491  0.0226
  861loPI   PO412756   0.222   8.650   4.981 -0.2549 -0.2496 -0.1350
  861loPI   GL112757   0.294   8.699   5.372  0.3296  0.0547  0.0265
  861loPI   GL212758   0.499   9.099   5.286 -0.0592 -0.0557 -0.2178
  861loPI   C1A12759   0.084   8.630   5.705  0.0497  0.0682 -0.0051
  861loPI   C2A12760  -0.068   8.504   6.133  0.3201  0.1302  0.2817
  861loPI   C3A12761   0.067   8.284   6.472  0.5462  0.1496  0.0440
  861loPI   C4A12762   0.103   8.362   6.880 -0.3913  0.1140  0.2769
  861loPI   C5A12763   0.010   8.314   7.167  0.0194 -0.0764 -0.1663
  861loPI   C6A12764   0.018   8.219   7.612  0.2235 -0.1688  0.0965
  861loPI   C1B12765   0.339   9.078   5.739  0.1999 -0.0524  0.1493
  861loPI   C2B12766   0.110   9.026   6.110  0.3986  0.2252 -0.4208
  861loPI   C3B12767   0.092   9.169   6.505 -0.4997  0.1798 -0.1628
  861loPI   C4B12768   0.130   9.250   6.901 -0.0833 -0.0681 -0.2108
  862loPI    C112769   2.222  15.182   4.714 -0.2280  0.0925  0.1207
  862loPI    C212770   2.093  15.548   4.621 -0.2575  0.0517 -0.0012
  862loPI    C312771   2.414  15.398   4.438 -0.1468  0.0801  0.1671
  862loPI   PO412772   2.237  15.257   5.014 -0.1934  0.2642 -0.0648
  862loPI   GL112773   2.164  15.120   5.501 -0.0598  0.0732  0.1135
  862loPI   GL212774   2.167  15.569   5.504 -0.0677 -0.1096 -0.1660
  862loPI   C1A12775   2.101  15.120   5.884 -0.1632 -0.0945  0.1959
  862loPI   C2A12776   1.924  14.959   6.216  0.1956 -0.1132 -0.1022
  862loPI   C3A12777   1.965  15.012   6.640 -0.1259 -0.1177 -0.0556
  862loPI   C4A12778   2.000  15.024   7.018 -0.1931  0.1906 -0.0674
  862loPI   C5A12779   1.852  15.376   7.312 -0.2969  0.2339  0.4476
  862loPI   C6A12780   1.666  15.713   7.554  0.0260 -0.0958 -0.0206
  862loPI   C1B12781   2.295  15.890   5.768 -0.3465 -0.2348  0.0237
  862loPI   C2B12782   2.225  16.348   5.741 -0.3505 -0.0777  0.2042
  862loPI   C3B12783   2.312  16.591   6.069 -0.1622  0.1598  0.0303
  862loPI   C4B12784   2.452  16.793   6.474 -0.1278  0.3366 -0.1771
  863loPI    C112785   7.638  17.576   5.111  0.0088 -0.0817 -0.0964
  863loPI    C212786   7.692  17.969   5.061  0.0148 -0.0978 -0.2180
  863loPI    C312787   7.644  17.731   4.743 -0.0509 -0.1868 -0.1421
  863loPI   PO412788   7.833  17.457   5.230  0.3861 -0.2434 -0.1119
  863loPI   GL112789   7.975  17.326   5.565 -0.1801  0.1301  0.0430
  863loPI   GL212790   8.217  17.320   5.748  0.0695  0.0415 -0.0709
  863loPI   C1A12791   7.806  17.043   5.731 -0.0858  0.0799  0.2325
  863loPI   C2A12792   7.763  17.046   6.158  0.0348  0.0040  0.0303
  863loPI   C3A12793   7.701  17.158   6.505  0.0632 -0.0706  0.1407
  863loPI   C4A12794   7.696  17.133   6.986 -0.0517 -0.0185  0.0353
  863loPI   C5A12795   7.792  16.806   7.265 -0.2409  0.0847 -0.1922
  863loPI   C6A12796   8.020  16.462   7.543  0.0718 -0.1923 -0.0235
  863loPI   C1B12797   8.163  17.381   6.177  0.0941  0.0911 -0.5426
  863loPI   C2B12798   8.176  17.338   6.664  0.2536 -0.0546 -0.3550
  863loPI   C3B12799   8.237  17.424   7.077  0.0580  0.2573 -0.2880
  863loPI   C4B12800   8.484  17.484   7.395 -0.0863 -0.0783  0.2365
  864loPI    C112801  11.614   8.178   5.889  0.2160 -0.1778 -0.1210
  864loPI    C212802  11.554   8.240   6.279  0.2629 -0.1976 -0.1106
  864loPI    C312803  11.324   7.981   6.081  0.0719  0.0004 -0.1523
  864loPI   PO412804  11.909   8.099   5.960  0.2550  0.0841  0.0259
  864loPI   GL112805  12.133   8.163   6.425 -0.0460 -0.1554 -0.2457
  864loPI   GL212806  11.881   7.910   6.400 -0.0630  0.0731  0.1078
  864loPI   C1A12807  12.230   8.171   6.853 -0.1171 -0.1935 -0.3623
  864loPI   C2A12808  12.254   7.951   7.190  0.2439  0.3290 -0.5159
  864loPI   C3A12809  12.385   8.132   7.619 -0.1379  0.1425  0.0141
  864loPI   C4A12810  12.326   8.265   8.070 -0.2121 -0.0495 -0.3093
  864loPI   C5A12811  12.644   8.161   8.324  0.1110  0.0275 -0.2897
  864loPI   C6A12812  13.006   8.324   8.064 -0.1350  0.2407 -0.2101
  864loPI   C1B12813  11.757   7.956   6.799 -0.0137  0.0113 -0.1737
  864loPI   C2B12814  11.509   8.217   7.072  0.0179  0.1517 -0.1615
  864loPI   C3B12815  11.388   8.286   7.548  0.3934  0.1444  0.0684
  864loPI   C4B12816  11.124   8.397   7.854 -0.1382 -0.3574  0.2441
  865loPI    C112817  16.232   2.769   5.210 -0.2822 -0.0396 -0.0807
  865loPI    C212818  16.209   2.617   4.840 -0.3161  0.0893 -0.1320
  865loPI    C312819  16.563   2.729   4.988 -0.2899 -0.0461 -0.0909
  865loPI   PO412820  16.070   2.646   5.395  0.1046 -0.0263 -0.0503
  865loPI   GL112821  15.961   2.692   5.849  0.4112  0.0494 -0.3150
  865loPI   GL212822  16.061   2.522   5.928 -0.1333 -0.0115  0.2489
  865loPI   C1A12823  15.946   3.000   6.166 -0.0259  0.2387  0.1844
  865loPI   C2A12824  15.965   2.970   6.583 -0.0219 -0.1023  0.3389
  865loPI   C3A12825  15.901   2.847   7.002  0.0853  0.0987 -0.2368
  865loPI   C4A12826  16.030   2.951   7.409 -0.1718 -0.3590  0.3116
  865loPI   C5A12827  15.950   3.406   7.594 -0.0422 -0.2459 -0.1027
  865loPI   C6A12828  16.021   3.856   7.794  0.0398 -0.2414  0.2008
  865loPI   C1B12829  16.115   2.433   6.351 -0.0741 -0.0350 -0.1033
  865loPI   C2B12830  16.225   2.538   6.731  0.0603  0.0483  0.1034
  865loPI   C3B12831  16.398   2.628   7.174 -0.1838 -0.0767  0.2375
  865loPI   C4B12832  16.789   2.627   7.437 -0.0756 -0.2729  0.4224
  866loPI    C112833   6.562   1.935   5.123 -0.2069  0.1795  0.3777
  866loPI    C212834   6.386   2.092   4.801  0.1843  0.1939  0.1648
  866loPI    C312835   6.640   2.313   5.017 -0.1821  0.2303  0.5721
  866loPI   PO412836   6.358   1.819   5.265 -0.0629  0.1735  0.0422
  866loPI   GL112837   6.358   1.838   5.619 -0.5873 -0.0994  0.0151
  866loPI   GL212838   6.574   1.777   5.801  0.0404  0.0932  0.0359
  866loPI   C1A12839   6.206   1.826   6.105 -0.0617 -0.0914 -0.0717
  866loPI   C2A12840   6.245   1.978   6.463 -0.3392 -0.1733 -0.0500
  866loPI   C3A12841   6.179   1.862   6.936 -0.0287  0.5460 -0.0913
  866loPI   C4A12842   6.083   1.996   7.350 -0.2289  0.1402 -0.1072
  866loPI   C5A12843   5.911   2.000   7.693  0.1408  0.1781  0.2593
  866loPI   C6A12844   5.897   2.117   8.150  0.1605  0.2241  0.3057
  866loPI   C1B12845   6.728   1.891   6.197 -0.1193 -0.2371  0.0269
  866loPI   C2B12846   6.692   1.946   6.589 -0.1165 -0.0697 -0.0832
  866loPI   C3B12847   6.649   1.909   7.097  0.0364  0.2451  0.2696
  866loPI   C4B12848   6.543   2.064   7.461  0.0158 -0.0915 -0.0921
  867loPI    C112849  12.263   1.722   5.046  0.0901 -0.0887  0.4338
  867loPI    C212850  12.339   1.367   5.212  0.1388 -0.2447  0.0868
  867loPI    C312851  12.347   1.407   4.814 -0.3454  0.0324  0.0980
  867loPI   PO412852  12.383   1.900   5.298  0.0884  0.0317 -0.1426
  867loPI   GL112853  12.530   1.880   5.605 -0.0182 -0.1281 -0.4235
  867loPI   GL212854  12.482   1.536   5.652 -0.2903 -0.2640  0.0473
  867loPI   C1A12855  12.714   2.054   6.057  0.1924  0.1473  0.0145
  867loPI   C2A12856  12.767   2.152   6.463 -0.1093  0.3238  0.1571
  867loPI   C3A12857  12.908   2.310   6.896 -0.1132  0.2501 -0.1261
  867loPI   C4A12858  12.896   2.200   7.302 -0.0333  0.1427  0.0550
  867loPI   C5A12859  12.787   2.179   7.684  0.0300  0.2647 -0.2749
  867loPI   C6A12860  12.586   2.420   8.000  0.3201  0.0732  0.3491
  867loPI   C1B12861  12.674   1.465   6.041  0.0983  0.1967  0.0319
  867loPI   C2B12862  12.668   1.606   6.455  0.2188  0.0294 -0.2612
  867loPI   C3B12863  12.613   1.852   6.781  0.1007  0.0269 -0.1951
  867loPI   C4B12864  12.600   1.789   7.353 -0.1090  0.1395  0.0238
  868loPI    C112865  12.019  11.817   5.622 -0.0453  0.0013 -0.2360
  868loPI    C212866  11.829  11.681   5.947  0.0353 -0.1408 -0.2474
  868loPI    C312867  11.626  11.740   5.608 -0.0037 -0.2183 -0.2379
  868loPI   PO412868  12.292  11.766   5.726  0.2478  0.0469 -0.0957
  868loPI   GL112869  12.441  11.338   5.943  0.0337  0.1041 -0.0694
  868loPI   GL212870  12.190  11.379   6.036  0.0561  0.3899  0.2784
  868loPI   C1A12871  12.461  11.293   6.410 -0.1420  0.1856  0.0795
  868loPI   C2A12872  12.430  11.200   6.827  0.1677  0.1702  0.2544
  868loPI   C3A12873  12.418  10.997   7.204  0.3101  0.2537  0.3550
  868loPI   C4A12874  12.363  10.773   7.616 -0.3720  0.0578 -0.1870
  868loPI   C5A12875  12.068  10.649   7.890 -0.0304  0.1213 -0.2456
  868loPI   C6A12876  11.837  10.643   8.255 -0.0269 -0.1814 -0.1221
  868loPI   C1B12877  12.016  11.554   6.339  0.2086  0.1831 -0.2443
  868loPI   C2B12878  12.069  11.610   6.761  0.0152 -0.2111 -0.1217
  868loPI   C3B12879  12.127  11.588   7.186  0.0758  0.0061  0.1337
  868loPI   C4B12880  12.332  11.726   7.602 -0.2867 -0.0451 -0.1230
  869loPI    C112881   3.926   1.766   5.187  0.0252 -0.0841  0.0500
  869loPI    C212882   3.578   1.582   5.256  0.1310 -0.3312 -0.0639
  869loPI    C312883   3.593   1.892   5.004 -0.0684 -0.0888  0.2157
  869loPI   PO412884   3.968   1.816   5.544  0.1713  0.4154 -0.0826
  869loPI   GL112885   4.075   1.682   5.938 -0.0068 -0.1746  0.2070
  869loPI   GL212886   4.436   1.839   5.898 -0.0641  0.0284 -0.1052
  869loPI   C1A12887   3.962   1.447   6.272  0.0345  0.2707 -0.0658
  869loPI   C2A12888   4.018   1.429   6.741  0.3236  0.1358 -0.0223
  869loPI   C3A12889   4.070   1.505   7.163 -0.0496 -0.1281 -0.0569
  869loPI   C4A12890   3.908   1.381   7.585 -0.1189  0.2337 -0.2644
  869loPI   C5A12891   3.711   1.446   7.959 -0.1583 -0.0743  0.0223
  869loPI   C6A12892   3.832   1.275   8.386  0.0585  0.0155 -0.3836
  869loPI   C1B12893   4.405   1.667   6.338 -0.0313 -0.1186  0.2416
  869loPI   C2B12894   4.362   1.752   6.757 -0.2330  0.0611 -0.0780
  869loPI   C3B12895   4.561   1.575   7.169  0.1910  0.0996  0.2506
  869loPI   C4B12896   4.537   1.721   7.621  0.0229  0.1402 -0.1395
  870loPI    C112897  18.273   1.130   5.085  0.0609 -0.0302 -0.1181
  870loPI    C212898  18.606   1.350   5.106  0.0394  0.0079 -0.1720
  870loPI    C312899  18.416   1.309   4.757 -0.0642  0.0633 -0.1225
  870loPI   PO412900  18.362   1.019   5.383  0.0748 -0.0694 -0.4387
  870loPI   GL112901  18.401   0.975   5.828  0.3540 -0.0790 -0.0497
  870loPI   GL212902  18.667   0.948   5.785 -0.0659  0.1443 -0.0274
  870loPI   C1A12903  18.291   1.179   6.253  0.1322  0.3108  0.1370
  870loPI   C2A12904  17.890   1.420   6.361 -0.0224  0.0181 -0.0990
  870loPI   C3A12905  17.828   1.633   6.625  0.3831  0.2088  0.1719
  870loPI   C4A12906  17.914   1.650   7.044 -0.2117 -0.1541 -0.1525
  870loPI   C5A12907  17.713   1.578   7.404  0.1270  0.1546  0.0109
  870loPI   C6A12908  17.285   1.400   7.584  0.1939  0.1865  0.3817
  870loPI   C1B12909  18.827   0.998   6.210  0.3035  0.2416  0.1678
  870loPI   C2B12910  18.524   0.893   6.645 -0.0016 -0.0893  0.2870
  870loPI   C3B12911  18.464   1.032   7.069  0.0680  0.0677 -0.0159
  870loPI   C4B12912  18.274   0.866   7.464 -0.0695 -0.2651 -0.0687
  871loPI    C112913  14.184  10.880   5.247  0.2091 -0.0886  0.2366
  871loPI    C212914  14.262  10.567   5.010 -0.0221  0.0867 -0.0781
  871loPI    C312915  14.139  10.507   5.386 -0.0103 -0.1988 -0.1173
  871loPI   PO412916  14.364  11.090   5.282 -0.0705 -0.0009  0.1565
  871loPI   GL112917  14.590  11.233   5.586  0.2207  0.0803  0.0841
  871loPI   GL212918  14.903  11.456   5.600 -0.0752  0.1671  0.1081
  871loPI   C1A12919  14.798  11.126   6.073 -0.0837 -0.0835  0.1937
  871loPI   C2A12920  15.046  11.132   6.462 -0.1103  0.1498  0.2867
  871loPI   C3A12921  15.055  11.108   6.892 -0.0325  0.0248 -0.0362
  871loPI   C4A12922  15.206  11.070   7.262 -0.1247  0.0866 -0.0664
  871loPI   C5A12923  15.492  11.061   7.622  0.2224 -0.1047  0.0296
  871loPI   C6A12924  15.620  10.834   7.946  0.0862  0.1820 -0.1357
  871loPI   C1B12925  15.254  11.287   5.869 -0.1477  0.2257  0.2950
  871loPI   C2B12926  15.472  11.305   6.264  0.2235 -0.0438 -0.0990
  871loPI   C3B12927  15.514  11.052   6.678  0.0990 -0.1748  0.0451
  871loPI   C4B12928  15.706  10.937   7.087 -0.0828 -0.1634 -0.3936
  872loPI    C112929  10.140  12.731   5.543  0.0041 -0.0761 -0.0265
  872loPI    C212930   9.820  12.803   5.314  0.0739  0.1956 -0.0421
  872loPI    C312931   9.849  12.458   5.514 -0.1048  0.0599 -0.2452
  872loPI   PO412932  10.098  12.983   5.730  0.0161 -0.2344 -0.1292
  872loPI   GL112933   9.909  13.065   6.140  0.0258  0.0473 -0.2546
  872loPI   GL212934   9.703  13.423   6.004  0.1451  0.1144 -0.0157
  872loPI   C1A12935   9.944  13.151   6.637  0.1064 -0.0905 -0.0619
  872loPI   C2A12936  10.273  13.301   6.885  0.2039 -0.0196 -0.3713
  872loPI   C3A12937  10.313  13.247   7.206  0.0135 -0.0540  0.0230
  872loPI   C4A12938  10.238  13.077   7.444 -0.1713  0.2248 -0.3549
  872loPI   C5A12939  10.154  12.867   7.833  0.1267  0.2206  0.2569
  872loPI   C6A12940  10.235  12.654   8.214 -0.1943  0.0077  0.1658
  872loPI   C1B12941   9.687  13.550   6.435 -0.1063  0.3444  0.1233
  872loPI   C2B12942   9.537  13.388   6.784 -0.0162  0.0969  0.0057
  872loPI   C3B12943   9.402  13.379   7.182 -0.0118  0.0866  0.1953
  872loPI   C4B12944   9.380  12.929   7.352  0.2327  0.0621  0.0361
  873loPI    C112945   8.599   5.830   5.374 -0.1011 -0.2710  0.1888
  873loPI    C212946   8.342   5.976   5.103  0.0290 -0.0291  0.1930
  873loPI    C312947   8.608   5.696   4.997 -0.0938 -0.1256  0.1369
  873loPI   PO412948   8.532   6.073   5.604  0.1700  0.2157  0.0459
  873loPI   GL112949   8.241   6.290   5.920 -0.3330 -0.2218  0.1331
  873loPI   GL212950   8.064   5.967   5.965 -0.0248  0.1966 -0.0846
  873loPI   C1A12951   7.943   6.280   6.344 -0.0128 -0.1153 -0.1283
  873loPI   C2A12952   7.823   6.344   6.748 -0.1064  0.2664 -0.1619
  873loPI   C3A12953   7.929   6.426   7.185  0.4907  0.1795 -0.3571
  873loPI   C4A12954   8.036   6.736   7.496  0.0712  0.0540  0.1792
  873loPI   C5A12955   8.348   6.954   7.811  0.0221  0.1758 -0.0219
  873loPI   C6A12956   8.351   7.254   8.129  0.1126 -0.0798  0.1750
  873loPI   C1B12957   8.137   5.805   6.342  0.0414 -0.0943  0.1389
  873loPI   C2B12958   8.097   5.856   6.808  0.0458  0.0824  0.1651
  873loPI   C3B12959   8.065   5.972   7.226 -0.2288 -0.0388  0.0311
  873loPI   C4B12960   7.847   6.108   7.620 -0.0034 -0.0234  0.1663
  874loPI    C112961  13.045   5.793   5.105 -0.1386  0.0157  0.0684
  874loPI    C212962  13.125   6.040   4.801 -0.2985  0.1410  0.1261
  874loPI    C312963  13.049   5.653   4.730 -0.0866  0.1153  0.0315
  874loPI   PO412964  13.167   5.850   5.327  0.0116 -0.1219  0.0101
  874loPI   GL112965  13.109   5.742   5.738 -0.2321 -0.0685 -0.2769
  874loPI   GL212966  12.817   5.692   5.917 -0.2362  0.2812  0.1227
  874loPI   C1A12967  13.244   5.396   6.080  0.0648 -0.3703  0.1696
  874loPI   C2A12968  13.125   5.387   6.529 -0.0165  0.0562  0.1183
  874loPI   C3A12969  13.073   5.540   6.993 -0.1312  0.0437 -0.0881
  874loPI   C4A12970  12.950   5.646   7.387  0.3845 -0.0636 -0.3206
  874loPI   C5A12971  12.824   5.434   7.686  0.0082  0.0214 -0.0906
  874loPI   C6A12972  12.505   5.222   7.873 -0.0625 -0.1823 -0.2812
  874loPI   C1B12973  12.658   5.466   6.245  0.2608  0.1004 -0.1317
  874loPI   C2B12974  12.644   5.344   6.632 -0.0177 -0.0793 -0.3402
  874loPI   C3B12975  12.568   5.546   7.055  0.1307  0.1469 -0.0382
  874loPI   C4B12976  12.388   5.521   7.460 -0.0135  0.1142 -0.0866
  875loPI    C112977   4.415   1.575   5.350 -0.1989  0.1012 -0.0472
  875loPI    C212978   4.339   1.330   5.043  0.0825 -0.0675  0.0146
  875loPI    C312979   4.405   1.719   4.977  0.3023 -0.1317 -0.1592
  875loPI   PO412980   4.612   1.419   5.518 -0.1434  0.1635  0.2339
  875loPI   GL112981   4.731   1.040   5.725 -0.2998 -0.0827 -0.1785
  875loPI   GL212982   4.810   0.996   5.967 -0.3991  0.0186 -0.0796
  875loPI   C1A12983   4.392   1.178   6.052  0.0287  0.1938 -0.0909
  875loPI   C2A12984   4.314   1.136   6.491  0.0316  0.0793 -0.1137
  875loPI   C3A12985   4.403   1.142   6.871 -0.0496  0.1184 -0.3298
  875loPI   C4A12986   4.328   1.119   7.331 -0.0917  0.0224  0.2251
  875loPI   C5A12987   4.523   1.184   7.774  0.5630 -0.3507 -0.4075
  875loPI   C6A12988   4.615   1.403   8.113  0.2690 -0.2535 -0.2255
  875loPI   C1B12989   4.706   0.860   6.315  0.1793 -0.1755 -0.0298
  875loPI   C2B12990   4.760   0.863   6.673  0.1310  0.1260 -0.0682
  875loPI   C3B12991   4.687   0.746   7.097 -0.1907 -0.0454 -0.1272
  875loPI   C4B12992   4.732   0.732   7.582 -0.2901  0.0521 -0.2371
  876loPI    C112993   4.741  10.149   5.230  0.1744  0.0873 -0.1197
  876loPI    C212994   4.820   9.873   4.951  0.1728 -0.0636  0.0279
  876loPI    C312995   4.571  10.175   4.868  0.2461 -0.0543 -0.1643
  876loPI   PO412996   4.996  10.235   5.313  0.1124 -0.1238 -0.3315
  876loPI   GL112997   5.123  10.281   5.724 -0.2213  0.1974  0.1758
  876loPI   GL212998   5.315  10.139   5.741  0.0408  0.0359  0.4624
  876loPI   C1A12999   4.990  10.482   6.117  0.2708 -0.1941  0.2461
  876loPI   C2A13000   5.033  10.577   6.542 -0.2987  0.0987 -0.3247
  876loPI   C3A13001   5.081  10.582   7.044  0.1495  0.2091  0.0190
  876loPI   C4A13002   5.042  10.688   7.520 -0.0224  0.1868 -0.1089
  876loPI   C5A13003   5.150  10.764   7.937  0.4150  0.0237  0.0028
  876loPI   C6A13004   5.492  10.991   8.158 -0.2727  0.1953  0.1265
  876loPI   C1B13005   5.473  10.072   6.074  0.0425  0.0392 -0.0496
  876loPI   C2B13006   5.376  10.101   6.515 -0.1166 -0.0774 -0.1292
  876loPI   C3B13007   5.310  10.149   6.977  0.2229  0.1152  0.0641
  876loPI   C4B13008   5.254  10.220   7.384 -0.1380  0.0848 -0.0366
  877loPI    C113009   5.446  10.088   5.212  0.2486 -0.2053 -0.1020
  877loPI    C213010   5.265   9.739   5.283  0.1479 -0.1728 -0.1948
  877loPI    C313011   5.322   9.861   4.906 -0.1734  0.0932 -0.1611
  877loPI   PO413012   5.665  10.125   5.416  0.0819  0.1416 -0.0053
  877loPI   GL113013   5.948  10.152   5.793  0.0356 -0.3079 -0.2649
  877loPI   GL213014   5.808  10.331   5.928 -0.0853 -0.0090 -0.2328
  877loPI   C1A13015   6.235  10.182   6.112  0.4543 -0.0278 -0.0765
  877loPI   C2A13016   6.132  10.410   6.533  0.0832  0.3727 -0.1118
  877loPI   C3A13017   6.068  10.537   6.916 -0.2414 -0.0340  0.0156
  877loPI   C4A13018   6.010  10.436   7.397  0.1664 -0.1153  0.1116
  877loPI   C5A13019   5.951  10.202   7.753 -0.0452 -0.1978 -0.0986
  877loPI   C6A13020   6.101   9.817   7.995 -0.0380 -0.1583  0.0670
  877loPI   C1B13021   6.040  10.724   6.075 -0.0270  0.3035  0.0970
  877loPI   C2B13022   6.009  11.032   6.311 -0.1557 -0.0668 -0.1123
  877loPI   C3B13023   5.796  11.039   6.732 -0.0077 -0.0470  0.2899
  877loPI   C4B13024   5.908  11.022   7.079  0.1753  0.2801  0.1158
  878loPI    C113025   8.055  15.041   5.127 -0.1157  0.1295  0.1340
  878loPI    C213026   7.670  14.932   5.114 -0.0386 -0.1284 -0.0596
  878loPI    C313027   7.853  15.062   4.782 -0.0120  0.1906  0.0766
  878loPI   PO413028   8.185  15.236   5.319  0.3492 -0.1930 -0.1896
  878loPI   GL113029   8.113  15.377   5.641 -0.3365 -0.0498  0.1370
  878loPI   GL213030   8.487  15.403   5.641 -0.0694  0.0948 -0.0006
  878loPI   C1A13031   8.226  15.356   6.115  0.0891  0.3809 -0.4394
  878loPI   C2A13032   8.461  15.301   6.383 -0.0410 -0.0571  0.0356
  878loPI   C3A13033   8.627  15.312   6.787 -0.0141 -0.2438  0.0946
  878loPI   C4A13034   8.803  15.250   7.209  0.0248 -0.1032  0.2601
  878loPI   C5A13035   8.454  15.265   7.527 -0.0261  0.1540  0.1575
  878loPI   C6A13036   8.128  15.184   7.880 -0.2913  0.1442  0.0831
  878loPI   C1B13037   8.796  15.396   6.048  0.0537  0.3832 -0.0521
  878loPI   C2B13038   8.695  15.716   6.464  0.0681 -0.1315  0.0081
  878loPI   C3B13039   8.854  16.128   6.718 -0.1384  0.3435  0.5464
  878loPI   C4B13040   8.808  16.148   7.143  0.0389 -0.2367 -0.1030
  879loPI    C113041  16.155  10.433   5.179 -0.0447 -0.0530  0.0749
  879loPI    C213042  16.103  10.207   4.854  0.0073  0.2437 -0.1442
  879loPI    C313043  15.787  10.376   5.033 -0.0514 -0.1364  0.1236
  879loPI   PO413044  16.383  10.273   5.277  0.0680  0.0161  0.0229
  879loPI   GL113045  16.586   9.951   5.533  0.1431 -0.2913 -0.1483
  879loPI   GL213046  16.876  10.006   5.724  0.2501 -0.4032  0.0954
  879loPI   C1A13047  16.463  10.066   5.954 -0.0171 -0.0478  0.2732
  879loPI   C2A13048  16.472  10.142   6.345  0.1703 -0.0421  0.0119
  879loPI   C3A13049  16.504  10.291   6.803  0.4044 -0.2274  0.3252
  879loPI   C4A13050  16.394  10.464   7.171  0.1614  0.2420 -0.0245
  879loPI   C5A13051  16.449  10.900   7.355 -0.2795  0.2075 -0.2143
  879loPI   C6A13052  16.507  11.364   7.501  0.0754  0.2369 -0.2994
  879loPI   C1B13053  16.958  10.102   6.175  0.1325 -0.5855 -0.0008
  879loPI   C2B13054  17.025  10.140   6.567  0.0601 -0.0645 -0.0982
  879loPI   C3B13055  16.922  10.372   7.000  0.0887  0.1632 -0.0864
  879loPI   C4B13056  16.931  10.392   7.372  0.3336  0.3401  0.2410
  880loPI    C113057  12.703  17.356   5.233  0.3632 -0.1404  0.3846
  880loPI    C213058  12.929  17.028   5.199  0.2934 -0.1506 -0.0265
  880loPI    C313059  12.903  17.285   4.894 -0.0725 -0.0339  0.0985
  880loPI   PO413060  12.472  17.260   5.336 -0.2024  0.0305 -0.2281
  880loPI   GL113061  12.201  17.318   5.677 -0.1103  0.2141  0.0207
  880loPI   GL213062  12.301  16.893   5.763 -0.0309  0.4261 -0.0606
  880loPI   C1A13063  11.978  17.267   6.031  0.0286 -0.0573 -0.2273
  880loPI   C2A13064  11.791  17.222   6.532 -0.0888  0.0751  0.1623
  880loPI   C3A13065  11.722  17.227   6.932 -0.0496 -0.0148  0.0148
  880loPI   C4A13066  11.677  17.178   7.391  0.4254  0.0773  0.0424
  880loPI   C5A13067  11.798  17.432   7.711 -0.2413  0.0882  0.0764
  880loPI   C6A13068  12.198  17.581   7.802  0.2261 -0.0800  0.1136
  880loPI   C1B13069  12.454  17.063   6.058 -0.3294  0.0671  0.0655
  880loPI   C2B13070  12.575  17.089   6.457  0.2241 -0.1984 -0.0135
  880loPI   C3B13071  12.778  17.382   6.715  0.4375 -0.1074 -0.0949
  880loPI   C4B13072  13.133  17.591   6.660 -0.0054 -0.1625  0.1608
  881loPI    C113073   7.124   7.731   5.477 -0.0286 -0.0670  0.0443
  881loPI    C213074   7.186   7.993   5.181 -0.1008  0.0044  0.0918
  881loPI    C313075   7.220   7.601   5.112  0.0348  0.0271  0.0271
  881loPI   PO413076   6.919   7.923   5.642 -0.2008 -0.0082 -0.1823
  881loPI   GL113077   6.742   7.962   6.055 -0.0978 -0.0875 -0.0964
  881loPI   GL213078   6.523   7.647   6.123 -0.1524  0.0720  0.3747
  881loPI   C1A13079   6.527   8.024   6.438  0.1400 -0.1977 -0.0123
  881loPI   C2A13080   6.515   8.201   6.777 -0.0108 -0.0568 -0.0847
  881loPI   C3A13081   6.503   8.281   7.093 -0.0216 -0.1017  0.2485
  881loPI   C4A13082   6.541   8.341   7.566 -0.5846  0.1648 -0.4064
  881loPI   C5A13083   6.638   8.588   7.869 -0.3535  0.2615 -0.1074
  881loPI   C6A13084   6.453   8.906   8.150 -0.3022 -0.0156 -0.1035
  881loPI   C1B13085   6.610   7.499   6.536 -0.0310  0.2098 -0.2638
  881loPI   C2B13086   6.560   7.735   6.938  0.0666  0.0312  0.3043
  881loPI   C3B13087   6.427   7.842   7.382 -0.0335 -0.0485 -0.0394
  881loPI   C4B13088   6.147   7.935   7.672 -0.0175  0.2146  0.1844
  882loPI    C113089   7.428  10.903   5.330  0.1308  0.0975  0.0390
  882loPI    C213090   7.070  10.763   5.219  0.2322 -0.0542 -0.1027
  882loPI    C313091   7.403  10.615   5.053  0.3635  0.0564  0.0582
  882loPI   PO413092   7.325  11.069   5.571 -0.2391  0.2419  0.3916
  882loPI   GL113093   7.416  10.952   6.031  0.0315 -0.1760  0.0252
  882loPI   GL213094   7.323  11.280   6.192 -0.1005  0.1453 -0.0950
  882loPI   C1A13095   7.356  10.903   6.490 -0.2303  0.0174  0.0839
  882loPI   C2A13096   7.218  10.789   6.873  0.1922  0.1370  0.1123
  882loPI   C3A13097   6.755  10.727   7.028  0.2115  0.2367 -0.1597
  882loPI   C4A13098   6.429  10.884   7.260  0.0123 -0.2605 -0.0256
  882loPI   C5A13099   6.014  10.901   7.575 -0.1599 -0.0397 -0.0061
  882loPI   C6A13100   5.880  11.236   7.790  0.2300 -0.2133  0.1532
  882loPI   C1B13101   7.472  11.509   6.523  0.2122  0.0918 -0.0269
  882loPI   C2B13102   7.480  11.671   6.941 -0.1951 -0.0699  0.3751
  882loPI   C3B13103   7.444  11.609   7.315 -0.1065  0.0400 -0.1201
  882loPI   C4B13104   7.335  11.308   7.710  0.0751 -0.1553  0.0176
  883loPI    C113105   2.362   7.826   5.005  0.1214 -0.0142  0.3155
  883loPI    C213106   2.704   7.978   4.865 -0.0576  0.0169 -0.1042
  883loPI    C313107   2.530   7.672   4.676 -0.1476 -0.1480  0.2379
  883loPI   PO413108   2.413   7.961   5.347 -0.2792  0.1686 -0.2492
  883loPI   GL113109   2.204   8.043   5.763  0.0604 -0.0867 -0.1656
  883loPI   GL213110   1.864   8.111   5.850  0.0092  0.0327  0.1180
  883loPI   C1A13111   2.330   8.480   5.989  0.2551 -0.0879 -0.0165
  883loPI   C2A13112   2.397   8.741   6.325  0.1785  0.0648  0.0275
  883loPI   C3A13113   2.191   9.035   6.505 -0.1077 -0.0509 -0.0391
  883loPI   C4A13114   2.148   9.267   6.841  0.0625 -0.5203  0.3384
  883loPI   C5A13115   2.101   9.263   7.280 -0.0976  0.1062 -0.0585
  883loPI   C6A13116   2.083   9.561   7.655  0.1132  0.0966  0.2719
  883loPI   C1B13117   1.538   8.275   6.104 -0.3052 -0.0928 -0.1953
  883loPI   C2B13118   1.109   8.215   6.193  0.1812  0.0863 -0.1032
  883loPI   C3B13119   0.631   8.077   6.338  0.0241 -0.1470  0.0425
  883loPI   C4B13120   0.352   8.148   6.008 -0.0769  0.4136 -0.0488
  884loPI    C113121  18.370  10.092   5.186  0.0736 -0.1603 -0.1290
  884loPI    C213122  18.371   9.727   5.023 -0.0556 -0.1066 -0.2528
  884loPI    C313123  18.465  10.045   4.800  0.0619 -0.0642 -0.1439
  884loPI   PO413124  18.597  10.063   5.400 -0.3010  0.1883  0.0687
  884loPI   GL113125  18.864  10.105   5.757  0.0052  0.1159 -0.0564
  884loPI   GL213126  19.151  10.204   5.807  0.1792 -0.2085  0.0319
  884loPI   C1A13127  18.854   9.994   6.117  0.1873  0.1331 -0.3044
  884loPI   C2A13128  18.842  10.058   6.386  0.2150  0.0475 -0.1345
  884loPI   C3A13129  18.855  10.163   6.944 -0.2085  0.0299  0.0297
  884loPI   C4A13130  18.754  10.184   7.266 -0.0464 -0.0871  0.4260
  884loPI   C5A13131  18.819   9.896   7.616  0.2257  0.0048  0.1627
  884loPI   C6A13132  19.207   9.885   7.913  0.4755  0.1834 -0.2920
  884loPI   C1B13133  19.266  10.242   6.199 -0.0032 -0.0492  0.1238
  884loPI   C2B13134  19.316  10.200   6.608  0.2652 -0.1368  0.0439
  884loPI   C3B13135  19.407  10.244   7.032 -0.1031  0.1632 -0.0746
  884loPI   C4B13136  19.699  10.103   7.420  0.0986  0.0811  0.4068
  885loPI    C113137  14.665  15.436   5.171 -0.2159  0.0533 -0.0493
  885loPI    C213138  14.854  15.106   5.048 -0.1133  0.0866  0.0181
  885loPI    C313139  14.740  15.382   4.782  0.1185  0.1637 -0.0027
  885loPI   PO413140  14.818  15.573   5.401  0.0508 -0.1962  0.0515
  885loPI   GL113141  14.797  15.539   5.819 -0.3269  0.0236 -0.1845
  885loPI   GL213142  15.122  15.722   5.808  0.2631  0.1373  0.1378
  885loPI   C1A13143  14.729  15.406   6.170  0.0371 -0.0810 -0.2515
  885loPI   C2A13144  14.813  15.292   6.533 -0.1851  0.0382 -0.2426
  885loPI   C3A13145  14.829  15.305   7.020  0.1384  0.0742  0.3657
  885loPI   C4A13146  14.775  15.368   7.480  0.1512 -0.1407 -0.0170
  885loPI   C5A13147  14.791  15.158   7.924 -0.0873 -0.1603  0.0014
  885loPI   C6A13148  14.464  15.124   8.264 -0.0640  0.3061 -0.0173
  885loPI   C1B13149  15.221  15.629   6.210  0.0040  0.0443  0.1716
  885loPI   C2B13150  15.344  15.393   6.534  0.3909 -0.0810 -0.0513
  885loPI   C3B13151  15.345  15.393   6.921  0.2356 -0.0754 -0.1496
  885loPI   C4B13152  15.289  15.494   7.372  0.2243 -0.2481 -0.0818
  886loPI    C113153   5.841   5.233   5.478 -0.1922 -0.0565  0.0161
  886loPI    C213154   5.778   4.890   5.282  0.0869 -0.0851 -0.0275
  886loPI    C313155   5.927   5.207   5.088 -0.2988  0.1064 -0.0191
  886loPI   PO413156   5.594   5.214   5.671 -0.2625  0.2041 -0.1726
  886loPI   GL113157   5.655   5.339   5.915  0.1668  0.0543  0.2902
  886loPI   GL213158   5.509   5.580   5.946  0.0499 -0.2772 -0.0934
  886loPI   C1A13159   5.772   5.369   6.385 -0.1691 -0.2094 -0.1757
  886loPI   C2A13160   5.725   5.362   6.870 -0.0033  0.1729 -0.2678
  886loPI   C3A13161   5.802   5.419   7.247 -0.0615  0.2275  0.0847
  886loPI   C4A13162   5.799   5.585   7.684  0.0071 -0.1111  0.0178
  886loPI   C5A13163   5.432   5.502   7.955  0.6018 -0.2672 -0.1677
  886loPI   C6A13164   4.974   5.238   8.039  0.1258 -0.2300  0.0379
  886loPI   C1B13165   5.324   5.742   6.406 -0.2618  0.1661 -0.2623
  886loPI   C2B13166   5.348   5.762   6.869  0.0935 -0.0502 -0.1977
  886loPI   C3B13167   5.108   6.073   7.080 -0.1737 -0.0331  0.1874
  886loPI   C4B13168   5.016   6.282   7.432 -0.1519  0.3336 -0.2372
  887loPI    C113169  17.400   6.877   5.406  0.0831  0.1235  0.0491
  887loPI    C213170  17.169   6.593   5.244  0.0287  0.1686  0.0475
  887loPI    C313171  17.559   6.608   5.156  0.0066  0.1714 -0.0516
  887loPI   PO413172  17.301   6.881   5.634  0.0330  0.0980  0.1126
  887loPI   GL113173  17.405   7.206   5.906 -0.0843 -0.3338  0.0864
  887loPI   GL213174  17.377   7.394   6.331  0.3115  0.2733 -0.0494
  887loPI   C1A13175  17.592   6.936   6.237 -0.3055  0.1468  0.0934
  887loPI   C2A13176  17.548   6.691   6.473 -0.2148  0.2690 -0.0677
  887loPI   C3A13177  17.291   6.513   6.885 -0.2489  0.3444 -0.0029
  887loPI   C4A13178  17.262   6.713   7.290 -0.4421 -0.0039 -0.2969
  887loPI   C5A13179  17.442   6.647   7.706  0.1300  0.3672 -0.0835
  887loPI   C6A13180  17.328   6.549   8.121 -0.0377 -0.1256 -0.0362
  887loPI   C1B13181  17.710   7.183   6.683 -0.0957  0.1776  0.1405
  887loPI   C2B13182  17.737   6.907   6.914 -0.1039 -0.0957 -0.1342
  887loPI   C3B13183  17.717   6.785   7.308 -0.1290  0.0986 -0.0581
  887loPI   C4B13184  17.851   6.906   7.700 -0.0150 -0.1012  0.2126
  888loPI    C113185  12.152  10.343   5.813 -0.0672 -0.0354  0.0351
  888loPI    C213186  12.235  10.443   5.435  0.0296  0.1546  0.1056
  888loPI    C313187  12.000  10.129   5.512 -0.0717  0.1756 -0.1141
  888loPI   PO413188  12.397  10.332   5.932  0.0331 -0.1385  0.4949
  888loPI   GL113189  12.468  10.201   6.249  0.0448 -0.1119 -0.4035
  888loPI   GL213190  12.164  10.449   6.323  0.0430  0.0025  0.1205
  888loPI   C1A13191  12.747  10.038   6.628  0.0219 -0.6293 -0.1911
  888loPI   C2A13192  12.932  10.221   7.042 -0.0233 -0.1087  0.1155
  888loPI   C3A13193  13.095  10.226   7.506  0.2209 -0.3364  0.1941
  888loPI   C4A13194  13.571  10.241   7.606  0.0241 -0.1208 -0.1245
  888loPI   C5A13195  13.631  10.368   7.921 -0.2422 -0.2514 -0.4734
  888loPI   C6A13196  13.698  10.594   8.218  0.2096 -0.0211 -0.0199
  888loPI   C1B13197  12.300  10.293   6.769  0.0984 -0.0803 -0.2641
  888loPI   C2B13198  12.437  10.349   7.306  0.2389  0.0802  0.1807
  888loPI   C3B13199  12.646  10.323   7.713  0.0448  0.0113 -0.1738
  888loPI   C4B13200  12.420  10.337   8.096  0.1038  0.1893  0.2055
  889loPI    C113201  13.191   7.933   5.433  0.2223 -0.1388 -0.1699
  889loPI    C213202  13.443   7.629   5.372  0.0010 -0.3102 -0.2403
  889loPI    C313203  13.303   7.839   5.061 -0.0049 -0.2657 -0.2076
  889loPI   PO413204  13.249   7.969   5.676  0.0464  0.2002  0.0014
  889loPI   GL113205  13.384   7.874   6.090 -0.2435  0.2295  0.0231
  889loPI   GL213206  13.665   7.702   5.970 -0.0560 -0.1534 -0.1179
  889loPI   C1A13207  13.507   8.111   6.366  0.2136 -0.0102  0.0038
  889loPI   C2A13208  13.661   8.190   6.740 -0.1939 -0.0893 -0.2004
  889loPI   C3A13209  13.581   8.174   7.155  0.3162 -0.3236  0.3255
  889loPI   C4A13210  13.791   8.293   7.512  0.1785  0.0713 -0.0018
  889loPI   C5A13211  14.143   8.315   7.743  0.0367 -0.0228 -0.3538
  889loPI   C6A13212  14.244   8.157   8.181 -0.0580  0.2068  0.1347
  889loPI   C1B13213  13.672   7.664   6.460  0.2446  0.2002  0.1294
  889loPI   C2B13214  13.720   7.704   6.965  0.2107 -0.3631  0.0935
  889loPI   C3B13215  13.736   7.551   7.382 -0.0981  0.1087 -0.0459
  889loPI   C4B13216  13.866   7.357   7.710 -0.1505  0.1880  0.3900
  890loPI    C113217   3.284  10.114   5.220  0.0990 -0.1878 -0.0989
  890loPI    C213218   3.570  10.044   4.949 -0.0398  0.0245 -0.3053
  890loPI    C313219   3.198   9.910   4.887 -0.0126 -0.1582 -0.0887
  890loPI   PO413220   3.356   9.911   5.445  0.1318  0.0957 -0.1822
  890loPI   GL113221   3.353   9.855   5.914  0.1108  0.2311 -0.2694
  890loPI   GL213222   3.729   9.981   5.891 -0.1775 -0.3230  0.1458
  890loPI   C1A13223   3.327   9.928   6.362  0.1369 -0.3935  0.3648
  890loPI   C2A13224   3.385   9.940   6.741 -0.1606  0.1188  0.2687
  890loPI   C3A13225   3.367  10.001   7.192  0.4166  0.3958  0.0771
  890loPI   C4A13226   3.339  10.176   7.580 -0.1140  0.1579 -0.0053
  890loPI   C5A13227   3.218  10.609   7.680  0.1361  0.0910  0.0179
  890loPI   C6A13228   3.085  11.049   7.699  0.2321  0.0936  0.1897
  890loPI   C1B13229   3.809   9.906   6.372 -0.1995 -0.2771 -0.0297
  890loPI   C2B13230   3.976  10.145   6.795  0.2054 -0.2361 -0.0586
  890loPI   C3B13231   4.207  10.421   6.983  0.3094 -0.1969 -0.2817
  890loPI   C4B13232   4.101  10.702   7.191  0.2184  0.1291 -0.0864
  891loPI    C113233   2.359  10.398   5.097 -0.1229  0.0985 -0.0533
  891loPI    C213234   2.038  10.548   4.911 -0.0181  0.0598 -0.2685
  891loPI    C313235   2.293  10.312   4.712 -0.0957 -0.2782  0.0223
  891loPI   PO413236   2.297  10.395   5.342 -0.2088 -0.1001  0.0675
  891loPI   GL113237   2.400  10.183   5.692  0.0686 -0.0859 -0.1311
  891loPI   GL213238   2.121  10.397   5.783  0.2072 -0.0360  0.0776
  891loPI   C1A13239   2.492  10.248   6.095  0.1279 -0.0036 -0.1749
  891loPI   C2A13240   2.399  10.249   6.489 -0.1476  0.0199  0.0955
  891loPI   C3A13241   2.497  10.281   6.943 -0.0909 -0.0254 -0.1409
  891loPI   C4A13242   2.600  10.197   7.421  0.2125 -0.1134  0.3399
  891loPI   C5A13243   2.751  10.369   7.648 -0.0397 -0.5837 -0.3266
  891loPI   C6A13244   2.779  10.552   8.068 -0.0854  0.0766  0.1830
  891loPI   C1B13245   2.018  10.502   6.196  0.0625  0.0953 -0.1777
  891loPI   C2B13246   2.015  10.553   6.605 -0.2967  0.1774 -0.2236
  891loPI   C3B13247   2.048  10.603   7.047  0.2292  0.0887  0.0726
  891loPI   C4B13248   2.035  10.576   7.401  0.2217  0.0222  0.2626
  892loPI    C113249  11.105  16.332   5.166  0.3977 -0.0126  0.1808
  892loPI    C213250  11.379  16.106   4.981  0.2271  0.1149 -0.2381
  892loPI    C313251  11.206  16.411   4.787 -0.0565  0.1695  0.0909
  892loPI   PO413252  11.181  16.357   5.374  0.1578 -0.0359 -0.0737
  892loPI   GL113253  11.148  16.256   5.709  0.0363 -0.2191 -0.0918
  892loPI   GL213254  10.886  16.468   5.839 -0.2777  0.0192  0.0609
  892loPI   C1A13255  11.165  16.114   6.081 -0.1461 -0.1986  0.1348
  892loPI   C2A13256  11.270  16.184   6.498 -0.4043 -0.0292  0.2686
  892loPI   C3A13257  11.376  16.408   6.772 -0.2570 -0.0828 -0.1702
  892loPI   C4A13258  11.335  16.754   7.108 -0.2943 -0.4262 -0.1462
  892loPI   C5A13259  11.163  17.133   7.293 -0.0911  0.0040  0.0745
  892loPI   C6A13260  10.682  17.275   7.367 -0.2426  0.1117  0.1428
  892loPI   C1B13261  10.853  16.545   6.250  0.1151 -0.4268 -0.1277
  892loPI   C2B13262  10.885  16.562   6.738  0.3096 -0.2067 -0.2698
  892loPI   C3B13263  10.974  16.437   7.178 -0.2327  0.0633  0.0801
  892loPI   C4B13264  11.217  16.266   7.484  0.1273  0.0476 -0.1224
  893loPI    C113265  15.620  17.439   5.425 -0.0096 -0.1583 -0.1326
  893loPI    C213266  15.440  17.668   5.151 -0.0886 -0.0045  0.0463
  893loPI    C313267  15.267  17.329   5.272 -0.1887  0.0683  0.1089
  893loPI   PO413268  15.687  17.567   5.633  0.0205 -0.1597 -0.1095
  893loPI   GL113269  15.685  17.367   6.019 -0.1309 -0.0050 -0.1233
  893loPI   GL213270  15.721  17.091   5.966  0.2991 -0.3883  0.0222
  893loPI   C1A13271  15.769  17.485   6.417 -0.3042 -0.0363 -0.4519
  893loPI   C2A13272  15.884  17.825   6.648  0.5325 -0.3165 -0.2100
  893loPI   C3A13273  15.953  17.754   7.092  0.2805  0.4435 -0.3776
  893loPI   C4A13274  15.981  17.656   7.512 -0.1132  0.1388  0.0541
  893loPI   C5A13275  15.703  17.652   7.753 -0.0121 -0.0636  0.0375
  893loPI   C6A13276  15.322  17.406   7.789 -0.1607 -0.2689  0.1048
  893loPI   C1B13277  15.441  16.969   6.266 -0.2068 -0.0365  0.2339
  893loPI   C2B13278  15.486  16.913   6.726 -0.0713 -0.2640  0.2170
  893loPI   C3B13279  15.499  16.879   7.151 -0.0252  0.0222  0.1673
  893loPI   C4B13280  15.526  16.621   7.505 -0.0842  0.1036  0.0343
  894loPI    C113281   3.452  16.577   5.277 -0.2189 -0.2181  0.1468
  894loPI    C213282   3.343  16.844   5.000  0.0145 -0.0783  0.1875
  894loPI    C313283   3.555  16.522   4.894 -0.3190 -0.2829  0.1287
  894loPI   PO413284   3.541  16.837   5.511 -0.0723  0.4360  0.0599
  894loPI   GL113285   3.648  16.774   5.990 -0.3202  0.0847  0.0059
  894loPI   GL213286   3.986  16.896   5.948 -0.2405 -0.0152  0.2402
  894loPI   C1A13287   3.611  16.773   6.425  0.2236 -0.2212 -0.2279
  894loPI   C2A13288   3.739  16.982   6.788 -0.2143  0.0295  0.0208
  894loPI   C3A13289   3.892  16.957   7.106  0.0390  0.2886 -0.2804
  894loPI   C4A13290   3.676  16.845   7.603  0.1878  0.0172  0.0272
  894loPI   C5A13291   3.700  16.546   7.874 -0.1645  0.2409  0.1692
  894loPI   C6A13292   4.193  16.599   7.987  0.1146  0.1859  0.2668
  894loPI   C1B13293   4.198  16.721   6.331  0.2015  0.2596 -0.0498
  894loPI   C2B13294   4.149  16.645   6.795 -0.0952 -0.0794 -0.1216
  894loPI   C3B13295   4.281  16.531   7.239 -0.0870 -0.1600  0.0313
  894loPI   C4B13296   4.157  16.716   7.539  0.1561 -0.1444  0.0875
  895loPI    C113297   4.378  10.853   5.348  0.0373  0.1137  0.1532
  895loPI    C213298   4.352  10.962   4.964 -0.0227  0.1114  0.1565
  895loPI    C313299   4.554  10.632   5.065 -0.2440 -0.0444  0.0982
  895loPI   PO413300   4.068  10.886   5.447 -0.3028  0.0795 -0.0658
  895loPI   GL113301   3.803  10.719   5.653 -0.2638 -0.1559 -0.0362
  895loPI   GL213302   3.963  10.491   5.816  0.1390  0.0318 -0.5089
  895loPI   C1A13303   3.908  10.905   6.129  0.0117  0.0230 -0.0070
  895loPI   C2A13304   3.949  11.317   6.431 -0.1482  0.2167  0.0486
  895loPI   C3A13305   3.932  11.480   6.826  0.1520 -0.2896 -0.2405
  895loPI   C4A13306   3.698  11.348   7.204 -0.0546 -0.1078  0.0010
  895loPI   C5A13307   3.409  11.399   7.516 -0.1464  0.0518 -0.1667
  895loPI   C6A13308   3.134  11.769   7.534 -0.0216 -0.0784  0.0886
  895loPI   C1B13309   4.044  10.474   6.306  0.1433 -0.2509 -0.2969
  895loPI   C2B13310   3.947  10.794   6.641 -0.1691 -0.0621 -0.1753
  895loPI   C3B13311   3.732  10.851   6.929 -0.0263 -0.0793 -0.1666
  895loPI   C4B13312   3.459  10.932   7.312 -0.1407  0.1137 -0.1604
  896loPI    C113313  13.380  14.811   5.588  0.3215  0.1146  0.0356
  896loPI    C213314  13.382  15.095   5.306  0.0935 -0.0392 -0.1243
  896loPI    C313315  13.480  14.719   5.211 -0.1631 -0.1295 -0.0417
  896loPI   PO413316  13.506  14.957   5.811 -0.2273 -0.0015 -0.3532
  896loPI   GL113317  13.569  15.357   6.061  0.2733  0.0721  0.0566
  896loPI   GL213318  13.327  15.205   6.147  0.1214  0.1615 -0.0138
  896loPI   C1A13319  13.424  15.510   6.493 -0.3601  0.0075  0.1316
  896loPI   C2A13320  13.320  15.809   6.689 -0.2468  0.0569  0.0170
  896loPI   C3A13321  13.272  15.838   7.058  0.5230  0.0452  0.0018
  896loPI   C4A13322  13.198  15.968   7.497 -0.1399 -0.2444  0.0055
  896loPI   C5A13323  13.513  15.931   7.832  0.2645  0.0089 -0.0766
  896loPI   C6A13324  13.756  16.292   8.010 -0.1510  0.1763  0.2425
  896loPI   C1B13325  13.748  15.091   6.465 -0.2134  0.1151  0.4887
  896loPI   C2B13326  13.814  15.069   6.945  0.1915 -0.0432  0.1662
  896loPI   C3B13327  13.799  15.322   7.361 -0.0594 -0.2177  0.4107
  896loPI   C4B13328  13.875  15.282   7.771  0.0434  0.1677  0.0742
  897loPI    C113329   8.308   4.677   5.256  0.1636 -0.0678 -0.1069
  897loPI    C213330   8.457   4.991   5.057  0.0366 -0.0703 -0.2078
  897loPI    C313331   8.243   4.715   4.863 -0.0253 -0.1126 -0.0807
  897loPI   PO413332   8.550   4.617   5.540 -0.0020 -0.1977  0.1829
  897loPI   GL113333   8.691   4.385   5.908  0.1234  0.1138  0.1021
  897loPI   GL213334   9.012   4.480   5.921 -0.3288  0.2738 -0.0953
  897loPI   C1A13335   8.598   4.267   6.343  0.2068 -0.3669  0.1314
  897loPI   C2A13336   8.474   4.269   6.744 -0.6208  0.0095  0.1792
  897loPI   C3A13337   8.415   4.377   7.170  0.2904  0.0368  0.1321
  897loPI   C4A13338   8.256   4.461   7.567  0.3830 -0.0117  0.2294
  897loPI   C5A13339   8.181   4.804   7.927  0.1862  0.1121  0.0444
  897loPI   C6A13340   8.043   5.193   8.158  0.2413 -0.0808 -0.1167
  897loPI   C1B13341   9.059   4.424   6.332 -0.1398  0.0342 -0.0021
  897loPI   C2B13342   9.011   4.325   6.724  0.1142 -0.4065  0.0311
  897loPI   C3B13343   9.034   4.473   7.172  0.1008  0.0707 -0.0552
  897loPI   C4B13344   8.980   4.841   7.422  0.1561 -0.0817  0.1342
  898loPI    C113345   7.320   3.060   5.272  0.0050  0.0758  0.1260
  898loPI    C213346   7.216   3.435   5.182 -0.0287  0.0595  0.0965
  898loPI    C313347   7.513   3.257   4.982 -0.1883 -0.0210 -0.0719
  898loPI   PO413348   7.352   3.025   5.568  0.3271 -0.4244  0.1785
  898loPI   GL113349   7.243   3.092   5.946 -0.1565 -0.3230 -0.1370
  898loPI   GL213350   6.885   3.195   6.004 -0.2875 -0.2627  0.3206
  898loPI   C1A13351   7.540   3.081   6.298 -0.2066  0.0771 -0.2631
  898loPI   C2A13352   7.620   3.128   6.694 -0.1474  0.2814 -0.3683
  898loPI   C3A13353   8.058   3.085   6.937  0.3948 -0.2944  0.2863
  898loPI   C4A13354   7.991   2.917   7.340  0.0399 -0.3055  0.0531
  898loPI   C5A13355   7.824   3.232   7.661  0.0404 -0.3263  0.0635
  898loPI   C6A13356   7.865   3.596   7.925  0.1919  0.1468 -0.0401
  898loPI   C1B13357   7.048   3.150   6.438  0.0513  0.3956 -0.0350
  898loPI   C2B13358   7.183   3.033   6.905  0.1918 -0.2741 -0.0142
  898loPI   C3B13359   6.880   3.044   7.282 -0.2142 -0.1030  0.0095
  898loPI   C4B13360   7.104   2.918   7.713 -0.1306 -0.4054 -0.1223
  899loPI    C113361   7.541   5.009   5.407  0.1201 -0.0266 -0.3054
  899loPI    C213362   7.255   5.249   5.264 -0.0600 -0.0391  0.0218
  899loPI    C313363   7.527   5.393   5.519  0.0665 -0.0924 -0.0815
  899loPI   PO413364   7.430   4.793   5.470 -0.0927  0.1403  0.0365
  899loPI   GL113365   7.389   4.674   5.842  0.0081 -0.4133  0.2235
  899loPI   GL213366   7.319   4.780   6.165  0.0664  0.2478  0.4070
  899loPI   C1A13367   7.702   4.534   6.067  0.0499 -0.1748  0.1998
  899loPI   C2A13368   7.603   4.326   6.422  0.0931  0.0714  0.0577
  899loPI   C3A13369   7.711   4.142   6.876 -0.4415  0.2594  0.2332
  899loPI   C4A13370   7.604   3.958   7.251 -0.0699 -0.0525 -0.0828
  899loPI   C5A13371   7.612   3.734   7.516 -0.1732  0.4013  0.2329
  899loPI   C6A13372   7.343   3.501   7.858 -0.0510 -0.0270  0.2335
  899loPI   C1B13373   7.628   4.804   6.561  0.1567  0.0039  0.0765
  899loPI   C2B13374   7.695   4.852   6.900 -0.1192  0.0877  0.2695
  899loPI   C3B13375   7.590   5.094   7.241 -0.3565  0.2814  0.1034
  899loPI   C4B13376   7.269   5.446   7.363 -0.0590 -0.0537 -0.3403
  900loPI    C113377   2.131  12.360   5.220  0.1826  0.1696  0.0358
  900loPI    C213378   1.944  12.454   4.879  0.4420  0.3683 -0.0547
  900loPI    C313379   2.074  12.081   4.939 -0.0815  0.1970  0.0603
  900loPI   PO413380   2.315  12.507   5.284  0.1467  0.1966  0.1580
  900loPI   GL113381   2.382  12.812   5.533 -0.2331 -0.0899  0.0985
  900loPI   GL213382   2.182  12.661   5.717 -0.1358 -0.3884  0.1705
  900loPI   C1A13383   2.578  13.014   5.840  0.0325  0.1072 -0.2710
  900loPI   C2A13384   2.731  12.992   6.317  0.0212 -0.0690  0.4263
  900loPI   C3A13385   2.816  13.032   6.716 -0.0656  0.0201 -0.2317
  900loPI   C4A13386   2.836  13.285   7.075 -0.0610  0.1228 -0.0736
  900loPI   C5A13387   2.967  13.454   7.476  0.2024 -0.0047 -0.2624
  900loPI   C6A13388   3.258  13.720   7.723 -0.1659 -0.2705  0.2331
  900loPI   C1B13389   2.140  12.899   6.071 -0.0603 -0.0657  0.0099
  900loPI   C2B13390   2.299  12.915   6.552  0.4310  0.1011 -0.0179
  900loPI   C3B13391   2.362  13.043   7.039 -0.0176  0.0835  0.2557
  900loPI   C4B13392   2.506  13.111   7.407 -0.0604 -0.1582 -0.0037
  901loPI    C113393   9.916  10.868   5.714  0.0121 -0.1914  0.0224
  901loPI    C213394  10.003  10.694   6.063 -0.1109  0.0034  0.1524
  901loPI    C313395   9.671  10.590   5.866 -0.0095 -0.1514  0.0606
  901loPI   PO413396   9.983  11.115   5.754 -0.1028  0.2583 -0.0296
  901loPI   GL113397  10.154  11.200   6.121  0.0964 -0.0160 -0.0703
  901loPI   GL213398  10.518  11.081   6.126 -0.1221  0.1413  0.2025
  901loPI   C1A13399  10.199  11.308   6.500 -0.1285  0.0529  0.1551
  901loPI   C2A13400  10.363  11.167   6.916  0.2557 -0.1289  0.1923
  901loPI   C3A13401  10.411  10.955   7.314 -0.3368  0.1489 -0.1820
  901loPI   C4A13402  10.412  10.679   7.593 -0.2069  0.1791 -0.2385
  901loPI   C5A13403  10.496  10.508   8.033  0.0428  0.3556 -0.1617
  901loPI   C6A13404  10.762  10.628   8.365 -0.0080  0.2120  0.0665
  901loPI   C1B13405  10.300  10.836   6.511 -0.0300 -0.2245 -0.1580
  901loPI   C2B13406  10.524  10.622   6.820 -0.3296  0.0101 -0.2103
  901loPI   C3B13407  10.673  10.546   7.225 -0.0181 -0.2529 -0.0147
  901loPI   C4B13408  10.864  10.766   7.493  0.1033  0.2838 -0.0737
  902loPI    C113409   0.805   7.233   5.226  0.2601  0.3335 -0.0267
  902loPI    C213410   0.526   7.381   4.981 -0.1198 -0.1658  0.0855
  902loPI    C313411   0.860   7.221   4.830 -0.0311  0.1521 -0.0650
  902loPI   PO413412   0.879   7.400   5.383 -0.4557  0.1854  0.0895
  902loPI   GL113413   0.963   7.475   5.814 -0.1479  0.1640 -0.0484
  902loPI   GL213414   0.803   7.257   5.920  0.1553  0.0886  0.2435
  902loPI   C1A13415   1.178   7.725   6.079  0.1718  0.0789 -0.2432
  902loPI   C2A13416   1.092   7.777   6.527 -0.2330 -0.0609 -0.0313
  902loPI   C3A13417   0.898   7.955   6.779  0.2067 -0.1017  0.1380
  902loPI   C4A13418   0.654   8.365   6.914 -0.1873 -0.0904 -0.1005
  902loPI   C5A13419   0.481   8.537   7.302 -0.2718  0.0920 -0.1889
  902loPI   C6A13420   0.439   8.574   7.729  0.1337 -0.1196  0.2683
  902loPI   C1B13421   0.842   7.400   6.343  0.0247 -0.0467  0.2246
  902loPI   C2B13422   0.651   7.435   6.743  0.4190  0.1759 -0.3359
  902loPI   C3B13423   0.192   7.325   7.040  0.1825  0.4596 -0.2710
  902loPI   C4B13424  -0.054   7.319   7.445 -0.0661 -0.0194 -0.1328
  903loPI    C113425  12.861  15.145   5.304 -0.2176 -0.1400  0.1252
  903loPI    C213426  12.942  14.760   5.228  0.1701 -0.0110 -0.1449
  903loPI    C313427  12.993  15.036   4.942  0.0130  0.2598  0.0830
  903loPI   PO413428  12.908  15.068   5.596  0.0874 -0.0210 -0.2397
  903loPI   GL113429  12.764  14.927   5.935 -0.1523 -0.3795  0.2972
  903loPI   GL213430  12.956  14.793   6.098 -0.2268  0.1333  0.3561
  903loPI   C1A13431  12.723  15.138   6.321 -0.1850  0.1938  0.1361
  903loPI   C2A13432  12.705  15.059   6.751  0.2534 -0.1758 -0.0253
  903loPI   C3A13433  12.845  15.040   7.216 -0.1705  0.2233  0.0222
  903loPI   C4A13434  12.693  15.215   7.528 -0.0645 -0.3845  0.0037
  903loPI   C5A13435  12.340  15.541   7.510 -0.2086  0.0808  0.0771
  903loPI   C6A13436  12.152  15.845   7.395  0.0105 -0.1079  0.1184
  903loPI   C1B13437  13.142  14.963   6.513  0.5803 -0.1992  0.1992
  903loPI   C2B13438  13.306  15.148   6.936  0.0382 -0.2348  0.0115
  903loPI   C3B13439  13.398  15.031   7.387 -0.1766 -0.0822 -0.2301
  903loPI   C4B13440  13.096  15.094   7.777  0.0421  0.1170  0.2104
  904loPI    C113441  16.063   1.789   5.182  0.0309  0.1399 -0.2400
  904loPI    C213442  16.455   1.777   5.104  0.0473  0.1388 -0.1579
  904loPI    C313443  16.204   1.542   4.900  0.1065  0.0319 -0.1089
  904loPI   PO413444  16.074   1.823   5.456  0.3476 -0.0798 -0.0173
  904loPI   GL113445  16.298   1.962   5.707  0.1684 -0.1368  0.1103
  904loPI   GL213446  16.441   1.676   5.704  0.2111 -0.2788  0.0526
  904loPI   C1A13447  16.207   2.012   6.146  0.0351  0.0683  0.1990
  904loPI   C2A13448  16.360   1.921   6.542  0.0258 -0.1142  0.0490
  904loPI   C3A13449  16.440   1.516   6.805 -0.2595  0.3154  0.1451
  904loPI   C4A13450  16.347   1.435   7.175 -0.0723  0.0191  0.0828
  904loPI   C5A13451  16.297   1.353   7.660  0.0502 -0.0050 -0.0103
  904loPI   C6A13452  16.122   1.613   7.942 -0.1631  0.0514  0.0585
  904loPI   C1B13453  16.452   1.520   6.164 -0.0303 -0.1026 -0.2175
  904loPI   C2B13454  16.419   1.196   6.481  0.0882  0.0395  0.0151
  904loPI   C3B13455  16.232   1.076   6.877  0.2668 -0.1111 -0.1881
  904loPI   C4B13456  16.096   0.985   7.280  0.2838 -0.2000 -0.0877
  905loPI    C113457  11.346   0.361   5.142 -0.2435  0.1195 -0.0223
  905loPI    C213458  11.280   0.052   4.897 -0.3412  0.1126  0.0123
  905loPI    C313459  11.468   0.378   4.762 -0.0850 -0.0290  0.0205
  905loPI   PO413460  11.284   0.348   5.371 -0.2429 -0.4387  0.0056
  905loPI   GL113461  11.242   0.208   5.765  0.0850  0.4271  0.3110
  905loPI   GL213462  11.473   0.047   5.743  0.0111  0.1549 -0.1888
  905loPI   C1A13463  11.204   0.105   6.175 -0.1623 -0.1287 -0.2476
  905loPI   C2A13464  11.321   0.040   6.446  0.3527 -0.0767 -0.0237
  905loPI   C3A13465  11.190   0.096   6.819  0.1218  0.2078 -0.1524
  905loPI   C4A13466  11.012   0.044   7.185 -0.2301  0.0518  0.1200
  905loPI   C5A13467  11.085   0.141   7.720  0.0661  0.1694 -0.1710
  905loPI   C6A13468  11.029   0.510   7.990 -0.4789  0.1566  0.1316
  905loPI   C1B13469  11.685  -0.130   6.107  0.2569  0.2294  0.0429
  905loPI   C2B13470  11.797  -0.185   6.528 -0.1500 -0.1554  0.0709
  905loPI   C3B13471  11.874  -0.075   6.884  0.0220 -0.0577 -0.1243
  905loPI   C4B13472  11.879  -0.079   7.322  0.3043 -0.1880  0.1703
  906loPI    C113473   1.595   8.196   5.192  0.1995 -0.0067  0.4410
  906loPI    C213474   1.827   7.911   5.349  0.1982 -0.2776 -0.0291
  906loPI    C313475   1.888   8.034   4.973 -0.0300  0.0926  0.0494
  906loPI   PO413476   1.586   8.340   5.434  0.2823 -0.0685 -0.0415
  906loPI   GL113477   1.375   8.774   5.590 -0.2545 -0.0450  0.0808
  906loPI   GL213478   1.094   8.796   5.576 -0.2051  0.1923 -0.0938
  906loPI   C1A13479   1.499   8.742   5.932  0.0604 -0.2957 -0.0672
  906loPI   C2A13480   1.382   8.668   6.406  0.2715  0.0266  0.0363
  906loPI   C3A13481   1.150   8.392   6.772  0.1095 -0.2577  0.2494
  906loPI   C4A13482   1.266   8.401   7.148  0.0718  0.1622  0.4635
  906loPI   C5A13483   0.908   8.247   7.450  0.3797 -0.2237  0.1257
  906loPI   C6A13484   0.589   7.948   7.741  0.1828 -0.3236  0.0305
  906loPI   C1B13485   1.023   8.717   5.975 -0.0430  0.1175 -0.0000
  906loPI   C2B13486   0.872   8.598   6.417  0.2138 -0.0860  0.0818
  906loPI   C3B13487   0.838   8.813   6.851 -0.2013 -0.2281  0.2710
  906loPI   C4B13488   0.904   8.725   7.279  0.0898  0.1344 -0.2688
  907loPI    C113489  16.544  15.834   5.736 -0.0658 -0.0954 -0.1750
  907loPI    C213490  16.686  15.599   5.445  0.0566 -0.1906 -0.0402
  907loPI    C313491  16.486  15.438   5.753  0.0587 -0.1074  0.0049
  907loPI   PO413492  16.742  15.987   5.752  0.1292  0.1076 -0.2306
  907loPI   GL113493  17.006  16.068   6.090  0.3105 -0.1132  0.0083
  907loPI   GL213494  16.870  15.721   6.151  0.0628 -0.1523  0.0020
  907loPI   C1A13495  16.938  16.188   6.492  0.2614 -0.1767 -0.1359
  907loPI   C2A13496  17.083  16.149   6.902  0.2193 -0.1069  0.0887
  907loPI   C3A13497  17.100  16.287   7.281  0.0043 -0.0123  0.2176
  907loPI   C4A13498  17.025  16.360   7.722 -0.3330 -0.0925  0.1086
  907loPI   C5A13499  17.143  16.550   8.073  0.1539 -0.2130  0.3740
  907loPI   C6A13500  17.367  16.384   8.471  0.0446 -0.0641 -0.0206
  907loPI   C1B13501  16.669  15.754   6.514  0.1036  0.1113  0.0476
  907loPI   C2B13502  16.801  15.699   6.924 -0.0557 -0.3241 -0.2297
  907loPI   C3B13503  16.900  15.626   7.293 -0.1935 -0.0239 -0.1562
  907loPI   C4B13504  17.002  15.318   7.574  0.4455 -0.2221 -0.1261
  908loPI    C113505   0.470   4.603   5.433  0.1198  0.1089  0.1393
  908loPI    C213506   0.154   4.447   5.244 -0.0037  0.4297  0.0756
  908loPI    C313507   0.521   4.394   5.095 -0.0529  0.2784  0.0061
  908loPI   PO413508   0.447   4.595   5.638 -0.0863  0.0799 -0.0358
  908loPI   GL113509   0.496   4.629   5.985 -0.0235  0.3641  0.2695
  908loPI   GL213510   0.142   4.721   6.115 -0.2016  0.2283  0.0495
  908loPI   C1A13511   0.548   4.627   6.402  0.3886 -0.1203  0.0003
  908loPI   C2A13512   0.440   4.581   6.827  0.0520 -0.0166 -0.1771
  908loPI   C3A13513   0.687   4.672   7.139 -0.2987 -0.3231  0.1482
  908loPI   C4A13514   0.781   4.866   7.541  0.1453  0.0831  0.1748
  908loPI   C5A13515   1.027   4.849   7.887  0.0774  0.0584  0.2272
  908loPI   C6A13516   1.429   4.718   8.208  0.0125  0.0063 -0.0519
  908loPI   C1B13517  -0.019   4.657   6.552 -0.1766  0.0275  0.1934
  908loPI   C2B13518  -0.026   4.547   6.949 -0.1867  0.0580 -0.1893
  908loPI   C3B13519   0.174   4.602   7.264  0.3206 -0.0084  0.0939
  908loPI   C4B13520   0.287   4.791   7.605 -0.1440 -0.0189  0.0687
  909loPI    C113521   3.905   2.463   5.144  0.0403 -0.2939  0.0552
  909loPI    C213522   4.047   2.171   4.911  0.2606 -0.1179 -0.0349
  909loPI    C313523   3.892   2.500   4.746  0.1153 -0.1343  0.0668
  909loPI   PO413524   3.814   2.320   5.349 -0.1762  0.0707 -0.0140
  909loPI   GL113525   3.823   2.362   5.802 -0.2232  0.1139 -0.1631
  909loPI   GL213526   4.124   2.230   5.855 -0.0764 -0.0119 -0.0531
  909loPI   C1A13527   3.754   2.193   6.201 -0.0306  0.2362 -0.1013
  909loPI   C2A13528   3.985   2.022   6.502  0.1680 -0.0026 -0.0070
  909loPI   C3A13529   4.102   2.080   6.901  0.3244 -0.2987  0.1735
  909loPI   C4A13530   4.137   1.987   7.260  0.0531 -0.0847  0.1723
  909loPI   C5A13531   4.116   2.117   7.643  0.2084 -0.0768  0.1983
  909loPI   C6A13532   4.289   2.090   8.024 -0.0747  0.0777  0.0615
  909loPI   C1B13533   4.389   2.190   6.261  0.0333 -0.1089 -0.1429
  909loPI   C2B13534   4.539   2.260   6.686  0.1750  0.2548 -0.0173
  909loPI   C3B13535   4.754   2.073   6.948  0.1516  0.0572 -0.1379
  909loPI   C4B13536   4.913   2.139   7.369 -0.1584 -0.1187 -0.4157
  910loPI    C113537  17.025  16.186   5.237  0.0256 -0.2535  0.0814
  910loPI    C213538  16.639  16.087   5.274 -0.0490  0.0010  0.0010
  910loPI    C313539  16.828  16.030   4.926  0.0264 -0.2549  0.0816
  910loPI   PO413540  17.134  16.085   5.467 -0.1744 -0.0852 -0.1383
  910loPI   GL113541  17.391  16.112   5.773  0.0153 -0.3405  0.1001
  910loPI   GL213542  17.692  16.242   5.666 -0.0558 -0.1874  0.1434
  910loPI   C1A13543  17.648  16.304   6.176  0.0182 -0.2090  0.0185
  910loPI   C2A13544  17.889  16.087   6.417 -0.2425 -0.3476 -0.2338
  910loPI   C3A13545  17.788  16.124   6.837  0.0336  0.3262  0.2050
  910loPI   C4A13546  17.565  16.088   7.171 -0.2614  0.2712  0.1062
  910loPI   C5A13547  17.563  15.842   7.574 -0.0198 -0.3015 -0.1612
  910loPI   C6A13548  17.493  15.495   7.835 -0.0711  0.0396  0.0664
  910loPI   C1B13549  18.021  16.078   5.932 -0.1468  0.0780 -0.0377
  910loPI   C2B13550  18.351  15.891   6.234  0.0065 -0.2070  0.0768
  910loPI   C3B13551  18.507  15.860   6.640  0.2652  0.0736  0.0675
  910loPI   C4B13552  18.462  15.949   7.078 -0.0791 -0.3302 -0.2327
  911loPI    C113553   4.085   5.117   5.576 -0.1308 -0.0322 -0.0219
  911loPI    C213554   3.972   4.734   5.548 -0.2278 -0.0028 -0.0367
  911loPI    C313555   3.762   4.988   5.774  0.0175 -0.0293  0.2273
  911loPI   PO413556   4.269   5.147   5.680  0.1258  0.1684 -0.2997
  911loPI   GL113557   4.413   5.049   6.131 -0.1937  0.2813  0.2137
  911loPI   GL213558   4.507   5.356   6.061  0.0015 -0.0117 -0.0576
  911loPI   C1A13559   4.247   4.951   6.500  0.0143 -0.0267  0.1003
  911loPI   C2A13560   4.072   5.015   6.918 -0.0420 -0.3515 -0.0467
  911loPI   C3A13561   4.085   4.999   7.416 -0.0028  0.0680  0.0792
  911loPI   C4A13562   4.434   4.932   7.732  0.0685  0.1228 -0.1212
  911loPI   C5A13563   4.491   5.208   8.024 -0.1311 -0.1116 -0.4019
  911loPI   C6A13564   4.482   5.315   8.384  0.2861 -0.1927 -0.0371
  911loPI   C1B13565   4.386   5.577   6.438  0.1596  0.2673 -0.1842
  911loPI   C2B13566   4.351   5.501   6.875  0.1766 -0.2254 -0.0218
  911loPI   C3B13567   4.556   5.098   7.061 -0.3320 -0.0357  0.4566
  911loPI   C4B13568   4.375   4.661   7.049  0.1527  0.0720 -0.0883
  912loPI    C113569   9.608   0.384   5.117 -0.0604 -0.0982 -0.0708
  912loPI    C213570   9.230   0.333   4.995 -0.0768 -0.0853 -0.0258
  912loPI    C313571   9.373   0.702   5.053 -0.0631 -0.0908 -0.0247
  912loPI   PO413572   9.646   0.278   5.295  0.0668  0.2021 -0.2885
  912loPI   GL113573   9.482   0.165   5.693  0.0558  0.1583 -0.3606
  912loPI   GL213574   9.214   0.119   5.926 -0.0345  0.0426 -0.3423
  912loPI   C1A13575   9.735   0.469   5.979  0.0940 -0.0897 -0.1040
  912loPI   C2A13576   9.983   0.852   6.045  0.2158  0.1585  0.2635
  912loPI   C3A13577   9.940   1.237   6.237 -0.3324 -0.0870  0.1135
  912loPI   C4A13578   9.675   1.634   6.133 -0.0883 -0.0756  0.1093
  912loPI   C5A13579   9.862   2.090   6.074 -0.2680  0.4354  0.0935
  912loPI   C6A13580   9.860   2.440   6.202 -0.0579  0.1944  0.2616
  912loPI   C1B13581   9.425   0.234   6.329  0.0389  0.3286  0.1924
  912loPI   C2B13582   9.303   0.482   6.602  0.2058 -0.0590  0.1768
  912loPI   C3B13583   9.127   0.444   7.033  0.0155  0.1570 -0.1580
  912loPI   C4B13584   8.875   0.659   7.275  0.0946 -0.2288 -0.2029
  913loPI    C113585   6.909   7.248   5.392  0.1592  0.0000  0.1003
  913loPI    C213586   6.668   7.015   5.173 -0.0360  0.1359  0.1675
  913loPI    C313587   6.731   7.395   5.065  0.3078  0.0465  0.0395
  913loPI   PO413588   6.955   6.983   5.634  0.1550  0.2864 -0.1339
  913loPI   GL113589   6.730   6.721   6.016 -0.1439  0.1635 -0.2754
  913loPI   GL213590   6.399   6.668   6.191 -0.1024 -0.0421 -0.0564
  913loPI   C1A13591   6.770   7.047   6.334 -0.0003  0.2588  0.1611
  913loPI   C2A13592   6.820   7.072   6.753  0.3389  0.1654  0.0983
  913loPI   C3A13593   6.678   7.285   7.090  0.3039 -0.1141 -0.0096
  913loPI   C4A13594   6.517   7.360   7.370  0.0625  0.0601  0.1194
  913loPI   C5A13595   6.370   7.461   7.678 -0.0945 -0.0142 -0.1847
  913loPI   C6A13596   5.813   7.448   7.956 -0.2225  0.2024  0.1715
  913loPI   C1B13597   6.567   6.430   6.480  0.2096  0.0909  0.1992
  913loPI   C2B13598   6.673   6.607   6.878 -0.2945  0.0570  0.1191
  913loPI   C3B13599   6.680   6.824   7.250  0.0459  0.0469  0.0162
  913loPI   C4B13600   6.744   6.999   7.743  0.1918 -0.2254  0.3252
  914loPI    C113601  14.968  13.099   5.417 -0.0908  0.2534 -0.0417
  914loPI    C213602  14.968  13.074   5.018 -0.1398 -0.0372 -0.0256
  914loPI    C313603  14.706  12.860   5.232  0.0620 -0.0885  0.1735
  914loPI   PO413604  15.099  13.373   5.451 -0.1816  0.2799 -0.1141
  914loPI   GL113605  15.138  13.457   5.824  0.3067 -0.0762 -0.2761
  914loPI   GL213606  14.848  13.196   5.930 -0.1441  0.2339  0.1774
  914loPI   C1A13607  15.147  13.551   6.265  0.0541 -0.2343 -0.0139
  914loPI   C2A13608  15.482  13.642   6.594 -0.5477  0.0941 -0.0151
  914loPI   C3A13609  15.515  13.662   6.963 -0.1521  0.0815  0.0476
  914loPI   C4A13610  15.315  13.999   7.169  0.0066 -0.0285  0.1509
  914loPI   C5A13611  15.435  14.075   7.589  0.0391 -0.3501 -0.0084
  914loPI   C6A13612  15.480  14.214   7.970 -0.3828 -0.2108 -0.0967
  914loPI   C1B13613  14.738  13.266   6.390 -0.0167 -0.2021 -0.2767
  914loPI   C2B13614  14.794  13.520   6.591  0.1166 -0.0685 -0.1298
  914loPI   C3B13615  15.013  13.549   7.013  0.0784  0.2580  0.0034
  914loPI   C4B13616  14.932  13.818   7.439 -0.1999  0.1637 -0.4363
  915loPI    C113617  11.564  18.069   5.121  0.1488 -0.0794  0.0021
  915loPI    C213618  11.558  18.079   4.721 -0.0972  0.1540  0.0087
  915loPI    C313619  11.384  17.776   4.916  0.2732 -0.1109 -0.0628
  915loPI   PO413620  11.827  18.017   5.239 -0.1614  0.1818 -0.2730
  915loPI   GL113621  11.935  17.916   5.575 -0.1946 -0.2253  0.1057
  915loPI   GL213622  11.974  18.214   5.726 -0.0264  0.0629  0.0925
  915loPI   C1A13623  11.795  17.737   5.956  0.0398  0.0182 -0.2468
  915loPI   C2A13624  11.717  17.684   6.356  0.0182 -0.0123  0.0199
  915loPI   C3A13625  11.826  17.776   6.825 -0.1329 -0.2842  0.0583
  915loPI   C4A13626  12.137  17.859   7.154 -0.0013 -0.1259  0.3242
  915loPI   C5A13627  12.180  17.999   7.569  0.0228  0.1673 -0.1223
  915loPI   C6A13628  11.988  18.064   7.924  0.3918 -0.2774  0.2035
  915loPI   C1B13629  12.170  18.061   6.067 -0.1294 -0.0954 -0.1493
  915loPI   C2B13630  12.233  17.962   6.469  0.1382  0.2523 -0.0948
  915loPI   C3B13631  12.374  18.240   6.896 -0.0406 -0.2421  0.0082
  915loPI   C4B13632  12.481  18.402   7.251  0.0610  0.0015 -0.1854
  916loPI    C113633  10.182  17.929   5.591  0.0710 -0.4259 -0.1441
  916loPI    C213634  10.272  17.788   5.228  0.0423 -0.2040 -0.2389
  916loPI    C313635  10.266  18.183   5.293 -0.1229 -0.2378 -0.0415
  916loPI   PO413636   9.982  17.674   5.634 -0.2243  0.0604 -0.1869
  916loPI   GL113637   9.669  17.439   5.893  0.1909 -0.2988 -0.2104
  916loPI   GL213638  10.047  17.490   6.087  0.3116  0.2206 -0.2054
  916loPI   C1A13639   9.726  17.307   6.387  0.0236  0.1869 -0.0229
  916loPI   C2A13640   9.708  17.204   6.714  0.0149 -0.2004 -0.2351
  916loPI   C3A13641   9.673  17.312   7.017 -0.1223 -0.3849 -0.2168
  916loPI   C4A13642   9.719  17.505   7.376 -0.1051  0.1537 -0.2466
  916loPI   C5A13643   9.879  17.597   7.769 -0.3822 -0.0278 -0.0952
  916loPI   C6A13644  10.221  17.860   7.948  0.3283  0.0821  0.1989
  916loPI   C1B13645   9.931  17.861   6.406 -0.0681 -0.1452  0.0607
  916loPI   C2B13646   9.792  18.179   6.680  0.0395  0.0747 -0.1621
  916loPI   C3B13647   9.988  18.326   7.018  0.1495 -0.0950 -0.2531
  916loPI   C4B13648  10.014  18.641   7.285  0.4518 -0.2034  0.0319
  917loPI    C113649  17.452  18.189   5.071  0.1345  0.1266  0.2277
  917loPI    C213650  17.500  17.989   4.728  0.0797  0.4540  0.0253
  917loPI    C313651  17.633  18.365   4.761 -0.1491  0.5156  0.2762
  917loPI   PO413652  17.469  17.952   5.280  0.2589  0.2129  0.2105
  917loPI   GL113653  17.617  17.919   5.755 -0.1592  0.1900  0.0982
  917loPI   GL213654  17.824  17.686   5.791  0.0098 -0.4353 -0.1444
  917loPI   C1A13655  17.706  18.163   6.096  0.2425 -0.1713 -0.0449
  917loPI   C2A13656  17.781  18.253   6.511 -0.1025  0.0411  0.1155
  917loPI   C3A13657  17.681  18.132   6.971 -0.0967 -0.1410 -0.2473
  917loPI   C4A13658  17.628  18.379   7.413  0.1100 -0.2503 -0.1100
  917loPI   C5A13659  17.785  18.640   7.813  0.0305 -0.0594  0.1844
  917loPI   C6A13660  17.934  19.065   7.920  0.3150 -0.1084 -0.1640
  917loPI   C1B13661  17.910  17.723   6.194  0.0939 -0.1566  0.0203
  917loPI   C2B13662  18.058  17.752   6.603 -0.3063  0.0676  0.0296
  917loPI   C3B13663  18.099  17.774   6.949  0.0223 -0.1073  0.0579
  917loPI   C4B13664  17.980  18.065   7.379 -0.0203  0.0892  0.1181
  918loPI    C113665   8.839   3.636   5.357  0.2415 -0.4077  0.0697
  918loPI    C213666   8.983   3.529   5.000  0.0844  0.1589 -0.1741
  918loPI    C313667   9.040   3.901   5.135 -0.3829  0.1317  0.1187
  918loPI   PO413668   8.936   3.490   5.584 -0.2016  0.3045 -0.1115
  918loPI   GL113669   8.672   3.109   5.759  0.2797  0.2863 -0.1314
  918loPI   GL213670   8.564   3.389   5.942  0.1021 -0.0546 -0.0534
  918loPI   C1A13671   8.783   3.030   6.189  0.0706 -0.0234  0.5066
  918loPI   C2A13672   8.551   3.090   6.553  0.1779  0.1780 -0.0139
  918loPI   C3A13673   8.478   2.842   6.857 -0.1213  0.1446 -0.0713
  918loPI   C4A13674   8.455   2.656   7.266 -0.1605 -0.0307  0.2545
  918loPI   C5A13675   8.226   2.310   7.519  0.0437 -0.0340 -0.1522
  918loPI   C6A13676   8.051   1.956   7.383  0.1555  0.1520  0.0686
  918loPI   C1B13677   8.400   3.539   6.378 -0.0153  0.1805 -0.2694
  918loPI   C2B13678   8.489   3.480   6.838  0.2335  0.0029  0.1828
  918loPI   C3B13679   8.284   3.539   7.129  0.0523  0.3785 -0.1006
  918loPI   C4B13680   8.245   3.534   7.584  0.3212 -0.0838  0.0109
  919loPI    C113681   3.740  14.355   5.276 -0.0017 -0.0425  0.0704
  919loPI    C213682   3.488  14.664   5.245  0.2021  0.1154 -0.0439
  919loPI    C313683   3.484  14.374   4.969 -0.1292 -0.0931  0.1729
  919loPI   PO413684   3.666  14.116   5.470  0.1572 -0.0349  0.0163
  919loPI   GL113685   3.693  14.040   5.838  0.1432  0.1874  0.1769
  919loPI   GL213686   4.033  13.941   5.981 -0.0557  0.1443 -0.2082
  919loPI   C1A13687   3.497  14.155   6.237 -0.0045 -0.0166 -0.0468
  919loPI   C2A13688   3.509  14.227   6.662  0.1235  0.4584  0.2252
  919loPI   C3A13689   3.526  14.348   6.972 -0.1177  0.1044  0.0265
  919loPI   C4A13690   3.601  14.572   7.360 -0.0217 -0.0584  0.0509
  919loPI   C5A13691   3.704  14.670   7.722  0.0159 -0.0428  0.1040
  919loPI   C6A13692   3.917  14.907   8.011 -0.0625  0.5057  0.2133
  919loPI   C1B13693   3.950  13.956   6.370  0.0998  0.0369 -0.0731
  919loPI   C2B13694   3.927  14.022   6.797 -0.2731 -0.1971 -0.0548
  919loPI   C3B13695   3.879  14.068   7.263 -0.0535  0.0818 -0.1795
  919loPI   C4B13696   3.997  14.185   7.659 -0.3170 -0.0396  0.2767
  920loPI    C113697   8.152   9.050   5.302  0.2578 -0.0921 -0.0598
  920loPI    C213698   8.066   8.719   5.095  0.3208 -0.1913  0.0706
  920loPI    C313699   8.267   9.018   4.921  0.1680 -0.1751 -0.0804
  920loPI   PO413700   8.015   9.105   5.536  0.4037 -0.2404  0.1369
  920loPI   GL113701   8.173   9.041   6.018  0.1275  0.0860  0.1511
  920loPI   GL213702   8.459   8.969   6.053 -0.1958 -0.2900 -0.1436
  920loPI   C1A13703   8.067   9.137   6.439  0.1298 -0.2524 -0.3408
  920loPI   C2A13704   8.085   9.063   6.891 -0.1537 -0.2756  0.0370
  920loPI   C3A13705   7.915   8.898   7.311 -0.2125 -0.1467  0.0598
  920loPI   C4A13706   7.851   8.886   7.772 -0.0013 -0.2243 -0.0311
  920loPI   C5A13707   7.717   8.821   8.232 -0.1687  0.1566  0.1222
  920loPI   C6A13708   7.707   8.401   8.538 -0.0628  0.0286 -0.1817
  920loPI   C1B13709   8.442   8.832   6.448 -0.0600 -0.0195  0.0262
  920loPI   C2B13710   8.547   8.842   6.857 -0.1799 -0.2040  0.1065
  920loPI   C3B13711   8.641   8.540   7.077  0.1759  0.0596  0.0237
  920loPI   C4B13712   8.803   8.506   7.429  0.0664  0.2067 -0.0507
  921loPI    C113713   8.480   1.467   5.086 -0.1806 -0.1256  0.1211
  921loPI    C213714   8.556   1.680   5.416  0.1520  0.0257 -0.0480
  921loPI    C313715   8.471   1.867   5.073  0.0830 -0.1244 -0.1134
  921loPI   PO413716   8.769   1.220   5.233 -0.0897  0.1216 -0.0362
  921loPI   GL113717   8.839   1.292   5.626  0.3790 -0.1920 -0.2959
  921loPI   GL213718   8.714   0.963   5.749 -0.2889 -0.1473 -0.5469
  921loPI   C1A13719   8.431   1.407   5.904  0.2211 -0.2760 -0.2516
  921loPI   C2A13720   8.225   1.331   6.312  0.2396  0.1666 -0.0386
  921loPI   C3A13721   8.260   1.267   6.828  0.1721 -0.2079  0.0506
  921loPI   C4A13722   8.399   1.451   7.235  0.1661  0.1407 -0.0981
  921loPI   C5A13723   8.443   1.715   7.634  0.0677  0.0069 -0.2142
  921loPI   C6A13724   8.448   2.125   7.951  0.0635 -0.0487 -0.3292
  921loPI   C1B13725   8.644   0.964   6.174 -0.1107 -0.1491 -0.0638
  921loPI   C2B13726   8.664   0.967   6.508 -0.0154 -0.3382 -0.1736
  921loPI   C3B13727   8.699   1.006   6.872  0.0192 -0.1227 -0.1877
  921loPI   C4B13728   8.416   0.914   7.213 -0.2429 -0.0513 -0.1501
  922loPI    C113729   0.340  17.639   5.371  0.0928  0.1157 -0.1826
  922loPI    C213730   0.359  17.633   4.972  0.3227  0.2625 -0.1756
  922loPI    C313731   0.531  17.341   5.185 -0.2220 -0.0853 -0.1921
  922loPI   PO413732   0.425  17.939   5.526  0.2758  0.0949 -0.0034
  922loPI   GL113733   0.698  18.080   5.824  0.5964  0.1016  0.0316
  922loPI   GL213734   0.431  18.045   5.990 -0.0678  0.2101 -0.1244
  922loPI   C1A13735   0.826  18.094   6.286  0.0072 -0.0862  0.3371
  922loPI   C2A13736   0.766  18.122   6.697  0.1237  0.1939  0.0865
  922loPI   C3A13737   0.786  18.057   7.064  0.0082 -0.0791 -0.2588
  922loPI   C4A13738   0.651  17.765   7.493 -0.1727  0.0379 -0.0714
  922loPI   C5A13739   0.421  17.854   7.835 -0.2554 -0.0080 -0.0045
  922loPI   C6A13740   0.063  18.032   8.128 -0.1935  0.0145 -0.0627
  922loPI   C1B13741   0.347  17.973   6.468  0.2235 -0.1394 -0.3154
  922loPI   C2B13742   0.297  17.936   6.853 -0.0350  0.0221  0.0062
  922loPI   C3B13743   0.241  17.952   7.324 -0.0435  0.0415 -0.1064
  922loPI   C4B13744   0.153  18.243   7.593  0.1315 -0.0503 -0.0392
  923loPI    C113745   1.892  10.092   4.890 -0.2044 -0.1592  0.1500
  923loPI    C213746   1.580  10.016   4.651 -0.1140 -0.1873  0.0402
  923loPI    C313747   1.943  10.077   4.494 -0.0813 -0.0633  0.1617
  923loPI   PO413748   1.908   9.869   5.069  0.3117  0.2560  0.0220
  923loPI   GL113749   1.723   9.667   5.437  0.0671  0.0137  0.0224
  923loPI   GL213750   2.030   9.882   5.620  0.0827  0.2873  0.0701
  923loPI   C1A13751   1.541   9.610   5.756  0.1105 -0.0739 -0.0020
  923loPI   C2A13752   1.553   9.574   6.232  0.1076  0.1915 -0.0801
  923loPI   C3A13753   1.464   9.425   6.635 -0.0734  0.1463 -0.0284
  923loPI   C4A13754   1.599   9.334   7.110  0.2278 -0.0277 -0.0645
  923loPI   C5A13755   1.686   9.578   7.347  0.0056 -0.0873 -0.0099
  923loPI   C6A13756   1.574   9.738   7.709  0.0662 -0.2676 -0.2666
  923loPI   C1B13757   1.881   9.935   5.969 -0.2768  0.2045 -0.1711
  923loPI   C2B13758   1.883  10.057   6.465 -0.0449  0.1709 -0.0118
  923loPI   C3B13759   1.860  10.179   6.885  0.2095  0.1346  0.0169
  923loPI   C4B13760   1.756  10.057   7.272  0.0596  0.0941  0.4943
  924loPI    C113761  17.792   4.624   5.122  0.1266 -0.0310 -0.0898
  924loPI    C213762  17.923   5.000   5.166  0.1841 -0.0808  0.1881
  924loPI    C313763  18.167   4.718   5.020  0.1228 -0.0004 -0.0755
  924loPI   PO413764  17.736   4.505   5.325  0.1437  0.1658  0.2387
  924loPI   GL113765  17.775   4.415   5.715  0.0444  0.1653 -0.0297
  924loPI   GL213766  17.927   4.117   5.834  0.1405  0.1344 -0.1795
  924loPI   C1A13767  17.507   4.440   6.014  0.0593 -0.1249  0.0221
  924loPI   C2A13768  17.258   4.436   6.314 -0.1185 -0.1482 -0.0146
  924loPI   C3A13769  17.204   4.245   6.728 -0.3592 -0.1658 -0.1126
  924loPI   C4A13770  17.046   4.167   7.090  0.2451  0.4021  0.0475
  924loPI   C5A13771  16.944   4.120   7.488 -0.0925  0.3210  0.1754
  924loPI   C6A13772  16.773   4.454   7.724  0.2672 -0.1967 -0.1288
  924loPI   C1B13773  17.721   4.092   6.276 -0.1294  0.0338 -0.1726
  924loPI   C2B13774  17.807   3.914   6.724 -0.0200  0.1101 -0.1872
  924loPI   C3B13775  17.803   3.737   7.165  0.1444 -0.2562  0.3315
  924loPI   C4B13776  18.222   3.783   7.431 -0.0597 -0.2298 -0.2842
  925loPI    C113777  14.065   6.348   5.366 -0.1174  0.1129 -0.0698
  925loPI    C213778  14.371   6.497   5.155 -0.0201 -0.0351 -0.0349
  925loPI    C313779  14.248   6.121   5.092  0.1947 -0.1776  0.3660
  925loPI   PO413780  14.102   6.423   5.638 -0.1212  0.1016 -0.3331
  925loPI   GL113781  14.137   6.893   5.950  0.1135 -0.0886 -0.2505
  925loPI   GL213782  14.425   6.721   5.936 -0.2044 -0.0569  0.2179
  925loPI   C1A13783  14.106   6.774   6.461  0.1461  0.2908 -0.2641
  925loPI   C2A13784  14.020   6.720   6.834  0.0820  0.0279  0.0836
  925loPI   C3A13785  13.791   6.688   7.196 -0.1309  0.0377 -0.1788
  925loPI   C4A13786  13.558   6.558   7.472  0.1953  0.1335  0.4454
  925loPI   C5A13787  13.455   6.424   7.914  0.0983 -0.0064 -0.1814
  925loPI   C6A13788  13.208   6.431   8.369  0.0806  0.0314  0.1235
  925loPI   C1B13789  14.596   6.690   6.365 -0.0703 -0.0033 -0.0872
  925loPI   C2B13790  14.841   6.622   6.762 -0.1162 -0.1365  0.1697
  925loPI   C3B13791  14.947   6.506   7.202 -0.2465 -0.1445 -0.1162
  925loPI   C4B13792  14.841   6.323   7.581  0.3049 -0.0295  0.0051
  926loPI    C113793   0.697  12.161   5.281  0.3208  0.1153 -0.2161
  926loPI    C213794   0.402  11.930   5.141  0.2132  0.0735  0.0725
  926loPI    C313795   0.701  12.040   4.900  0.1421 -0.1702 -0.1311
  926loPI   PO413796   0.750  12.018   5.612 -0.1205  0.0531 -0.0741
  926loPI   GL113797   0.665  12.228   5.999  0.0002 -0.1646 -0.2957
  926loPI   GL213798   0.479  11.916   6.070 -0.3440 -0.0730 -0.2743
  926loPI   C1A13799   0.983  12.100   6.325  0.2181  0.0660  0.0561
  926loPI   C2A13800   0.998  12.165   6.837  0.0806  0.3366  0.2528
  926loPI   C3A13801   0.889  11.979   7.207 -0.0882 -0.4319  0.1722
  926loPI   C4A13802   0.703  12.049   7.595 -0.0070 -0.0487 -0.2375
  926loPI   C5A13803   0.900  12.154   8.056  0.0087  0.1350  0.0152
  926loPI   C6A13804   1.273  12.135   8.293  0.4144 -0.1000  0.0523
  926loPI   C1B13805   0.474  11.919   6.487  0.3634  0.1707  0.0343
  926loPI   C2B13806   0.486  12.052   6.877  0.2212 -0.2725 -0.1244
  926loPI   C3B13807   0.454  11.889   7.232  0.0422  0.0911  0.1046
  926loPI   C4B13808   0.243  11.685   7.584  0.1472 -0.0752  0.0981
  927loPI    C113809  13.932   5.436   5.244 -0.0020  0.1457  0.0914
  927loPI    C213810  14.095   5.278   4.915 -0.1807  0.1782 -0.0139
  927loPI    C313811  14.052   5.675   4.946 -0.1169  0.1786  0.0709
  927loPI   PO413812  14.053   5.257   5.450 -0.0120  0.0118  0.1059
  927loPI   GL113813  13.967   4.995   5.607 -0.0089  0.2097  0.2451
  927loPI   GL213814  13.898   4.701   5.809  0.1130 -0.2877 -0.0158
  927loPI   C1A13815  13.782   5.149   6.034  0.2118 -0.2964  0.1807
  927loPI   C2A13816  13.684   5.182   6.505  0.3455  0.1561  0.2587
  927loPI   C3A13817  13.471   5.230   6.960 -0.0753 -0.0225 -0.0479
  927loPI   C4A13818  13.287   5.169   7.360  0.1799 -0.1125 -0.0871
  927loPI   C5A13819  13.017   4.901   7.640  0.0842  0.1495 -0.0998
  927loPI   C6A13820  12.628   4.814   7.664 -0.0864  0.3716  0.0148
  927loPI   C1B13821  13.923   4.694   6.324  0.1325 -0.3110  0.0520
  927loPI   C2B13822  13.869   4.773   6.715  0.1498  0.1479  0.3544
  927loPI   C3B13823  13.693   4.810   7.133 -0.0608  0.0602  0.0457
  927loPI   C4B13824  13.631   4.752   7.563 -0.0560  0.1655  0.3910
  928loPI    C113825  15.098   2.718   5.198 -0.0769 -0.0098 -0.0662
  928loPI    C213826  14.703   2.747   5.145 -0.0491  0.0297 -0.2608
  928loPI    C313827  14.942   2.678   4.832  0.0951 -0.0344 -0.1380
  928loPI   PO413828  15.110   2.670   5.443  0.1105  0.1123 -0.1805
  928loPI   GL113829  14.904   2.660   5.756  0.0332 -0.2276  0.2312
  928loPI   GL213830  15.107   2.941   5.920  0.0122 -0.1054 -0.2617
  928loPI   C1A13831  14.992   2.338   6.057  0.2680 -0.0754 -0.2632
  928loPI   C2A13832  15.138   2.293   6.444  0.2499  0.1377 -0.0487
  928loPI   C3A13833  15.313   2.078   6.822 -0.0983 -0.1088  0.1851
  928loPI   C4A13834  15.545   2.079   7.265 -0.1136 -0.2394  0.0910
  928loPI   C5A13835  15.514   2.192   7.563 -0.2676 -0.1082 -0.1327
  928loPI   C6A13836  15.831   2.478   7.693  0.2030  0.3981  0.0931
  928loPI   C1B13837  15.018   2.781   6.319 -0.0176 -0.0144 -0.0444
  928loPI   C2B13838  14.978   2.789   6.792 -0.2206  0.0259  0.0998
  928loPI   C3B13839  14.619   2.753   7.103 -0.3246 -0.0360 -0.4155
  928loPI   C4B13840  14.472   2.460   7.499 -0.0847 -0.0222 -0.2534
  929loPI    C113841  16.491  18.228   5.218  0.0089 -0.0231  0.1523
  929loPI    C213842  16.245  18.484   5.034 -0.0256  0.0918  0.3551
  929loPI    C313843  16.273  18.107   4.905  0.0171  0.1926  0.0608
  929loPI   PO413844  16.469  18.236   5.412  0.0149 -0.1773 -0.2244
  929loPI   GL113845  16.780  18.339   5.618  0.1624  0.0504 -0.0191
  929loPI   GL213846  17.082  18.331   5.503  0.1300 -0.0768 -0.1093
  929loPI   C1A13847  16.768  18.445   5.991  0.2656  0.1319  0.1309
  929loPI   C2A13848  16.754  18.713   6.364 -0.0510  0.2291 -0.1387
  929loPI   C3A13849  16.906  18.756   6.858 -0.0501 -0.0776  0.0029
  929loPI   C4A13850  17.036  18.487   7.243 -0.1318  0.0055  0.1093
  929loPI   C5A13851  16.645  18.429   7.593  0.0858  0.1231 -0.0331
  929loPI   C6A13852  16.676  18.366   7.928  0.1269  0.3599  0.3194
  929loPI   C1B13853  17.248  18.238   5.876  0.2074 -0.1296 -0.0856
  929loPI   C2B13854  17.028  18.067   6.266 -0.1546  0.0232 -0.0249
  929loPI   C3B13855  16.768  18.076   6.642  0.0868  0.2963 -0.1376
  929loPI   C4B13856  16.369  17.967   6.893 -0.1205 -0.0260  0.3206
  930loPI    C113857   6.893   1.640   5.407  0.3733 -0.2164  0.0957
  930loPI    C213858   7.115   1.528   5.093 -0.1077 -0.0431 -0.3200
  930loPI    C313859   6.718   1.476   5.086 -0.1409  0.0808  0.2130
  930loPI   PO413860   7.005   1.590   5.609  0.1906  0.0209  0.2241
  930loPI   GL113861   6.886   1.382   5.866  0.0363 -0.1940 -0.1692
  930loPI   GL213862   7.141   1.239   5.935  0.1794  0.0976  0.2823
  930loPI   C1A13863   6.806   1.077   6.254 -0.2130 -0.1127 -0.4810
  930loPI   C2A13864   6.836   1.005   6.567  0.2791 -0.0196 -0.3128
  930loPI   C3A13865   6.845   1.152   6.890  0.3060 -0.0101 -0.1621
  930loPI   C4A13866   6.808   1.114   7.337 -0.2277  0.0370 -0.0992
  930loPI   C5A13867   6.768   1.212   7.741  0.1026 -0.0985  0.0856
  930loPI   C6A13868   6.427   1.450   8.101  0.1932  0.3666 -0.1241
  930loPI   C1B13869   7.048   1.517   6.321  0.2112 -0.0083 -0.0271
  930loPI   C2B13870   7.071   1.612   6.893 -0.1058  0.0404  0.1722
  930loPI   C3B13871   6.908   1.560   7.289 -0.0850  0.0192  0.4212
  930loPI   C4B13872   6.929   1.738   7.682 -0.1370  0.1626 -0.0816
  931loPI    C113873  11.657   6.523   5.475  0.0190 -0.0254  0.4208
  931loPI    C213874  11.375   6.796   5.398 -0.1286 -0.2934 -0.0258
  931loPI    C313875  11.740   6.912   5.513 -0.2533  0.0795  0.0074
  931loPI   PO413876  11.639   6.363   5.714 -0.3240 -0.0043  0.0639
  931loPI   GL113877  11.576   6.323   6.115  0.0058 -0.1357 -0.1125
  931loPI   GL213878  11.292   6.156   6.246 -0.1117  0.1955 -0.2638
  931loPI   C1A13879  11.537   6.514   6.514  0.1998 -0.1254  0.0166
  931loPI   C2A13880  11.509   6.486   6.924  0.1249 -0.1964 -0.0022
  931loPI   C3A13881  11.498   6.473   7.339 -0.1580  0.0284 -0.2825
  931loPI   C4A13882  11.525   6.526   7.842 -0.1731 -0.0199  0.0033
  931loPI   C5A13883  11.292   6.518   8.204  0.0229  0.2100  0.2476
  931loPI   C6A13884  10.920   6.442   8.378 -0.0162 -0.1528  0.0416
  931loPI   C1B13885  11.169   6.077   6.664 -0.1093  0.2766 -0.0153
  931loPI   C2B13886  11.186   6.168   7.127 -0.1203  0.0064  0.1815
  931loPI   C3B13887  11.014   6.467   7.403  0.2374  0.1495 -0.5495
  931loPI   C4B13888  10.951   6.596   7.872  0.2101  0.2062  0.2608
  932loPI    C113889  15.294  15.702   5.374 -0.0656  0.1578 -0.1475
  932loPI    C213890  15.248  15.414   5.101  0.0669  0.0812 -0.0901
  932loPI    C313891  15.142  15.790   5.014 -0.0064  0.0352 -0.2030
  932loPI   PO413892  15.480  15.594   5.520  0.4636 -0.0790 -0.0131
  932loPI   GL113893  15.425  15.321   5.916 -0.1763 -0.1008  0.1149
  932loPI   GL213894  15.336  15.072   5.739 -0.0880 -0.1936  0.1020
  932loPI   C1A13895  15.762  15.487   6.276  0.0392  0.4622 -0.1557
  932loPI   C2A13896  15.812  15.428   6.754 -0.0556  0.1421 -0.0615
  932loPI   C3A13897  15.735  15.756   6.974 -0.0424  0.0288  0.3954
  932loPI   C4A13898  15.883  15.686   7.358 -0.1949 -0.1048  0.1498
  932loPI   C5A13899  15.691  15.602   7.769 -0.0357 -0.2992 -0.2492
  932loPI   C6A13900  15.722  15.308   8.176  0.0751 -0.0857  0.0243
  932loPI   C1B13901  15.114  15.066   6.242  0.2175 -0.0297  0.3111
  932loPI   C2B13902  15.102  14.910   6.790  0.0663 -0.3142 -0.1003
  932loPI   C3B13903  15.037  14.849   7.198  0.0845  0.0398  0.1880
  932loPI   C4B13904  14.837  14.770   7.592 -0.2726  0.1267 -0.1881
  933loPI    C113905   9.144   5.289   5.375 -0.0069 -0.1581 -0.0088
  933loPI    C213906   8.889   5.446   5.640 -0.2679 -0.2905 -0.1779
  933loPI    C313907   8.755   5.314   5.287  0.1008  0.0494 -0.4544
  933loPI   PO413908   9.355   5.201   5.509 -0.0649  0.1375 -0.2582
  933loPI   GL113909   9.301   5.006   5.935  0.0189  0.1327  0.0967
  933loPI   GL213910   9.092   4.904   6.165  0.4020 -0.0058 -0.0329
  933loPI   C1A13911   9.523   4.700   6.230 -0.2303  0.0120  0.2416
  933loPI   C2A13912   9.559   4.380   6.565  0.3131 -0.1379 -0.3537
  933loPI   C3A13913   9.485   4.336   7.086 -0.1855  0.1724  0.1756
  933loPI   C4A13914   9.417   4.156   7.526 -0.1018 -0.1589  0.0068
  933loPI   C5A13915   9.562   3.841   7.777 -0.1140  0.0860  0.1149
  933loPI   C6A13916   9.701   3.580   8.099  0.1492 -0.0202 -0.2919
  933loPI   C1B13917   9.221   4.810   6.632  0.1958 -0.1330 -0.0289
  933loPI   C2B13918   9.349   4.849   7.014  0.0575 -0.0564  0.0281
  933loPI   C3B13919   9.512   4.700   7.444 -0.0865  0.0430  0.0627
  933loPI   C4B13920   9.649   4.541   7.876 -0.1011 -0.2103 -0.0353
  934loPI    C113921   6.098   3.194   4.867 -0.1401 -0.2350 -0.2040
  934loPI    C213922   6.445   3.225   4.670 -0.1479 -0.0784 -0.1946
  934loPI    C313923   6.136   3.457   4.568 -0.0254  0.3040  0.2665
  934loPI   PO413924   6.044   3.342   5.187  0.2511  0.0393  0.0388
  934loPI   GL113925   5.856   3.510   5.550 -0.0215 -0.0080  0.2248
  934loPI   GL213926   5.893   3.300   5.841 -0.0087 -0.0257 -0.2233
  934loPI   C1A13927   6.092   3.832   5.879 -0.1173  0.1833  0.1826
  934loPI   C2A13928   6.164   3.992   6.339  0.0374  0.0860  0.1235
  934loPI   C3A13929   6.183   4.140   6.787 -0.1648  0.3095 -0.0282
  934loPI   C4A13930   6.124   4.044   7.222  0.0174 -0.0657 -0.0908
  934loPI   C5A13931   6.180   4.083   7.585 -0.2826  0.0238 -0.0709
  934loPI   C6A13932   6.133   3.733   7.922 -0.0578  0.0363 -0.1636
  934loPI   C1B13933   5.967   3.401   6.317 -0.1754 -0.0320 -0.1410
  934loPI   C2B13934   6.045   3.046   6.684 -0.1593 -0.4399  0.0697
  934loPI   C3B13935   6.015   2.725   6.910 -0.2097  0.1712 -0.4228
  934loPI   C4B13936   5.947   2.871   7.303 -0.2551 -0.0433  0.1350
  935loPI    C113937   2.389  17.263   5.150  0.0630 -0.2154  0.0293
  935loPI    C213938   2.360  16.902   4.981 -0.2504 -0.1198 -0.1275
  935loPI    C313939   2.455  17.220   4.758 -0.1704 -0.0734 -0.0276
  935loPI   PO413940   2.525  17.177   5.422  0.1067 -0.2525  0.1640
  935loPI   GL113941   2.467  16.925   5.775 -0.1633 -0.1214  0.1070
  935loPI   GL213942   2.281  17.117   6.052  0.0476 -0.1524  0.1430
  935loPI   C1A13943   2.747  16.834   6.085 -0.0229 -0.0881 -0.1088
  935loPI   C2A13944   2.915  16.710   6.612 -0.1659  0.1181  0.0977
  935loPI   C3A13945   3.237  16.490   6.814 -0.2873 -0.1489  0.1514
  935loPI   C4A13946   3.283  16.207   7.284  0.3890 -0.1549  0.1418
  935loPI   C5A13947   3.649  16.086   7.412  0.6840  0.2359 -0.4155
  935loPI   C6A13948   4.041  16.221   7.563 -0.0617 -0.0447 -0.0332
  935loPI   C1B13949   2.252  17.245   6.495 -0.1946  0.0295 -0.0430
  935loPI   C2B13950   2.292  17.344   6.978  0.0935 -0.2625  0.1284
  935loPI   C3B13951   2.314  17.634   7.320  0.1403  0.0741 -0.0881
  935loPI   C4B13952   2.416  17.646   7.748  0.0743  0.0855  0.0300
  936loPI    C113953  14.556   3.358   5.275 -0.2278 -0.0698  0.1775
  936loPI    C213954  14.285   3.586   5.087 -0.0036 -0.0754 -0.1612
  936loPI    C313955  14.585   3.757   5.290  0.2039 -0.0624 -0.4728
  936loPI   PO413956  14.403   3.224   5.423 -0.0311 -0.2878 -0.0896
  936loPI   GL113957  14.473   3.002   5.779 -0.1545  0.2261  0.3595
  936loPI   GL213958  14.431   2.741   5.677  0.1059 -0.0687  0.1778
  936loPI   C1A13959  14.664   3.121   6.187  0.2450  0.2566  0.4485
  936loPI   C2A13960  14.538   3.011   6.613 -0.3199 -0.2654  0.1464
  936loPI   C3A13961  14.419   3.230   6.955  0.1386  0.1827 -0.1429
  936loPI   C4A13962  14.583   3.294   7.390  0.0261 -0.0348  0.2262
  936loPI   C5A13963  14.447   3.257   7.801  0.2322  0.2693 -0.1646
  936loPI   C6A13964  14.083   3.186   8.029 -0.0566  0.2808  0.1263
  936loPI   C1B13965  14.576   2.618   6.111  0.1631 -0.1320 -0.1843
  936loPI   C2B13966  14.656   2.484   6.538  0.0676  0.1361 -0.1034
  936loPI   C3B13967  14.878   2.287   6.922  0.1973 -0.0378  0.1463
  936loPI   C4B13968  15.048   2.259   7.216  0.3008  0.0949  0.1177
  937loPI    C113969  17.154   9.203   4.931 -0.0906 -0.0728 -0.0650
  937loPI    C213970  16.882   9.196   4.639  0.0564  0.0707 -0.2074
  937loPI    C313971  17.270   9.155   4.551  0.0932  0.0100 -0.0206
  937loPI   PO413972  17.025   9.358   5.097  0.2314 -0.1132  0.2065
  937loPI   GL113973  16.881   9.310   5.463  0.0619 -0.1301  0.0802
  937loPI   GL213974  16.601   9.195   5.541  0.0014 -0.0818  0.0414
  937loPI   C1A13975  17.043   9.225   5.826 -0.1424  0.1610  0.1503
  937loPI   C2A13976  16.983   9.215   6.184  0.1030 -0.1940 -0.1598
  937loPI   C3A13977  17.089   9.466   6.532 -0.0928 -0.2900  0.0135
  937loPI   C4A13978  17.092   9.669   7.011  0.2989  0.1414 -0.0601
  937loPI   C5A13979  17.186   9.603   7.391 -0.0808 -0.0719  0.1994
  937loPI   C6A13980  17.424   9.750   7.792 -0.4132  0.0566  0.1158
  937loPI   C1B13981  16.514   9.081   5.989  0.1301 -0.1410 -0.1878
  937loPI   C2B13982  16.240   8.796   6.169  0.2831  0.0179  0.2655
  937loPI   C3B13983  16.234   8.839   6.617 -0.3644 -0.1347  0.1202
  937loPI   C4B13984  16.154   8.924   6.980 -0.2836  0.0751 -0.0546
  938loPI    C113985   3.377   8.063   5.212 -0.1156 -0.1059  0.0320
  938loPI    C213986   3.285   8.127   4.828 -0.0861 -0.3353 -0.0150
  938loPI    C313987   3.663   8.046   4.933 -0.0299  0.0595  0.1079
  938loPI   PO413988   3.309   8.223   5.344  0.4539  0.0341  0.1386
  938loPI   GL113989   2.935   8.134   5.655  0.2590  0.2101 -0.1383
  938loPI   GL213990   2.693   8.324   5.728  0.1504  0.0837  0.2317
  938loPI   C1A13991   2.683   8.006   6.105  0.0595  0.2702  0.3178
  938loPI   C2A13992   2.430   8.262   6.445  0.2120  0.0743 -0.3290
  938loPI   C3A13993   2.216   8.437   6.701  0.2360 -0.3813 -0.1910
  938loPI   C4A13994   2.103   8.709   7.048  0.1651 -0.1210 -0.3110
  938loPI   C5A13995   1.720   8.867   7.287  0.2157  0.1283 -0.2333
  938loPI   C6A13996   1.748   9.174   7.643 -0.2622 -0.1243 -0.0467
  938loPI   C1B13997   2.843   8.482   6.142  0.0319 -0.0481  0.1364
  938loPI   C2B13998   3.037   8.588   6.548  0.0225 -0.1790  0.0374
  938loPI   C3B13999   3.221   8.385   6.900 -0.2595  0.1063  0.2131
  938loPI   C4B14000   2.967   8.211   7.177 -0.0587 -0.5017 -0.2019
  939loPI    C114001  16.345  15.665   5.106 -0.1177 -0.1505  0.1443
  939loPI    C214002  16.211  15.518   4.758  0.0899  0.0192 -0.0103
  939loPI    C314003  16.602  15.584   4.810  0.0447  0.1247  0.2070
  939loPI   PO414004  16.167  15.538   5.276  0.0014  0.1189 -0.1876
  939loPI   GL114005  15.983  15.609   5.643  0.0226  0.0662 -0.1455
  939loPI   GL214006  15.996  15.327   5.798 -0.1956  0.0702 -0.2493
  939loPI   C1A14007  16.221  15.705   6.088 -0.1340 -0.2921  0.0665
  939loPI   C2A14008  16.116  15.738   6.477 -0.2766 -0.1722 -0.0326
  939loPI   C3A14009  16.234  15.733   6.938  0.2501 -0.1422 -0.2862
  939loPI   C4A14010  16.475  15.868   7.404  0.2561  0.0208  0.2745
  939loPI   C5A14011  16.300  15.691   7.809  0.2265  0.2338 -0.0381
  939loPI   C6A14012  16.067  15.202   7.825 -0.0474  0.0977 -0.3154
  939loPI   C1B14013  16.084  15.131   6.194  0.2239  0.2946  0.0940
  939loPI   C2B14014  16.060  15.045   6.626 -0.0043 -0.1169 -0.0217
  939loPI   C3B14015  16.151  15.125   7.048 -0.0869  0.1352 -0.1532
  939loPI   C4B14016  16.372  15.417   7.341  0.0597  0.1007 -0.0460
  940loPI    C114017  11.719   3.753   4.851 -0.0533  0.2894 -0.2939
  940loPI    C214018  11.919   3.462   4.665 -0.0843  0.0859 -0.0157
  940loPI    C314019  12.117   3.736   4.878 -0.0744  0.1111 -0.0574
  940loPI   PO414020  11.504   3.651   5.083 -0.1652  0.0355 -0.1888
  940loPI   GL114021  11.598   3.598   5.390 -0.2303 -0.0667  0.0648
  940loPI   GL214022  11.392   3.504   5.631  0.2233  0.0049 -0.0070
  940loPI   C1A14023  11.897   3.477   5.776 -0.4346 -0.4567  0.0281
  940loPI   C2A14024  12.058   3.301   6.117 -0.0812 -0.0413 -0.1962
  940loPI   C3A14025  12.054   3.343   6.557  0.1658  0.2311  0.0223
  940loPI   C4A14026  12.132   3.210   7.087 -0.1640  0.1547 -0.2873
  940loPI   C5A14027  12.052   3.215   7.497  0.1647 -0.2052 -0.1760
  940loPI   C6A14028  11.717   2.973   7.731  0.2312  0.0592  0.1423
  940loPI   C1B14029  11.406   3.376   6.020 -0.1208  0.3287 -0.0772
  940loPI   C2B14030  11.467   3.387   6.373  0.3632  0.2618 -0.0093
  940loPI   C3B14031  11.587   3.353   6.852  0.0524 -0.1448 -0.1324
  940loPI   C4B14032  11.587   3.316   7.295  0.0830 -0.2083 -0.0519
  941loPI    C114033  15.316   5.372   5.396  0.0004 -0.2217 -0.0557
  941loPI    C214034  14.994   5.158   5.499 -0.0189 -0.0746  0.1978
  941loPI    C314035  14.989   5.378   5.165 -0.1364 -0.1686  0.1367
  941loPI   PO414036  15.337   5.586   5.628 -0.2481 -0.1454 -0.1513
  941loPI   GL114037  15.476   5.573   6.098 -0.0826 -0.1976 -0.0878
  941loPI   GL214038  15.794   5.661   5.865  0.1818  0.2402  0.1614
  941loPI   C1A14039  15.152   5.764   6.338 -0.0582 -0.0307  0.2668
  941loPI   C2A14040  14.877   5.860   6.508  0.6700 -0.0113 -0.3657
  941loPI   C3A14041  14.754   5.953   6.969 -0.0183 -0.0068 -0.1306
  941loPI   C4A14042  14.817   5.850   7.387  0.1100 -0.2941  0.3418
  941loPI   C5A14043  15.167   5.942   7.537  0.1181  0.0306  0.1036
  941loPI   C6A14044  15.329   6.389   7.578 -0.2341 -0.1565 -0.3980
  941loPI   C1B14045  15.649   5.983   6.300 -0.0286 -0.1213 -0.0739
  941loPI   C2B14046  15.753   6.182   6.743  0.0233 -0.2280 -0.0133
  941loPI   C3B14047  15.935   6.339   7.071  0.1542 -0.1626 -0.1563
  941loPI   C4B14048  15.832   6.351   7.508  0.3312  0.0741  0.0377
  942loPI    C114049   6.620   5.059   5.253 -0.3147  0.0274  0.0828
  942loPI    C214050   6.462   5.186   4.908 -0.1295 -0.2275 -0.0993
  942loPI    C314051   6.801   5.349   5.045 -0.1104 -0.2445 -0.1260
  942loPI   PO414052   6.489   5.086   5.417  0.2069 -0.2519 -0.1832
  942loPI   GL114053   6.345   5.406   5.719 -0.1307  0.1266  0.2982
  942loPI   GL214054   6.104   5.608   5.796  0.0460  0.2103 -0.0193
  942loPI   C1A14055   6.151   5.213   6.082  0.0114  0.2304 -0.1158
  942loPI   C2A14056   6.237   5.268   6.561 -0.2614 -0.2530  0.0706
  942loPI   C3A14057   6.263   5.487   7.042  0.0306  0.2288  0.0850
  942loPI   C4A14058   6.342   5.602   7.460  0.2640  0.2736  0.2058
  942loPI   C5A14059   6.306   5.721   7.872 -0.2678  0.0342 -0.0563
  942loPI   C6A14060   6.222   5.579   8.343 -0.2144  0.0109  0.1825
  942loPI   C1B14061   6.314   5.795   6.206 -0.0690 -0.2004 -0.2665
  942loPI   C2B14062   6.376   5.779   6.633  0.2008  0.1494 -0.1886
  942loPI   C3B14063   6.595   5.996   6.888  0.0944  0.0070 -0.2899
  942loPI   C4B14064   6.625   6.141   7.376  0.0214 -0.0669  0.0285
  943loPI    C114065   0.463   9.611   5.114 -0.2538  0.1893 -0.0910
  943loPI    C214066   0.743   9.540   4.837 -0.1963 -0.0299  0.0211
  943loPI    C314067   0.366   9.615   4.726 -0.1557 -0.0318 -0.1196
  943loPI   PO414068   0.576   9.714   5.328  0.2262 -0.1618  0.0439
  943loPI   GL114069   0.455   9.591   5.715  0.1099  0.0693  0.1104
  943loPI   GL214070   0.141   9.778   5.808  0.0278  0.1560 -0.1678
  943loPI   C1A14071   0.378   9.453   6.154  0.3084 -0.3084 -0.0098
  943loPI   C2A14072   0.317   9.651   6.604 -0.0052  0.1958 -0.1575
  943loPI   C3A14073   0.284   9.689   6.996  0.0744 -0.4373  0.2086
  943loPI   C4A14074   0.358   9.493   7.293 -0.0711  0.0207 -0.1693
  943loPI   C5A14075   0.238   9.082   7.356 -0.0703  0.0958  0.0058
  943loPI   C6A14076  -0.100   8.805   7.237  0.1030  0.1194  0.1954
  943loPI   C1B14077  -0.011   9.704   6.215  0.0062  0.0021 -0.1898
  943loPI   C2B14078  -0.151   9.623   6.723 -0.2495  0.0345  0.0030
  943loPI   C3B14079  -0.202   9.473   7.160  0.0942  0.0988 -0.1590
  943loPI   C4B14080   0.059   9.546   7.733 -0.0662  0.0248 -0.2578
  944loPI    C114081   8.952   8.884   5.492  0.0104 -0.1900  0.1068
  944loPI    C214082   8.702   9.081   5.249  0.1753 -0.0575  0.0428
  944loPI    C314083   8.789   8.697   5.179 -0.1404 -0.1534  0.1625
  944loPI   PO414084   8.899   8.895   5.766  0.0428 -0.1646 -0.0277
  944loPI   GL114085   8.838   8.709   6.201  0.0908  0.1319  0.3461
  944loPI   GL214086   8.934   8.953   6.405  0.2727 -0.1823 -0.1352
  944loPI   C1A14087   8.816   8.439   6.638 -0.0864  0.1641  0.0117
  944loPI   C2A14088   9.079   8.372   6.930  0.2089 -0.0115 -0.0775
  944loPI   C3A14089   9.336   8.541   7.355  0.2991  0.0124 -0.0111
  944loPI   C4A14090   9.229   8.902   7.684  0.2574 -0.1953 -0.0052
  944loPI   C5A14091   8.926   8.943   8.069 -0.1861 -0.3590  0.2020
  944loPI   C6A14092   8.546   8.829   8.328 -0.0169  0.2394 -0.0478
  944loPI   C1B14093   9.138   8.826   6.777 -0.3042  0.0376  0.1980
  944loPI   C2B14094   8.971   8.886   7.177  0.0191 -0.2136 -0.1322
  944loPI   C3B14095   8.729   9.022   7.562 -0.0170 -0.1166 -0.1257
  944loPI   C4B14096   8.334   9.016   7.827 -0.3133  0.3837 -0.0485
  945loPI    C114097  16.418   0.841   5.291  0.1728 -0.2093 -0.0001
  945loPI    C214098  16.213   0.637   5.015 -0.1513 -0.1016  0.1558
  945loPI    C314099  16.257   1.032   4.978  0.0929 -0.1335  0.0867
  945loPI   PO414100  16.242   0.810   5.494 -0.1447 -0.3653  0.2192
  945loPI   GL114101  15.941   0.979   5.706  0.1731 -0.0238 -0.2512
  945loPI   GL214102  15.583   1.001   5.714 -0.1928  0.1069 -0.0208
  945loPI   C1A14103  16.069   1.054   6.119 -0.1166  0.2384 -0.2683
  945loPI   C2A14104  15.850   1.121   6.543 -0.0169 -0.2102 -0.0127
  945loPI   C3A14105  15.673   1.104   6.987  0.1464 -0.2436 -0.1241
  945loPI   C4A14106  15.470   0.897   7.221 -0.0327 -0.1005 -0.1233
  945loPI   C5A14107  15.441   0.715   7.640  0.0162  0.2307 -0.0451
  945loPI   C6A14108  15.187   0.859   7.955  0.2255 -0.3158  0.1085
  945loPI   C1B14109  15.583   1.047   6.092 -0.0344  0.1014  0.0943
  945loPI   C2B14110  15.380   0.911   6.408 -0.0564  0.0292 -0.1164
  945loPI   C3B14111  15.203   0.888   6.799  0.0981  0.3059 -0.2694
  945loPI   C4B14112  15.077   1.208   7.033  0.1820  0.3235 -0.2320
  946loPI    C114113   2.119   2.803   5.096 -0.1227  0.0471 -0.1628
  946loPI    C214114   2.278   3.025   4.803  0.0927  0.1605  0.0368
  946loPI    C314115   2.435   2.668   4.891 -0.1318  0.0116 -0.1534
  946loPI   PO414116   1.977   3.021   5.198  0.0677 -0.1460 -0.4197
  946loPI   GL114117   2.022   3.050   5.634 -0.0523  0.0016  0.0806
  946loPI   GL214118   2.017   3.368   5.571  0.3627 -0.0791  0.1889
  946loPI   C1A14119   2.288   3.090   6.034 -0.1884  0.1662  0.2825
  946loPI   C2A14120   2.441   3.003   6.458 -0.4263  0.1850  0.1324
  946loPI   C3A14121   2.312   2.783   6.865  0.0386  0.1505  0.1909
  946loPI   C4A14122   2.373   2.758   7.288  0.0431  0.2060  0.3147
  946loPI   C5A14123   2.199   2.975   7.708  0.1708 -0.1679  0.1295
  946loPI   C6A14124   2.350   3.114   8.148 -0.3235  0.1534  0.0838
  946loPI   C1B14125   1.940   3.434   5.998 -0.0384 -0.0970  0.2883
  946loPI   C2B14126   2.129   3.465   6.439  0.4086  0.1738 -0.1751
  946loPI   C3B14127   2.312   3.477   6.798  0.4089 -0.1188  0.3786
  946loPI   C4B14128   2.431   3.448   7.109 -0.0190 -0.0133  0.1771
  947loPI    C114129   1.069  12.849   5.296 -0.1693  0.0113  0.2028
  947loPI    C214130   0.752  12.681   5.120 -0.2269  0.2228  0.1009
  947loPI    C314131   1.029  12.866   4.899 -0.1557  0.2473  0.2098
  947loPI   PO414132   0.980  13.056   5.523 -0.2338  0.0781  0.2727
  947loPI   GL114133   1.119  12.962   5.949 -0.0302  0.1892 -0.3370
  947loPI   GL214134   1.117  12.557   6.053 -0.2994 -0.0476 -0.1823
  947loPI   C1A14135   0.891  13.042   6.364 -0.1446  0.0080 -0.0455
  947loPI   C2A14136   0.897  13.086   6.847  0.0922 -0.1317 -0.0916
  947loPI   C3A14137   0.963  13.132   7.270  0.2308 -0.1831 -0.0432
  947loPI   C4A14138   0.863  13.194   7.710 -0.0303  0.1220 -0.2044
  947loPI   C5A14139   0.975  13.036   7.989 -0.1150 -0.0123 -0.0077
  947loPI   C6A14140   1.064  12.561   8.225  0.2617  0.1556 -0.0964
  947loPI   C1B14141   1.052  12.600   6.541  0.0766  0.4650 -0.0714
  947loPI   C2B14142   1.086  12.625   6.951 -0.2134 -0.3256 -0.1417
  947loPI   C3B14143   1.187  12.387   7.293 -0.1531  0.0123  0.2719
  947loPI   C4B14144   1.158  12.127   7.572 -0.2604  0.1074 -0.1191
  948loPI    C114145  16.899  14.331   5.343  0.2235  0.2980 -0.1682
  948loPI    C214146  16.648  14.576   5.536  0.1397  0.0943 -0.0142
  948loPI    C314147  16.525  14.380   5.209  0.1552  0.1317 -0.0426
  948loPI   PO414148  17.026  14.266   5.558  0.2315  0.1798 -0.0898
  948loPI   GL114149  16.817  14.116   5.995 -0.1462  0.0553  0.2717
  948loPI   GL214150  16.916  14.428   6.038 -0.2216  0.1389 -0.1430
  948loPI   C1A14151  16.782  14.182   6.536 -0.0132  0.0595  0.0607
  948loPI   C2A14152  16.789  14.234   6.902 -0.2074 -0.0758  0.0360
  948loPI   C3A14153  16.882  13.972   7.209  0.0873 -0.0947 -0.2067
  948loPI   C4A14154  16.847  13.860   7.531 -0.0557 -0.2049  0.0071
  948loPI   C5A14155  16.534  13.788   7.778  0.5546 -0.0012 -0.4192
  948loPI   C6A14156  16.328  13.855   8.165  0.0607 -0.1755  0.1641
  948loPI   C1B14157  17.300  14.354   6.293  0.1441  0.0238  0.3237
  948loPI   C2B14158  17.267  14.263   6.629 -0.1668 -0.0832  0.1672
  948loPI   C3B14159  17.252  14.247   7.069  0.1330  0.0301 -0.0583
  948loPI   C4B14160  17.292  14.202   7.425 -0.2543  0.1561  0.1156
  949loPI    C114161  13.998   3.174   5.209  0.0641  0.0815 -0.0588
  949loPI    C214162  14.191   2.825   5.232  0.1544  0.1432  0.1464
  949loPI    C314163  14.272   3.079   4.934  0.1677  0.0370  0.0587
  949loPI   PO414164  13.685   3.125   5.327  0.3381  0.1012  0.0346
  949loPI   GL114165  13.663   2.846   5.670 -0.2783  0.1354  0.0879
  949loPI   GL214166  13.924   2.764   5.628 -0.1693  0.0862  0.2745
  949loPI   C1A14167  13.680   2.966   6.234 -0.1103  0.1457  0.1883
  949loPI   C2A14168  13.601   3.096   6.678 -0.0646  0.5218 -0.1699
  949loPI   C3A14169  13.550   2.996   7.034  0.1518  0.1217 -0.1831
  949loPI   C4A14170  13.646   2.783   7.470  0.0599  0.3058  0.2900
  949loPI   C5A14171  13.829   2.514   7.673  0.0020  0.0330  0.2601
  949loPI   C6A14172  14.052   2.159   7.793 -0.0309  0.1844  0.0141
  949loPI   C1B14173  14.090   2.678   6.028  0.3825 -0.0058  0.3776
  949loPI   C2B14174  14.083   2.826   6.574 -0.2610  0.2072  0.1304
  949loPI   C3B14175  14.039   2.845   6.974  0.0634 -0.1473 -0.1480
  949loPI   C4B14176  14.164   2.872   7.410 -0.0627  0.0307 -0.0220
  950loPI    C114177   4.331   0.373   5.007 -0.0755 -0.1101  0.1426
  950loPI    C214178   4.605   0.158   4.810 -0.0547 -0.0196  0.0721
  950loPI    C314179   4.294   0.315   4.613  0.0652  0.2279  0.0759
  950loPI   PO414180   4.483   0.523   5.163 -0.1638  0.1066  0.2988
  950loPI   GL114181   4.650   0.602   5.506 -0.1611 -0.1349 -0.0159
  950loPI   GL214182   4.919   0.447   5.649 -0.0785  0.0981  0.0726
  950loPI   C1A14183   4.319   0.739   5.802  0.4073  0.0120  0.2297
  950loPI   C2A14184   4.212   0.711   6.199  0.0256 -0.1680 -0.1800
  950loPI   C3A14185   4.274   0.610   6.612 -0.1682  0.3035  0.0437
  950loPI   C4A14186   4.234   0.600   7.010  0.0542  0.0245 -0.0915
  950loPI   C5A14187   4.270   0.537   7.420  0.2196 -0.2425 -0.1072
  950loPI   C6A14188   3.902   0.433   7.784 -0.0128  0.2075 -0.3257
  950loPI   C1B14189   4.702   0.438   6.040  0.1857  0.2193  0.0707
  950loPI   C2B14190   4.638   0.312   6.428 -0.1022 -0.0056  0.0575
  950loPI   C3B14191   4.769   0.289   6.933  0.0734 -0.1402  0.0568
  950loPI   C4B14192   4.809   0.331   7.379 -0.1175 -0.2160  0.1178
  951loPI    C114193   2.443   1.006   5.184  0.2696 -0.2053  0.2770
  951loPI    C214194   2.521   0.817   4.840 -0.0677  0.0151  0.0737
  951loPI    C314195   2.453   0.606   5.173 -0.1302 -0.2129 -0.0815
  951loPI   PO414196   2.566   1.124   5.416 -0.2081 -0.1730 -0.1487
  951loPI   GL114197   2.797   1.017   5.862 -0.1183 -0.2319  0.0622
  951loPI   GL214198   2.997   1.203   5.839 -0.1958  0.0332 -0.0837
  951loPI   C1A14199   2.841   1.075   6.291  0.0046 -0.0155 -0.2841
  951loPI   C2A14200   2.913   1.105   6.767  0.0401  0.1180 -0.1743
  951loPI   C3A14201   2.993   1.051   7.147  0.4213  0.0703 -0.1266
  951loPI   C4A14202   3.050   0.776   7.499 -0.2001  0.0272  0.2246
  951loPI   C5A14203   2.768   0.537   7.677 -0.0977 -0.1901  0.4811
  951loPI   C6A14204   2.571   0.211   7.911  0.3450  0.2255  0.0601
  951loPI   C1B14205   3.307   1.371   6.131 -0.3672 -0.1407  0.2483
  951loPI   C2B14206   3.317   1.288   6.528 -0.1197 -0.0010  0.0888
  951loPI   C3B14207   3.351   1.263   6.857 -0.1974 -0.1063  0.0422
  951loPI   C4B14208   3.471   1.272   7.300  0.0313 -0.2174  0.2720
  952loPI    C114209   3.163  11.971   5.394 -0.2427  0.0093  0.1763
  952loPI    C214210   2.985  11.844   5.060  0.0643 -0.1849  0.0827
  952loPI    C314211   2.880  11.689   5.414  0.2307 -0.4957 -0.0000
  952loPI   PO414212   3.145  12.255   5.395  0.1066  0.1310  0.4065
  952loPI   GL114213   3.237  12.552   5.697 -0.2461  0.0047 -0.0516
  952loPI   GL214214   3.293  12.296   5.815  0.1492  0.1886 -0.2210
  952loPI   C1A14215   3.111  12.911   6.008  0.2888 -0.0646  0.0649
  952loPI   C2A14216   3.333  13.221   6.259 -0.1842 -0.3874  0.1328
  952loPI   C3A14217   3.313  13.242   6.726 -0.2869 -0.1748  0.1445
  952loPI   C4A14218   3.345  13.299   7.152  0.1006  0.3368  0.1474
  952loPI   C5A14219   3.550  13.288   7.529  0.3638  0.0876  0.3487
  952loPI   C6A14220   3.804  12.965   7.698 -0.1602 -0.1819  0.0883
  952loPI   C1B14221   3.257  12.547   6.255 -0.5176  0.0519  0.2315
  952loPI   C2B14222   3.239  12.770   6.568  0.1075  0.1038  0.3908
  952loPI   C3B14223   3.185  12.771   6.935  0.1972 -0.2401 -0.0984
  952loPI   C4B14224   3.088  12.929   7.347  0.2047 -0.4250  0.0043
  953loPI    C114225  18.054  14.636   5.310  0.2433 -0.2683 -0.0074
  953loPI    C214226  18.245  14.942   5.484 -0.0784 -0.0587 -0.0139
  953loPI    C314227  18.219  14.924   5.085 -0.0649 -0.0923 -0.0133
  953loPI   PO414228  17.892  14.594   5.607  0.0685  0.0088 -0.0667
  953loPI   GL114229  18.071  14.836   5.984  0.0925 -0.0803  0.0891
  953loPI   GL214230  17.991  15.118   6.023 -0.2442 -0.1794 -0.0041
  953loPI   C1A14231  18.071  14.599   6.319  0.2193  0.0937  0.0706
  953loPI   C2A14232  18.133  14.511   6.662 -0.2691 -0.1062  0.0555
  953loPI   C3A14233  18.206  14.573   7.033 -0.1182 -0.0036 -0.0751
  953loPI   C4A14234  18.170  14.309   7.376  0.2384  0.1862 -0.2906
  953loPI   C5A14235  18.267  14.401   7.712  0.0290 -0.3668 -0.1222
  953loPI   C6A14236  17.985  14.474   7.935 -0.1089 -0.4328 -0.1255
  953loPI   C1B14237  18.151  15.061   6.396 -0.1223  0.0126 -0.0985
  953loPI   C2B14238  18.064  15.049   6.689  0.1136  0.0179  0.1830
  953loPI   C3B14239  18.117  15.029   7.101 -0.1414 -0.0425  0.1004
  953loPI   C4B14240  18.088  14.810   7.479 -0.0386  0.1832  0.0427
  954loPI    C114241   1.433  17.378   5.235 -0.0023  0.1268 -0.0767
  954loPI    C214242   1.039  17.311   5.223 -0.0107  0.1494  0.0597
  954loPI    C314243   1.201  17.592   4.989 -0.0433 -0.0123 -0.1597
  954loPI   PO414244   1.474  17.291   5.487 -0.1037  0.0005 -0.0751
  954loPI   GL114245   1.370  17.105   5.876  0.1535  0.0459  0.1608
  954loPI   GL214246   1.288  16.795   5.943  0.2159  0.2778  0.3780
  954loPI   C1A14247   1.360  17.207   6.311 -0.0182 -0.0646 -0.2123
  954loPI   C2A14248   1.300  17.296   6.746 -0.0348  0.0817 -0.3979
  954loPI   C3A14249   1.418  17.310   7.243 -0.0990  0.0597  0.1476
  954loPI   C4A14250   1.826  17.413   7.352 -0.1984 -0.3145 -0.1706
  954loPI   C5A14251   2.106  17.220   7.644  0.1151  0.0812 -0.1005
  954loPI   C6A14252   2.320  16.830   7.869  0.1047  0.0757  0.1386
  954loPI   C1B14253   1.222  16.742   6.325  0.0099 -0.3177  0.0596
  954loPI   C2B14254   1.431  16.778   6.591 -0.2189 -0.2905  0.2561
  954loPI   C3B14255   1.357  16.583   6.965 -0.2801 -0.3246 -0.0602
  954loPI   C4B14256   1.188  16.589   7.366  0.2115 -0.3702 -0.1374
  955loPI    C114257   2.573   3.896   5.222 -0.3137 -0.2308  0.0153
  955loPI    C214258   2.475   4.124   4.908  0.0676  0.0882  0.1207
  955loPI    C314259   2.736   3.824   4.863  0.0401  0.0659  0.1106
  955loPI   PO414260   2.681   4.059   5.416  0.1989 -0.1664  0.0908
  955loPI   GL114261   2.528   4.166   5.790 -0.1496  0.2491 -0.1917
  955loPI   GL214262   2.775   4.373   5.782 -0.0544 -0.0950 -0.0536
  955loPI   C1A14263   2.481   4.319   6.156 -0.0874  0.0032 -0.0443
  955loPI   C2A14264   2.315   4.533   6.630  0.1144  0.0088 -0.1765
  955loPI   C3A14265   2.261   4.482   7.026  0.1186  0.3847  0.1786
  955loPI   C4A14266   2.172   4.389   7.442 -0.1862 -0.1643 -0.2536
  955loPI   C5A14267   1.809   4.462   7.766  0.1015  0.3783  0.3675
  955loPI   C6A14268   1.383   4.383   7.749 -0.1865  0.3488  0.1831
  955loPI   C1B14269   2.928   4.441   6.130 -0.0074 -0.2165  0.1431
  955loPI   C2B14270   3.177   4.347   6.458 -0.0782 -0.0120 -0.1436
  955loPI   C3B14271   3.147   4.407   6.801 -0.0055 -0.1253  0.0512
  955loPI   C4B14272   3.330   4.650   7.175 -0.0691 -0.1547  0.1038
  956loPI    C114273  13.002   4.548   5.134  0.0403  0.0349 -0.0774
  956loPI    C214274  12.733   4.304   5.301  0.1292  0.0084  0.0281
  956loPI    C314275  12.712   4.387   4.911 -0.1500  0.1637  0.0732
  956loPI   PO414276  13.261   4.438   5.221  0.0447 -0.2710 -0.1376
  956loPI   GL114277  13.468   4.249   5.549  0.2635  0.0264  0.3236
  956loPI   GL214278  13.166   4.297   5.667 -0.5128  0.0081 -0.2343
  956loPI   C1A14279  13.592   4.363   5.934 -0.0082  0.0219 -0.1396
  956loPI   C2A14280  13.541   4.449   6.424  0.1903 -0.1174 -0.0355
  956loPI   C3A14281  13.498   4.398   6.835 -0.0378 -0.0707 -0.1954
  956loPI   C4A14282  13.525   4.344   7.253  0.0737 -0.2659  0.2216
  956loPI   C5A14283  13.310   4.395   7.670  0.2772 -0.1033 -0.1336
  956loPI   C6A14284  13.192   4.116   8.060 -0.1747  0.1160  0.0722
  956loPI   C1B14285  13.065   4.492   6.057 -0.2223  0.1864  0.2951
  956loPI   C2B14286  13.024   4.567   6.450  0.0181  0.1307  0.0760
  956loPI   C3B14287  12.974   4.458   6.821 -0.3944 -0.1312 -0.0433
  956loPI   C4B14288  12.980   4.402   7.325  0.1118  0.2665 -0.1465
  957loPI    C114289  14.935   3.672   5.717  0.0259 -0.1369  0.0197
  957loPI    C214290  15.027   3.550   5.347  0.0791 -0.2123  0.0575
  957loPI    C314291  15.022   3.941   5.434  0.0631 -0.1943 -0.0236
  957loPI   PO414292  14.672   3.507   5.766  0.0382 -0.3021  0.5282
  957loPI   GL114293  14.420   3.554   6.060  0.0255  0.0275 -0.2635
  957loPI   GL214294  14.286   3.802   6.022 -0.0170 -0.0228 -0.0432
  957loPI   C1A14295  14.573   3.484   6.528  0.3878 -0.1007  0.1626
  957loPI   C2A14296  14.738   3.607   6.869  0.1604 -0.1843 -0.0884
  957loPI   C3A14297  14.888   3.632   7.214  0.1825 -0.2581 -0.0278
  957loPI   C4A14298  15.069   3.452   7.580 -0.0600  0.1699  0.0679
  957loPI   C5A14299  14.992   3.180   8.013  0.1019  0.1026  0.0765
  957loPI   C6A14300  14.714   3.108   8.418 -0.0782 -0.2342 -0.2066
  957loPI   C1B14301  14.302   3.919   6.422 -0.0110  0.4588 -0.1670
  957loPI   C2B14302  14.171   3.798   6.837 -0.1401  0.3388  0.2073
  957loPI   C3B14303  14.271   3.751   7.287  0.1150  0.3711  0.1831
  957loPI   C4B14304  14.168   3.621   7.748  0.0567  0.2311 -0.1703
  958loPI    C114305   0.777  11.629   5.229  0.1983 -0.3009  0.0273
  958loPI    C214306   0.466  11.397   5.131  0.0592 -0.1065  0.0021
  958loPI    C314307   0.728  11.508   4.851 -0.0493  0.0234 -0.0489
  958loPI   PO414308   0.913  11.573   5.431  0.0907 -0.0503 -0.0870
  958loPI   GL114309   1.073  11.741   5.857 -0.2582 -0.3651 -0.1148
  958loPI   GL214310   0.876  11.505   5.918 -0.2967 -0.5598 -0.0426
  958loPI   C1A14311   1.224  11.646   6.275 -0.2671  0.2436 -0.1629
  958loPI   C2A14312   1.313  11.812   6.608  0.0575 -0.0657  0.0098
  958loPI   C3A14313   1.496  11.884   7.028  0.2539 -0.2432 -0.1122
  958loPI   C4A14314   1.609  11.935   7.409 -0.2665 -0.2282  0.2864
  958loPI   C5A14315   1.534  11.949   7.914 -0.2107  0.1364  0.0812
  958loPI   C6A14316   1.763  12.100   8.187  0.2374 -0.3793 -0.0362
  958loPI   C1B14317   0.769  11.549   6.337 -0.0974  0.1933  0.0186
  958loPI   C2B14318   0.829  11.674   6.662 -0.0778  0.1378 -0.0963
  958loPI   C3B14319   0.856  11.529   7.035 -0.0415  0.1686 -0.2144
  958loPI   C4B14320   0.747  11.560   7.492  0.3194  0.1795 -0.2034
  959loPI    C114321  12.689  16.610   4.976 -0.0817  0.0046  0.0740
  959loPI    C214322  12.981  16.783   4.765 -0.0561  0.0588  0.1536
  959loPI    C314323  12.674  16.610   4.577 -0.1135  0.2443  0.0740
  959loPI   PO414324  12.745  16.476   5.261 -0.2585  0.2248 -0.1621
  959loPI   GL114325  12.734  16.162   5.589  0.1936 -0.3048 -0.0050
  959loPI   GL214326  12.498  16.364   5.689 -0.1686 -0.2209  0.0133
  959loPI   C1A14327  12.929  16.088   5.995 -0.1159 -0.4466 -0.2180
  959loPI   C2A14328  12.886  15.930   6.373  0.1411  0.1765 -0.1565
  959loPI   C3A14329  12.853  15.997   6.840 -0.0219  0.4342 -0.1586
  959loPI   C4A14330  13.025  16.290   7.135 -0.4451  0.3652  0.0450
  959loPI   C5A14331  13.100  16.557   7.542  0.1153  0.0583 -0.2279
  959loPI   C6A14332  12.900  16.834   7.776 -0.3386 -0.2004 -0.0680
  959loPI   C1B14333  12.657  16.645   6.094  0.1861  0.1864  0.0307
  959loPI   C2B14334  12.822  16.665   6.439 -0.1536  0.2534 -0.0538
  959loPI   C3B14335  13.023  16.605   6.682  0.1075  0.0463  0.0981
  959loPI   C4B14336  13.226  16.311   6.723 -0.1462 -0.1610 -0.1094
  960loPI    C114337   4.197   6.067   5.318  0.0850  0.0318  0.1070
  960loPI    C214338   4.190   5.823   5.001  0.0329 -0.2286  0.3054
  960loPI    C314339   4.125   6.215   4.953 -0.2983 -0.3116  0.0369
  960loPI   PO414340   4.377   6.009   5.434  0.3560  0.3844  0.0446
  960loPI   GL114341   4.577   6.046   5.826  0.0662  0.2651  0.1835
  960loPI   GL214342   4.726   5.869   5.828 -0.0729 -0.3173  0.2141
  960loPI   C1A14343   4.260   6.092   6.197  0.1112 -0.1004  0.1849
  960loPI   C2A14344   4.103   5.992   6.557  0.3210 -0.2703  0.0447
  960loPI   C3A14345   4.057   5.986   6.980 -0.1342  0.1573 -0.0667
  960loPI   C4A14346   3.917   5.750   7.427 -0.1812 -0.2705 -0.1477
  960loPI   C5A14347   3.553   5.421   7.647  0.0637 -0.2279  0.1002
  960loPI   C6A14348   3.257   5.213   7.800 -0.0781  0.0082 -0.0966
  960loPI   C1B14349   4.718   5.898   6.300  0.0883 -0.0786 -0.1029
  960loPI   C2B14350   4.838   5.787   6.683  0.1417 -0.0618 -0.0026
  960loPI   C3B14351   4.573   5.938   7.066 -0.2861 -0.1803 -0.0793
  960loPI   C4B14352   4.430   5.702   7.352 -0.0448 -0.1299  0.0441
  961loPI    C114353  10.208   5.336   5.202  0.1861 -0.1456 -0.2440
  961loPI    C214354   9.940   5.572   5.022  0.0844 -0.2057 -0.1727
  961loPI    C314355  10.304   5.526   4.863  0.0777 -0.0657 -0.2306
  961loPI   PO414356  10.118   5.072   5.249 -0.0411  0.2199  0.0801
  961loPI   GL114357  10.249   4.827   5.651 -0.2399  0.1482 -0.1187
  961loPI   GL214358  10.403   4.986   5.861 -0.0016  0.0161 -0.0456
  961loPI   C1A14359  10.452   4.498   5.960  0.1210 -0.2159  0.2412
  961loPI   C2A14360  10.534   4.513   6.277 -0.0158  0.2378  0.1559
  961loPI   C3A14361  10.696   4.431   6.632 -0.2094  0.0056  0.0914
  961loPI   C4A14362  10.651   4.274   7.055  0.2413 -0.1957 -0.0503
  961loPI   C5A14363  10.485   4.431   7.454 -0.4192  0.1091  0.0526
  961loPI   C6A14364  10.706   4.391   7.835 -0.2128 -0.0584 -0.0368
  961loPI   C1B14365  10.282   4.958   6.251 -0.0947  0.1160 -0.0695
  961loPI   C2B14366  10.318   4.920   6.685  0.1084 -0.1132 -0.3096
  961loPI   C3B14367  10.340   4.763   7.070  0.3820 -0.0559  0.1392
  961loPI   C4B14368  10.203   4.933   7.438 -0.0487  0.0151 -0.0340
  962loPI    C114369   6.879   6.521   5.474  0.1338  0.0933 -0.1305
  962loPI    C214370   6.509   6.663   5.527  0.2128  0.1218  0.3983
  962loPI    C314371   6.563   6.299   5.371 -0.0363  0.1177  0.3174
  962loPI   PO414372   7.037   6.465   5.707  0.1617 -0.1351  0.0943
  962loPI   GL114373   7.174   6.208   6.040  0.0269 -0.0445  0.1077
  962loPI   GL214374   6.964   6.268   6.252  0.0711 -0.2103  0.1478
  962loPI   C1A14375   7.387   6.317   6.463 -0.0168  0.1639 -0.0393
  962loPI   C2A14376   7.076   6.330   6.807 -0.3025 -0.2271 -0.2044
  962loPI   C3A14377   7.025   6.451   7.140 -0.1222  0.1985  0.2696
  962loPI   C4A14378   7.026   6.641   7.522  0.0586 -0.0037 -0.3274
  962loPI   C5A14379   6.813   6.486   7.822  0.2425 -0.0490 -0.0341
  962loPI   C6A14380   6.560   6.165   7.881 -0.0653  0.1207  0.1209
  962loPI   C1B14381   7.088   6.701   6.414 -0.4092  0.1072 -0.1870
  962loPI   C2B14382   7.271   7.108   6.538 -0.1520 -0.0695  0.1330
  962loPI   C3B14383   7.427   7.240   6.874 -0.0141 -0.1859 -0.2985
  962loPI   C4B14384   7.702   7.439   7.207 -0.0170 -0.1534  0.0262
  963loPI    C114385   0.265   2.985   4.819 -0.2807  0.0901 -0.2169
  963loPI    C214386   0.598   3.197   4.752 -0.1329 -0.0860 -0.0519
  963loPI    C314387   0.452   2.957   4.467  0.0305 -0.2080 -0.0341
  963loPI   PO414388   0.134   3.109   5.045  0.1767 -0.0086  0.3210
  963loPI   GL114389   0.177   3.294   5.464 -0.0085 -0.0983  0.0977
  963loPI   GL214390   0.389   3.535   5.598 -0.1781  0.0356 -0.1709
  963loPI   C1A14391   0.212   3.277   5.991 -0.0309 -0.1872 -0.0251
  963loPI   C2A14392   0.387   3.191   6.497 -0.1811  0.0838 -0.2605
  963loPI   C3A14393   0.567   3.282   6.900 -0.1990 -0.0945 -0.0638
  963loPI   C4A14394   0.530   3.145   7.320 -0.2673 -0.3864 -0.1478
  963loPI   C5A14395   0.639   3.273   7.710 -0.0634 -0.2572 -0.2575
  963loPI   C6A14396   0.809   3.381   8.183  0.0756 -0.1803  0.0527
  963loPI   C1B14397   0.534   3.657   6.009  0.1614  0.1525  0.0392
  963loPI   C2B14398   0.549   3.750   6.479  0.0450 -0.0100  0.0309
  963loPI   C3B14399   0.561   3.770   6.909  0.0391 -0.3277 -0.0133
  963loPI   C4B14400   0.606   3.624   7.328  0.2234  0.0274  0.0268
  964loPI    C114401   0.118   7.733   5.439  0.0431 -0.0748 -0.0083
  964loPI    C214402   0.355   8.052   5.486 -0.1469  0.0578  0.0602
  964loPI    C314403   0.505   7.711   5.342  0.1498  0.0526  0.3681
  964loPI   PO414404  -0.065   7.814   5.320  0.2221  0.0750 -0.0290
  964loPI   GL114405  -0.428   7.727   5.617  0.0695 -0.1238  0.1797
  964loPI   GL214406  -0.582   7.387   5.726  0.1485  0.1421  0.1771
  964loPI   C1A14407  -0.669   7.821   5.996  0.1348 -0.2399 -0.1533
  964loPI   C2A14408  -0.771   7.735   6.534  0.3191 -0.0865  0.0503
  964loPI   C3A14409  -0.817   7.618   6.908  0.0124 -0.1075  0.1486
  964loPI   C4A14410  -0.766   7.654   7.366 -0.1142 -0.1302  0.1062
  964loPI   C5A14411  -0.640   7.675   7.868 -0.0568 -0.1101 -0.1434
  964loPI   C6A14412  -0.741   7.411   8.154 -0.1210  0.0838  0.0952
  964loPI   C1B14413  -0.476   7.290   6.117  0.3253  0.2676  0.2173
  964loPI   C2B14414  -0.308   7.512   6.538  0.1935  0.1615  0.2035
  964loPI   C3B14415  -0.329   7.555   6.934 -0.0742  0.1067 -0.0011
  964loPI   C4B14416  -0.478   7.271   7.245  0.0102 -0.2522 -0.2498
  965loPI    C114417  16.738   2.216   5.001 -0.0278 -0.0566 -0.1294
  965loPI    C214418  17.052   2.200   4.753  0.0765  0.1127 -0.0109
  965loPI    C314419  16.688   2.285   4.610  0.1053  0.0380 -0.1305
  965loPI   PO414420  16.834   2.145   5.210 -0.2740 -0.3814 -0.1299
  965loPI   GL114421  16.756   2.174   5.647  0.2048 -0.0942  0.0430
  965loPI   GL214422  16.919   1.941   5.910  0.1971 -0.0738  0.2564
  965loPI   C1A14423  16.587   2.275   6.009  0.1037 -0.3662 -0.1752
  965loPI   C2A14424  16.644   2.355   6.478  0.0207  0.0291 -0.1241
  965loPI   C3A14425  16.680   2.237   6.840 -0.1338 -0.1148  0.1926
  965loPI   C4A14426  16.371   2.020   7.099 -0.1347 -0.1044 -0.0011
  965loPI   C5A14427  15.988   1.926   7.381  0.0528  0.3501 -0.2289
  965loPI   C6A14428  15.936   2.018   7.827 -0.0550 -0.2006  0.1813
  965loPI   C1B14429  16.868   1.934   6.346 -0.1291  0.3763  0.2038
  965loPI   C2B14430  16.854   1.818   6.860 -0.0389 -0.0916 -0.2096
  965loPI   C3B14431  16.802   1.638   7.309 -0.2406  0.0892 -0.2097
  965loPI   C4B14432  16.946   1.679   7.824  0.0052 -0.0633 -0.2978
  966loPI    C114433  10.121   2.731   4.808 -0.0813 -0.2834 -0.2635
  966loPI    C214434  10.514   2.708   4.875 -0.0952  0.1495  0.0087
  966loPI    C314435  10.375   2.710   4.500  0.1785  0.2130 -0.0946
  966loPI   PO414436  10.007   2.924   5.007  0.2258 -0.2801  0.0305
  966loPI   GL114437  10.105   3.052   5.448  0.3749 -0.0050 -0.1472
  966loPI   GL214438   9.871   3.063   5.594  0.5425  0.0599 -0.2791
  966loPI   C1A14439  10.495   3.184   5.728  0.2721 -0.0879  0.5791
  966loPI   C2A14440  10.510   3.185   6.113  0.1488  0.0239 -0.2556
  966loPI   C3A14441  10.703   3.055   6.450 -0.1196  0.2802  0.1713
  966loPI   C4A14442  10.871   2.634   6.662  0.2870 -0.1239 -0.2504
  966loPI   C5A14443  11.282   2.433   6.970 -0.0452  0.0380  0.2411
  966loPI   C6A14444  11.422   2.306   7.298  0.0831 -0.0529  0.1010
  966loPI   C1B14445  10.152   2.815   5.837  0.2398 -0.0274 -0.2252
  966loPI   C2B14446  10.218   2.765   6.261  0.0505 -0.0760  0.1369
  966loPI   C3B14447  10.322   2.781   6.614  0.0461  0.1120 -0.0908
  966loPI   C4B14448  10.457   2.765   7.023  0.0009  0.0536 -0.1295
  967loPI    C114449   8.184  13.140   5.427 -0.0884 -0.1118 -0.2407
  967loPI    C214450   8.496  13.213   5.187 -0.0317  0.0995 -0.1060
  967loPI    C314451   8.165  13.435   5.157 -0.0605  0.0640 -0.0524
  967loPI   PO414452   8.320  13.018   5.594  0.1856  0.1459 -0.0826
  967loPI   GL114453   8.486  13.099   5.989 -0.1756  0.0124  0.0957
  967loPI   GL214454   8.298  13.317   6.036 -0.1931  0.1290  0.2370
  967loPI   C1A14455   8.651  13.181   6.370  0.0914  0.1479 -0.0994
  967loPI   C2A14456   8.587  13.283   6.798 -0.3894  0.0561 -0.1102
  967loPI   C3A14457   8.436  13.095   7.158 -0.0474  0.0951 -0.0925
  967loPI   C4A14458   8.441  13.051   7.588  0.1754 -0.1892 -0.2377
  967loPI   C5A14459   8.284  12.963   7.980  0.0711 -0.1141 -0.0478
  967loPI   C6A14460   8.126  12.579   8.247  0.0442 -0.2484  0.2569
  967loPI   C1B14461   8.250  13.487   6.462 -0.3853 -0.1552 -0.0198
  967loPI   C2B14462   8.174  13.484   6.974  0.2800  0.2409 -0.2442
  967loPI   C3B14463   8.262  13.494   7.479  0.1544 -0.2659  0.1069
  967loPI   C4B14464   8.363  13.475   7.923 -0.0793 -0.0827  0.0040
  968loPI    C114465  11.798  10.758   5.234  0.0237  0.0656 -0.0605
  968loPI    C214466  11.784  11.152   5.166 -0.0141  0.1073  0.1793
  968loPI    C314467  11.495  10.915   5.025  0.1614  0.1221 -0.2201
  968loPI   PO414468  11.802  10.707   5.560  0.5186  0.1586 -0.4596
  968loPI   GL114469  11.937  10.800   6.026  0.3027  0.3631 -0.1555
  968loPI   GL214470  11.763  10.712   6.191  0.1290  0.1073 -0.1931
  968loPI   C1A14471  12.198  10.930   6.229  0.1822  0.0629  0.0727
  968loPI   C2A14472  12.267  10.777   6.656  0.3308 -0.3850  0.0760
  968loPI   C3A14473  12.103  10.653   7.022 -0.2531 -0.0294  0.3173
  968loPI   C4A14474  11.909  10.757   7.421  0.0894 -0.1104  0.0741
  968loPI   C5A14475  11.651  10.854   7.821  0.0020  0.1708  0.1747
  968loPI   C6A14476  11.752  11.121   8.149 -0.2957 -0.1993  0.0753
  968loPI   C1B14477  11.804  10.626   6.616  0.2757  0.0414  0.1163
  968loPI   C2B14478  11.552  10.602   7.014 -0.1011  0.0785 -0.2217
  968loPI   C3B14479  11.368  10.909   7.362 -0.1377 -0.2147 -0.0647
  968loPI   C4B14480  11.337  11.099   7.621 -0.0298 -0.4484 -0.2017
  969loPI    C114481   3.640   6.506   5.120 -0.1493  0.1308 -0.0324
  969loPI    C214482   3.311   6.635   5.307 -0.3616 -0.2604 -0.1239
  969loPI    C314483   3.357   6.701   4.915 -0.1955  0.0380 -0.0576
  969loPI   PO414484   3.636   6.239   5.230  0.3612  0.0140  0.1917
  969loPI   GL114485   3.850   6.074   5.641  0.0082  0.0459 -0.2213
  969loPI   GL214486   3.553   5.964   5.769 -0.3481 -0.0063 -0.1140
  969loPI   C1A14487   3.805   6.269   6.097  0.0458  0.1159  0.0460
  969loPI   C2A14488   3.693   6.376   6.469  0.1028  0.0210  0.1466
  969loPI   C3A14489   3.770   6.392   6.967  0.0043  0.0594  0.2589
  969loPI   C4A14490   3.955   6.269   7.433  0.0969  0.3405 -0.1782
  969loPI   C5A14491   4.045   6.363   7.844  0.1037 -0.2223  0.2210
  969loPI   C6A14492   4.187   6.670   7.969  0.1458  0.1302  0.3260
  969loPI   C1B14493   3.292   6.155   6.123  0.0354 -0.2168 -0.1582
  969loPI   C2B14494   3.268   6.253   6.639 -0.1772 -0.2378 -0.2510
  969loPI   C3B14495   3.204   6.497   6.966  0.2853 -0.0798  0.0147
  969loPI   C4B14496   3.385   6.716   7.210  0.2006 -0.0364 -0.2947
  970loPI    C114497  10.056  16.277   5.311  0.2033 -0.0584 -0.0055
  970loPI    C214498   9.894  15.916   5.250  0.2829 -0.0962  0.0055
  970loPI    C314499   9.963  16.160   4.940 -0.0608  0.0357  0.0291
  970loPI   PO414500   9.711  16.393   5.421 -0.4735  0.1443 -0.0728
  970loPI   GL114501   9.392  16.464   5.773  0.0884 -0.0286  0.1831
  970loPI   GL214502   9.017  16.311   5.683 -0.1442 -0.0434  0.4485
  970loPI   C1A14503   9.641  16.443   6.150 -0.4730  0.2398 -0.0981
  970loPI   C2A14504   9.831  16.395   6.457 -0.1608  0.2328 -0.0629
  970loPI   C3A14505   9.920  16.322   6.909  0.2641 -0.0417 -0.0190
  970loPI   C4A14506   9.846  15.976   7.216  0.0027 -0.0548  0.1147
  970loPI   C5A14507   9.823  15.916   7.700  0.2472 -0.1359  0.0043
  970loPI   C6A14508   9.838  15.555   8.072  0.1259  0.4282 -0.1448
  970loPI   C1B14509   8.993  16.236   6.148  0.0243  0.0938  0.0430
  970loPI   C2B14510   9.306  16.280   6.456 -0.0676  0.1229 -0.0344
  970loPI   C3B14511   9.174  16.469   6.885 -0.0581  0.1733  0.0322
  970loPI   C4B14512   9.038  16.598   7.252 -0.0592  0.0670 -0.3245
  971loPI    C114513  13.618  10.659   5.436 -0.1368  0.1628  0.0444
  971loPI    C214514  13.778  10.659   5.069 -0.1300 -0.0970  0.0455
  971loPI    C314515  13.389  10.739   5.117 -0.1069  0.0494 -0.0061
  971loPI   PO414516  13.775  10.789   5.597  0.0041 -0.3290 -0.0792
  971loPI   GL114517  13.664  10.880   5.924  0.1294 -0.1139 -0.0058
  971loPI   GL214518  13.792  11.154   6.081 -0.1486  0.0206  0.3072
  971loPI   C1A14519  14.044  10.710   6.243  0.5548 -0.2910 -0.1734
  971loPI   C2A14520  14.407  10.865   6.306  0.0404 -0.0519  0.2026
  971loPI   C3A14521  14.738  10.760   6.536 -0.3205  0.1196  0.0650
  971loPI   C4A14522  14.744  10.703   7.030  0.1561 -0.3588  0.0661
  971loPI   C5A14523  14.810  10.621   7.548  0.0537  0.2041 -0.1405
  971loPI   C6A14524  14.577  10.555   7.824  0.0247  0.1270 -0.0335
  971loPI   C1B14525  13.763  11.005   6.469 -0.0390 -0.1572  0.1920
  971loPI   C2B14526  14.099  10.865   6.725 -0.0658 -0.0400  0.2004
  971loPI   C3B14527  14.286  10.860   7.033  0.0932  0.0153  0.0304
  971loPI   C4B14528  14.334  10.743   7.419  0.1689 -0.1622  0.2869
  972loPI    C114529   7.240   8.961   6.018  0.0451  0.3007 -0.0492
  972loPI    C214530   7.542   9.060   5.775  0.1712  0.0562  0.0049
  972loPI    C314531   7.253   9.325   5.852  0.2658  0.2240 -0.2055
  972loPI   PO414532   7.110   8.717   5.939 -0.1150 -0.4327  0.0409
  972loPI   GL114533   6.864   8.598   6.219 -0.1351  0.3979 -0.1318
  972loPI   GL214534   6.803   8.893   6.306 -0.1622 -0.3425 -0.0937
  972loPI   C1A14535   6.879   8.508   6.649  0.2965  0.1301 -0.1544
  972loPI   C2A14536   6.908   8.579   7.109  0.0863  0.0931 -0.0147
  972loPI   C3A14537   7.020   8.661   7.539  0.2430  0.2154 -0.1215
  972loPI   C4A14538   7.352   8.831   7.613  0.0618 -0.0995 -0.1903
  972loPI   C5A14539   7.404   9.206   7.811 -0.3208  0.2513 -0.1580
  972loPI   C6A14540   7.668   9.307   8.082  0.0894  0.2244  0.1367
  972loPI   C1B14541   6.792   9.345   6.588  0.0422 -0.4194 -0.0960
  972loPI   C2B14542   6.752   9.607   6.971  0.0745 -0.1667  0.1658
  972loPI   C3B14543   6.830   9.837   7.408  0.2336 -0.0051 -0.0017
  972loPI   C4B14544   6.902  10.214   7.705 -0.2893 -0.0934 -0.1378
  973loPI    C114545   6.423  13.432   5.157 -0.2526 -0.1292  0.0390
  973loPI    C214546   6.640  13.198   4.916 -0.1055  0.0693 -0.0243
  973loPI    C314547   6.258  13.276   4.828 -0.1634 -0.1669  0.0116
  973loPI   PO414548   6.470  13.372   5.395  0.0237 -0.2598  0.1097
  973loPI   GL114549   6.314  13.261   5.726 -0.3323  0.3668  0.6008
  973loPI   GL214550   6.026  13.276   5.836 -0.0578 -0.4954  0.0067
  973loPI   C1A14551   6.578  13.173   6.018 -0.0359 -0.1252 -0.0442
  973loPI   C2A14552   6.704  13.277   6.401  0.1035  0.2446  0.0338
  973loPI   C3A14553   6.503  13.395   6.776 -0.1119  0.0215 -0.1358
  973loPI   C4A14554   6.547  13.372   7.220 -0.1534  0.0860 -0.4114
  973loPI   C5A14555   6.411  13.123   7.588 -0.1671 -0.1241 -0.1667
  973loPI   C6A14556   6.263  12.752   7.487 -0.3049  0.0443 -0.1551
  973loPI   C1B14557   6.136  13.203   6.234  0.2935 -0.1923  0.0764
  973loPI   C2B14558   6.059  13.209   6.732  0.1143 -0.1447 -0.0214
  973loPI   C3B14559   6.057  13.300   7.186 -0.2361  0.1467  0.0167
  973loPI   C4B14560   6.029  13.407   7.726  0.1187  0.2481  0.0152
  974loPI    C114561   2.867   6.401   5.032  0.2984  0.0716 -0.0829
  974loPI    C214562   3.205   6.210   4.938  0.2336  0.0155 -0.2044
  974loPI    C314563   2.864   6.113   4.754  0.1986  0.2435 -0.2623
  974loPI   PO414564   2.844   6.426   5.438  0.0761 -0.0912  0.1200
  974loPI   GL114565   2.869   6.299   5.794 -0.0994 -0.3115 -0.1093
  974loPI   GL214566   2.518   6.157   5.767 -0.1687  0.0108  0.3569
  974loPI   C1A14567   2.834   6.253   6.245  0.0922 -0.0489 -0.1131
  974loPI   C2A14568   2.785   6.287   6.719 -0.0579 -0.0840 -0.2870
  974loPI   C3A14569   2.726   6.180   7.145  0.0809 -0.2051  0.1429
  974loPI   C4A14570   2.983   6.223   7.431 -0.1270  0.5389 -0.2831
  974loPI   C5A14571   2.907   6.148   7.872  0.2132 -0.0491 -0.2669
  974loPI   C6A14572   2.659   5.870   8.058 -0.2512  0.1160 -0.2262
  974loPI   C1B14573   2.283   6.133   6.047  0.3329  0.0648  0.0195
  974loPI   C2B14574   2.236   6.315   6.406 -0.0673  0.1248 -0.0313
  974loPI   C3B14575   2.331   6.289   6.806  0.2206  0.2531 -0.3013
  974loPI   C4B14576   2.371   6.462   7.270 -0.2917 -0.3335 -0.1007
  975loPI    C114577  11.922   7.283   5.716 -0.1726 -0.0502 -0.2891
  975loPI    C214578  12.103   7.598   5.549 -0.1822  0.0160 -0.1758
  975loPI    C314579  12.041   7.266   5.335 -0.0223  0.0309 -0.2466
  975loPI   PO414580  11.994   7.215   5.904 -0.1395  0.2627  0.3613
  975loPI   GL114581  11.964   7.231   6.269  0.0170  0.1421  0.1832
  975loPI   GL214582  12.260   7.402   6.274  0.1065 -0.3340  0.0937
  975loPI   C1A14583  11.831   7.017   6.598  0.1608  0.2422  0.2325
  975loPI   C2A14584  11.788   6.880   6.984  0.0149 -0.2089 -0.0583
  975loPI   C3A14585  11.682   6.877   7.505  0.1240 -0.0394 -0.0351
  975loPI   C4A14586  11.728   7.160   7.733 -0.0943  0.0371  0.2877
  975loPI   C5A14587  11.913   7.383   8.101 -0.1834  0.1261  0.0861
  975loPI   C6A14588  12.056   7.504   8.466 -0.1195  0.0735 -0.0915
  975loPI   C1B14589  12.372   7.058   6.607  0.0656  0.2517 -0.2131
  975loPI   C2B14590  12.268   6.919   7.009  0.0802  0.1880 -0.4415
  975loPI   C3B14591  12.149   6.942   7.345 -0.2688 -0.0055  0.1120
  975loPI   C4B14592  12.250   7.145   7.729  0.1399 -0.0171  0.1584
  976loPI    C114593  13.071   0.205   5.066 -0.2473 -0.1566  0.1813
  976loPI    C214594  12.723   0.400   5.039 -0.0582  0.1597 -0.0478
  976loPI    C314595  12.877   0.222   4.716 -0.1071 -0.1616  0.1025
  976loPI   PO414596  13.214   0.448   5.271 -0.4998  0.0320  0.0695
  976loPI   GL114597  13.260   0.551   5.673 -0.2856  0.0319  0.2471
  976loPI   GL214598  13.034   0.203   5.764  0.3975  0.0238 -0.1040
  976loPI   C1A14599  13.133   0.634   6.039 -0.0275  0.0888 -0.1030
  976loPI   C2A14600  12.974   0.791   6.413 -0.1138  0.0095 -0.1502
  976loPI   C3A14601  12.927   0.878   6.927 -0.2163  0.3035  0.1126
  976loPI   C4A14602  13.031   0.916   7.410 -0.0003  0.2739  0.1029
  976loPI   C5A14603  13.067   1.022   7.772  0.1147 -0.2153 -0.1209
  976loPI   C6A14604  12.878   1.378   8.028 -0.0558  0.0867 -0.0937
  976loPI   C1B14605  13.003   0.201   6.139 -0.0053 -0.2078  0.0119
  976loPI   C2B14606  13.042   0.296   6.512 -0.1461 -0.1987  0.0237
  976loPI   C3B14607  13.202   0.305   6.987  0.1811 -0.2987 -0.0828
  976loPI   C4B14608  13.305   0.583   7.211  0.1676 -0.0497  0.0213
  977loPI    C114609   3.831   1.183   5.006 -0.0554 -0.1769  0.1287
  977loPI    C214610   3.667   0.983   4.701 -0.1937 -0.1321  0.1731
  977loPI    C314611   3.583   1.370   4.754 -0.0569 -0.1035  0.1844
  977loPI   PO414612   3.862   1.076   5.242  0.0336 -0.2426 -0.1424
  977loPI   GL114613   3.820   0.915   5.673 -0.0439 -0.0349  0.3317
  977loPI   GL214614   3.564   0.717   5.605  0.0210 -0.0093  0.1856
  977loPI   C1A14615   3.826   1.020   6.108 -0.0158 -0.3031 -0.1889
  977loPI   C2A14616   3.842   0.975   6.582  0.0883 -0.1514  0.3839
  977loPI   C3A14617   3.908   0.958   7.032 -0.1150 -0.0419 -0.2619
  977loPI   C4A14618   3.863   0.805   7.436  0.3633 -0.1206 -0.1402
  977loPI   C5A14619   4.074   0.921   7.831  0.0339 -0.3352  0.0548
  977loPI   C6A14620   4.223   1.013   8.186 -0.1857  0.2262 -0.0275
  977loPI   C1B14621   3.325   0.749   5.840 -0.3027  0.0093  0.2939
  977loPI   C2B14622   3.362   0.878   6.293  0.0925 -0.1517 -0.0562
  977loPI   C3B14623   3.327   0.811   6.690 -0.0309  0.0291 -0.1929
  977loPI   C4B14624   3.368   0.696   7.120 -0.0425 -0.1175  0.0724
  978loPI    C114625   9.042  12.716   5.673  0.1414  0.0293  0.0989
  978loPI    C214626   8.986  12.333   5.575  0.1929  0.0974 -0.2048
  978loPI    C314627   9.326  12.446   5.753  0.2941  0.0454 -0.3627
  978loPI   PO414628   8.797  12.771   5.784  0.0229  0.0581 -0.0594
  978loPI   GL114629   8.699  12.473   6.011 -0.1091 -0.2774 -0.2596
  978loPI   GL214630   8.783  12.195   6.056 -0.0395  0.0256  0.1118
  978loPI   C1A14631   8.496  12.664   6.325 -0.0754  0.2479  0.0093
  978loPI   C2A14632   8.549  12.770   6.673 -0.0209 -0.2393 -0.0956
  978loPI   C3A14633   8.751  12.581   6.980  0.0201 -0.2361 -0.1643
  978loPI   C4A14634   8.689  12.326   7.240  0.1075  0.0898 -0.3592
  978loPI   C5A14635   8.741  12.188   7.641  0.1670  0.2939  0.0651
  978loPI   C6A14636   9.009  11.932   7.946  0.2326 -0.1743 -0.1131
  978loPI   C1B14637   8.948  12.344   6.561  0.0916 -0.0503 -0.0403
  978loPI   C2B14638   9.271  12.616   6.832 -0.1210 -0.0212  0.2144
  978loPI   C3B14639   9.458  12.892   6.858 -0.0791  0.1714 -0.1275
  978loPI   C4B14640   9.759  13.090   7.106 -0.4271 -0.1696 -0.2042
  979loPI    C114641   0.027  11.558   4.969  0.1807 -0.3838 -0.2720
  979loPI    C214642  -0.021  11.929   4.828 -0.0947 -0.2170  0.2333
  979loPI    C314643   0.263  11.692   4.676  0.0357  0.1701 -0.1472
  979loPI   PO414644   0.023  11.640   5.283 -0.3796 -0.0541  0.0873
  979loPI   GL114645  -0.102  11.734   5.700  0.4387  0.0136  0.1635
  979loPI   GL214646  -0.271  11.581   5.645 -0.0085  0.2289  0.0538
  979loPI   C1A14647   0.007  11.882   6.074  0.2797  0.4046  0.3806
  979loPI   C2A14648  -0.053  11.865   6.432 -0.1992 -0.2508 -0.0162
  979loPI   C3A14649  -0.340  12.085   6.729 -0.0498  0.2301  0.1293
  979loPI   C4A14650  -0.396  12.067   7.160 -0.2002  0.2157  0.0099
  979loPI   C5A14651  -0.672  12.077   7.484  0.0992  0.1823 -0.0686
  979loPI   C6A14652  -0.837  11.801   7.763 -0.4756  0.0841  0.0400
  979loPI   C1B14653  -0.482  11.829   5.970 -0.1713 -0.0899 -0.2657
  979loPI   C2B14654  -0.635  11.915   6.361 -0.2253 -0.1184  0.0126
  979loPI   C3B14655  -0.874  12.221   6.608  0.2646  0.1010 -0.2294
  979loPI   C4B14656  -0.848  12.234   7.060  0.0276 -0.0682  0.0245
  980loPI    C114657   7.954  10.919   5.521 -0.1430  0.0172  0.0902
  980loPI    C214658   7.954  10.528   5.434 -0.0744  0.0409 -0.0193
  980loPI    C314659   8.261  10.758   5.320 -0.2051  0.1640 -0.1262
  980loPI   PO414660   7.834  10.947   5.751  0.2565 -0.1257  0.1198
  980loPI   GL114661   7.953  11.064   6.082 -0.1583  0.3440  0.1152
  980loPI   GL214662   8.241  11.284   6.288  0.1747  0.2856  0.1140
  980loPI   C1A14663   7.853  10.802   6.385  0.1139  0.2548  0.0026
  980loPI   C2A14664   7.746  10.660   6.777 -0.2414  0.0758  0.0130
  980loPI   C3A14665   7.749  10.632   7.170 -0.1736 -0.2322 -0.1005
  980loPI   C4A14666   7.599  10.525   7.496 -0.1136  0.3131 -0.1788
  980loPI   C5A14667   7.826  10.469   7.813 -0.2367 -0.1958  0.0531
  980loPI   C6A14668   7.829  10.249   8.219  0.2074  0.0341  0.2516
  980loPI   C1B14669   7.915  11.323   6.552 -0.0282 -0.1234  0.1078
  980loPI   C2B14670   7.677  11.166   6.881  0.3045 -0.0825  0.0874
  980loPI   C3B14671   7.528  11.082   7.265  0.1998  0.1458  0.1289
  980loPI   C4B14672   7.727  11.005   7.693 -0.1304  0.0216 -0.1655
  981loPI    C114673   7.287  14.431   4.921 -0.0540 -0.0950  0.2510
  981loPI    C214674   6.939  14.564   5.068 -0.2053 -0.2173  0.0102
  981loPI    C314675   6.998  14.551   4.673  0.1365 -0.0430  0.0512
  981loPI   PO414676   7.433  14.489   5.136  0.1066 -0.3437 -0.1737
  981loPI   GL114677   7.331  14.635   5.486 -0.0449  0.1271 -0.0116
  981loPI   GL214678   7.248  14.888   5.357 -0.2060 -0.2139  0.2265
  981loPI   C1A14679   7.268  14.562   5.889 -0.1571  0.1809 -0.0435
  981loPI   C2A14680   7.046  14.597   6.141 -0.1210 -0.0267  0.0853
  981loPI   C3A14681   6.971  14.714   6.479  0.3183  0.0787 -0.0963
  981loPI   C4A14682   7.026  14.780   6.857 -0.0159  0.2269  0.0458
  981loPI   C5A14683   7.245  14.765   7.193  0.0288 -0.1839 -0.0022
  981loPI   C6A14684   7.417  14.751   7.595  0.1112 -0.1964  0.0330
  981loPI   C1B14685   7.237  15.101   5.775 -0.1091  0.0061 -0.3158
  981loPI   C2B14686   7.097  15.095   6.165  0.1098  0.0876 -0.1146
  981loPI   C3B14687   7.105  15.328   6.709 -0.2457 -0.1566 -0.1368
  981loPI   C4B14688   7.276  15.517   7.094 -0.1263  0.1616  0.1585
  982loPI    C114689  16.818   7.734   5.169  0.0751  0.1046  0.1546
  982loPI    C214690  16.884   7.376   5.004  0.1548  0.0707  0.2591
  982loPI    C314691  16.538   7.565   4.939  0.2607  0.1474 -0.1074
  982loPI   PO414692  16.876   7.692   5.449  0.1891  0.1003 -0.0440
  982loPI   GL114693  16.676   7.868   5.823  0.1481 -0.0323 -0.3618
  982loPI   GL214694  16.750   8.124   5.975 -0.1874  0.1717 -0.2115
  982loPI   C1A14695  16.546   7.804   6.287  0.1958 -0.0868  0.0478
  982loPI   C2A14696  16.408   7.520   6.645 -0.0183 -0.0703 -0.0748
  982loPI   C3A14697  16.520   7.505   7.073  0.0106 -0.0984 -0.2552
  982loPI   C4A14698  16.537   7.572   7.480  0.4606 -0.0882 -0.0033
  982loPI   C5A14699  16.733   7.373   7.847  0.0911  0.0455 -0.0492
  982loPI   C6A14700  16.855   7.143   8.245 -0.0090  0.0733  0.3466
  982loPI   C1B14701  16.903   8.351   6.390  0.0673 -0.2044  0.3760
  982loPI   C2B14702  17.133   8.579   6.721 -0.1407 -0.0506 -0.0301
  982loPI   C3B14703  17.170   8.993   6.704  0.0171 -0.0075  0.0837
  982loPI   C4B14704  17.339   9.261   6.963  0.2688 -0.2637  0.0467
  983loPI    C114705   8.140  11.428   5.512  0.2792  0.1082  0.2959
  983loPI    C214706   8.520  11.338   5.428  0.2001 -0.0506  0.0997
  983loPI    C314707   8.229  11.231   5.175 -0.0041 -0.1802  0.3844
  983loPI   PO414708   8.163  11.455   5.784 -0.1629  0.4249  0.2143
  983loPI   GL114709   8.647  11.392   5.913 -0.0293 -0.3184 -0.2637
  983loPI   GL214710   8.519  11.626   6.132 -0.0044  0.0257 -0.3035
  983loPI   C1A14711   8.738  11.232   6.330 -0.2922 -0.1473 -0.0592
  983loPI   C2A14712   8.761  11.183   6.726 -0.0633 -0.0051 -0.0422
  983loPI   C3A14713   8.577  11.126   7.085 -0.0176 -0.1651 -0.1351
  983loPI   C4A14714   8.582  11.181   7.495 -0.1046 -0.1457 -0.1608
  983loPI   C5A14715   8.472  11.287   7.850 -0.2870  0.0215 -0.1711
  983loPI   C6A14716   8.204  11.254   8.214 -0.1821 -0.0930  0.0321
  983loPI   C1B14717   8.404  11.693   6.545  0.1323  0.1033  0.1455
  983loPI   C2B14718   8.258  11.441   6.899 -0.1257 -0.2078  0.1770
  983loPI   C3B14719   8.153  11.231   7.351 -0.1527  0.2612  0.0684
  983loPI   C4B14720   8.136  10.836   7.603 -0.5050 -0.0082 -0.1082
  984loPI    C114721   5.236   7.982   5.414  0.3203 -0.0091 -0.2590
  984loPI    C214722   5.119   7.611   5.320  0.0446  0.0163 -0.0309
  984loPI    C314723   5.390   7.799   5.093 -0.1063 -0.1739 -0.3763
  984loPI   PO414724   5.178   8.050   5.603  0.1363  0.2284 -0.1911
  984loPI   GL114725   5.103   8.394   5.919 -0.1017  0.2924 -0.2297
  984loPI   GL214726   4.874   8.159   6.021  0.0650  0.2842 -0.0894
  984loPI   C1A14727   5.499   8.270   6.159  0.0204  0.4172  0.1358
  984loPI   C2A14728   5.575   8.302   6.546  0.1222 -0.0868 -0.0901
  984loPI   C3A14729   5.612   8.242   6.945 -0.0058  0.1156  0.1314
  984loPI   C4A14730   5.435   8.259   7.288  0.1318  0.0284  0.0371
  984loPI   C5A14731   5.272   8.306   7.630  0.0700  0.1731 -0.0435
  984loPI   C6A14732   4.999   8.145   7.979  0.2208 -0.1146  0.2896
  984loPI   C1B14733   5.069   8.111   6.433  0.0621  0.0493  0.2415
  984loPI   C2B14734   5.154   8.132   6.859 -0.0760  0.1541 -0.0159
  984loPI   C3B14735   4.913   8.089   7.219  0.0471  0.0047 -0.1820
  984loPI   C4B14736   4.703   7.937   7.669  0.3196  0.0068 -0.1252
  985loPI    C114737  11.797   5.353   5.174  0.2685 -0.0284 -0.2214
  985loPI    C214738  11.916   5.677   4.971  0.0196  0.0440 -0.2551
  985loPI    C314739  11.681   5.406   4.795 -0.2353  0.1293 -0.0535
  985loPI   PO414740  11.850   5.566   5.501 -0.0083  0.5170  0.0620
  985loPI   GL114741  11.751   5.565   5.917  0.0424 -0.1399 -0.0197
  985loPI   GL214742  11.595   5.728   5.990  0.2277 -0.2111  0.3057
  985loPI   C1A14743  12.079   5.559   6.233  0.0609  0.1761  0.1559
  985loPI   C2A14744  12.077   5.478   6.690 -0.2879 -0.1365 -0.0975
  985loPI   C3A14745  11.951   5.406   7.129  0.0502  0.2134 -0.3599
  985loPI   C4A14746  11.900   5.536   7.547 -0.0301 -0.0816  0.2304
  985loPI   C5A14747  12.117   5.710   7.874 -0.1974 -0.0873  0.0731
  985loPI   C6A14748  12.591   5.710   7.974  0.1953 -0.0472 -0.2823
  985loPI   C1B14749  11.555   5.559   6.493  0.3136 -0.2315 -0.0253
  985loPI   C2B14750  11.534   5.526   6.862  0.2572 -0.2575  0.0443
  985loPI   C3B14751  11.528   5.619   7.236  0.2522 -0.1259  0.0240
  985loPI   C4B14752  11.416   5.548   7.605 -0.1135  0.0242 -0.0476
  986loPI    C114753   5.513  16.049   5.159 -0.0541  0.0172 -0.0298
  986loPI    C214754   5.627  16.220   4.816 -0.0083 -0.0090 -0.0279
  986loPI    C314755   5.412  16.429   5.081  0.1212  0.0734  0.0131
  986loPI   PO414756   5.717  15.770   5.256  0.0212  0.1578 -0.0876
  986loPI   GL114757   5.882  15.744   5.648 -0.0523  0.0625 -0.7013
  986loPI   GL214758   5.690  15.432   5.678  0.2651 -0.0987  0.0848
  986loPI   C1A14759   6.111  15.600   5.925 -0.2751 -0.2209 -0.0191
  986loPI   C2A14760   6.219  15.511   6.357  0.0050 -0.0577 -0.2778
  986loPI   C3A14761   6.256  15.560   6.840 -0.0372  0.1401 -0.0622
  986loPI   C4A14762   6.374  15.961   7.029 -0.1105 -0.1452  0.0054
  986loPI   C5A14763   6.710  16.113   7.344 -0.1477  0.4335  0.0980
  986loPI   C6A14764   7.172  16.130   7.404 -0.2650  0.2391 -0.3391
  986loPI   C1B14765   5.629  15.452   6.155 -0.3107 -0.0052 -0.1971
  986loPI   C2B14766   5.666  15.458   6.612  0.0219  0.1940  0.1463
  986loPI   C3B14767   5.758  15.637   7.020  0.1836 -0.0784 -0.1179
  986loPI   C4B14768   5.678  15.696   7.488  0.2080  0.3515  0.0056
  987loPI    C114769   7.248  13.857   5.517 -0.0571 -0.0212 -0.1481
  987loPI    C214770   7.287  13.956   5.131 -0.1213  0.2126 -0.0958
  987loPI    C314771   7.051  14.173   5.371 -0.0489  0.0938  0.0850
  987loPI   PO414772   7.517  13.638   5.552 -0.2023 -0.1442 -0.2814
  987loPI   GL114773   7.851  13.558   5.856 -0.1149  0.0196  0.1913
  987loPI   GL214774   8.053  13.825   5.961 -0.2834  0.0662  0.1430
  987loPI   C1A14775   7.804  13.426   6.271  0.3062 -0.2588 -0.0659
  987loPI   C2A14776   7.741  13.353   6.697  0.2399 -0.2399  0.1751
  987loPI   C3A14777   7.595  13.444   6.986  0.1376  0.1615  0.0026
  987loPI   C4A14778   7.748  13.544   7.338 -0.1675 -0.3107  0.1483
  987loPI   C5A14779   7.826  13.717   7.712  0.0057  0.0095 -0.0171
  987loPI   C6A14780   8.175  13.973   7.943 -0.2402  0.1469 -0.0959
  987loPI   C1B14781   7.958  13.920   6.273  0.1775 -0.0150  0.2011
  987loPI   C2B14782   7.913  13.821   6.610  0.1192 -0.0556 -0.1198
  987loPI   C3B14783   7.850  13.988   7.073  0.0681  0.1634  0.0601
  987loPI   C4B14784   8.049  14.020   7.369  0.0074  0.0704 -0.3665
  988loPI    C114785  14.298   4.866   5.234  0.1676 -0.0338 -0.0129
  988loPI    C214786  14.687   4.790   5.181  0.2062  0.1577 -0.0096
  988loPI    C314787  14.474   4.959   4.887  0.0990 -0.0480 -0.0515
  988loPI   PO414788  14.219   4.680   5.340  0.3273  0.0030 -0.0638
  988loPI   GL114789  14.450   4.546   5.672  0.0816  0.2683 -0.1685
  988loPI   GL214790  14.744   4.822   5.742  0.4672 -0.1890 -0.2215
  988loPI   C1A14791  14.302   4.859   5.992 -0.1768 -0.3050 -0.2098
  988loPI   C2A14792  14.364   4.980   6.443 -0.1588 -0.4931 -0.2445
  988loPI   C3A14793  14.290   5.012   6.838  0.1713 -0.0744  0.2516
  988loPI   C4A14794  14.178   4.953   7.254  0.1374 -0.0092 -0.1487
  988loPI   C5A14795  14.126   5.032   7.714 -0.0148  0.1564 -0.0796
  988loPI   C6A14796  13.836   4.784   8.027  0.0840 -0.0602  0.2756
  988loPI   C1B14797  14.820   4.966   6.167 -0.3488 -0.1457  0.0319
  988loPI   C2B14798  14.799   4.909   6.639 -0.1420 -0.2970 -0.2835
  988loPI   C3B14799  14.785   4.983   7.049 -0.1577 -0.2465  0.1473
  988loPI   C4B14800  14.635   4.780   7.475 -0.0477  0.0646  0.0831
  989loPI    C114801   9.656  12.559   6.154  0.0292  0.0732 -0.0827
  989loPI    C214802   9.707  12.185   6.286  0.0805  0.1853  0.2225
  989loPI    C314803   9.338  12.332   6.240  0.0559  0.0305 -0.0966
  989loPI   PO414804   9.826  12.573   5.998  0.1409  0.0446 -0.1554
  989loPI   GL114805  10.227  12.554   6.116  0.1467 -0.1804 -0.2424
  989loPI   GL214806  10.351  12.823   6.263 -0.1121  0.2262 -0.1249
  989loPI   C1A14807  10.188  12.216   6.495 -0.2195 -0.0968 -0.3657
  989loPI   C2A14808  10.152  12.177   6.932  0.1893 -0.0787 -0.3113
  989loPI   C3A14809  10.210  12.361   7.323 -0.3386 -0.2032 -0.0933
  989loPI   C4A14810  10.380  12.416   7.736 -0.0462  0.1703 -0.1389
  989loPI   C5A14811  10.701  12.425   8.116  0.1772 -0.0498  0.0442
  989loPI   C6A14812  10.891  12.322   8.558  0.2312  0.1865 -0.0843
  989loPI   C1B14813  10.273  12.784   6.668  0.1412 -0.0633 -0.3643
  989loPI   C2B14814  10.163  12.766   7.011  0.0253  0.0407  0.0542
  989loPI   C3B14815   9.913  12.717   7.380 -0.5111  0.1741  0.1478
  989loPI   C4B14816   9.788  12.530   7.690 -0.1455  0.0345  0.1166
  990loPI    C114817  16.954   3.040   5.132 -0.1723 -0.1518  0.1278
  990loPI    C214818  17.217   3.341   5.132 -0.2609 -0.0708 -0.2035
  990loPI    C314819  17.311   2.992   4.959 -0.2960 -0.1097 -0.1444
  990loPI   PO414820  16.892   2.995   5.346  0.0636 -0.0318 -0.1783
  990loPI   GL114821  16.966   3.160   5.692 -0.1994 -0.2213  0.1634
  990loPI   GL214822  16.684   3.241   5.822 -0.3432  0.2354  0.1220
  990loPI   C1A14823  17.125   2.918   5.963 -0.1243 -0.1551  0.0468
  990loPI   C2A14824  17.233   2.627   6.368  0.0362  0.1441 -0.0870
  990loPI   C3A14825  17.148   2.332   6.688 -0.0729  0.0575 -0.1104
  990loPI   C4A14826  17.175   2.239   7.006 -0.3567 -0.0163  0.0002
  990loPI   C5A14827  16.934   2.194   7.433 -0.4019 -0.1221  0.0700
  990loPI   C6A14828  16.906   2.147   7.790  0.0011  0.1456 -0.2295
  990loPI   C1B14829  16.430   3.298   6.119 -0.1012  0.1549 -0.2686
  990loPI   C2B14830  16.342   3.287   6.541 -0.1014  0.1223  0.2198
  990loPI   C3B14831  16.365   3.051   6.836 -0.1384  0.1343 -0.2395
  990loPI   C4B14832  16.465   3.107   7.315  0.2151 -0.0486  0.3394
  991loPI    C114833   8.877  15.691   5.393  0.1287 -0.1852 -0.2028
  991loPI    C214834   8.934  15.687   4.997  0.0892 -0.2104 -0.2083
  991loPI    C314835   8.611  15.511   5.154 -0.1100  0.1543 -0.1990
  991loPI   PO414836   8.887  15.899   5.451 -0.0654  0.0716 -0.1276
  991loPI   GL114837   9.170  15.821   5.829  0.1175 -0.1154 -0.0615
  991loPI   GL214838   9.405  15.719   5.844  0.0906 -0.1547  0.0996
  991loPI   C1A14839   9.176  15.767   6.325 -0.0447  0.0358  0.1052
  991loPI   C2A14840   9.534  15.477   6.606  0.1602  0.4571 -0.0453
  991loPI   C3A14841   9.594  15.560   6.986  0.2203 -0.1538 -0.2922
  991loPI   C4A14842   9.574  15.569   7.467  0.1322 -0.1258  0.1701
  991loPI   C5A14843   9.409  15.424   7.879 -0.1214  0.3865 -0.1171
  991loPI   C6A14844   9.362  14.972   8.075  0.1379 -0.0141  0.2942
  991loPI   C1B14845   9.615  15.925   6.160  0.1380 -0.4726  0.2275
  991loPI   C2B14846   9.704  15.942   6.600 -0.0233 -0.4282  0.2225
  991loPI   C3B14847   9.418  16.061   6.956  0.0240  0.1946  0.0608
  991loPI   C4B14848   9.371  16.230   7.385 -0.0719 -0.0606 -0.1110
  992loPI    C114849  12.778   3.874   4.632 -0.1512  0.1114 -0.0970
  992loPI    C214850  13.073   4.138   4.688  0.1642 -0.2051 -0.2284
  992loPI    C314851  12.875   4.129   4.340 -0.0740  0.0738 -0.1045
  992loPI   PO414852  12.682   3.837   4.890 -0.3268 -0.2385 -0.3015
  992loPI   GL114853  12.641   3.809   5.396  0.1203  0.1715  0.1694
  992loPI   GL214854  12.906   3.516   5.401  0.1315 -0.0640  0.2316
  992loPI   C1A14855  12.685   4.054   5.777 -0.0930 -0.3770 -0.3165
  992loPI   C2A14856  12.776   4.116   6.132  0.0461  0.0185  0.0766
  992loPI   C3A14857  12.706   4.089   6.643 -0.0908 -0.1808  0.2524
  992loPI   C4A14858  12.672   3.998   7.093 -0.0567 -0.3666 -0.1051
  992loPI   C5A14859  12.772   4.008   7.513  0.1702  0.0535  0.0445
  992loPI   C6A14860  12.838   4.353   7.821  0.0165 -0.2477 -0.1881
  992loPI   C1B14861  12.897   3.602   5.907  0.1356  0.1708 -0.1896
  992loPI   C2B14862  12.830   3.661   6.362  0.1327  0.2303  0.0047
  992loPI   C3B14863  12.850   3.565   6.826  0.2029 -0.0746 -0.0914
  992loPI   C4B14864  12.926   3.560   7.306 -0.0683  0.0601 -0.0654
  993loPI    C114865  13.086  14.009   5.518  0.1068  0.0183 -0.0598
  993loPI    C214866  13.181  14.357   5.344  0.0949  0.0789  0.0537
  993loPI    C314867  13.446  14.057   5.352  0.1988  0.1727  0.1786
  993loPI   PO414868  12.956  14.069   5.794 -0.1221 -0.0725 -0.5002
  993loPI   GL114869  12.838  13.806   6.030  0.0447  0.0464  0.0763
  993loPI   GL214870  12.478  13.688   6.195  0.2348 -0.0272 -0.1225
  993loPI   C1A14871  12.920  13.888   6.460  0.1184  0.0124 -0.0430
  993loPI   C2A14872  13.062  13.981   6.788  0.1242 -0.1620 -0.3181
  993loPI   C3A14873  13.128  14.071   7.147 -0.1537 -0.1189 -0.0445
  993loPI   C4A14874  13.020  14.154   7.586  0.0730 -0.1155 -0.1708
  993loPI   C5A14875  13.244  13.928   7.979 -0.0760  0.4618  0.2078
  993loPI   C6A14876  12.938  13.800   8.359  0.0512  0.3133 -0.3355
  993loPI   C1B14877  12.499  13.664   6.589  0.1653  0.0542  0.2936
  993loPI   C2B14878  12.515  13.666   6.932  0.0527  0.1390  0.1088
  993loPI   C3B14879  12.497  13.427   7.340  0.1657 -0.1775 -0.0658
  993loPI   C4B14880  12.307  13.482   7.722 -0.0361 -0.3332  0.6045
  994loPI    C114881  10.973  13.096   5.518 -0.1227 -0.0862 -0.2745
  994loPI    C214882  10.760  13.354   5.737  0.1248  0.0448 -0.1835
  994loPI    C314883  10.578  13.124   5.464 -0.1638 -0.0066  0.0476
  994loPI   PO414884  11.230  13.071   5.784  0.0458 -0.1122 -0.0119
  994loPI   GL114885  11.177  12.951   6.222  0.0013 -0.3622  0.2795
  994loPI   GL214886  10.817  13.074   6.160  0.5308 -0.0814  0.0912
  994loPI   C1A14887  11.158  12.859   6.690 -0.0745  0.0330 -0.2195
  994loPI   C2A14888  11.167  12.862   7.114  0.1266  0.1109 -0.0393
  994loPI   C3A14889  11.118  12.955   7.528  0.2197 -0.1008 -0.0297
  994loPI   C4A14890  11.135  13.095   7.925 -0.0064  0.1737 -0.1996
  994loPI   C5A14891  11.322  13.295   8.369  0.0776 -0.1061 -0.0601
  994loPI   C6A14892  11.581  13.543   8.458 -0.0641 -0.0628 -0.1390
  994loPI   C1B14893  10.737  13.189   6.487 -0.0810  0.0145 -0.2542
  994loPI   C2B14894  10.773  13.138   6.931  0.0326 -0.2138 -0.0183
  994loPI   C3B14895  10.743  13.258   7.396 -0.0274  0.2137 -0.4063
  994loPI   C4B14896  10.821  13.666   7.625 -0.2053  0.0429 -0.0966
  995loPI    C114897  12.595  11.151   5.520  0.0558 -0.0387  0.3867
  995loPI    C214898  12.318  10.925   5.700 -0.1563 -0.0793  0.0201
  995loPI    C314899  12.346  10.926   5.301  0.0525  0.3001  0.0309
  995loPI   PO414900  12.840  11.041   5.701 -0.1554  0.1175  0.1463
  995loPI   GL114901  12.927  11.211   6.120  0.1447  0.1265 -0.2598
  995loPI   GL214902  13.211  11.282   5.997 -0.2063  0.0864  0.1130
  995loPI   C1A14903  12.933  11.173   6.568 -0.2251 -0.0404  0.0401
  995loPI   C2A14904  12.940  11.185   7.017 -0.2261 -0.4585 -0.1381
  995loPI   C3A14905  13.289  11.112   7.279  0.0302  0.1157  0.0928
  995loPI   C4A14906  13.476  11.239   7.664 -0.2835  0.0937  0.3030
  995loPI   C5A14907  13.673  11.026   7.953 -0.0023 -0.1109 -0.2350
  995loPI   C6A14908  14.050  10.790   7.828 -0.1410  0.0449 -0.0039
  995loPI   C1B14909  13.383  11.366   6.368 -0.0860 -0.3200 -0.3320
  995loPI   C2B14910  13.447  11.241   6.781  0.0750 -0.1394 -0.3958
  995loPI   C3B14911  13.730  11.006   7.035  0.0855 -0.2665  0.2978
  995loPI   C4B14912  13.896  10.966   7.410  0.1706  0.1351  0.1091
  996loPI    C114913  16.285  12.801   5.683 -0.0053 -0.0612 -0.0802
  996loPI    C214914  15.975  12.948   5.477 -0.0756  0.0218  0.0826
  996loPI    C314915  16.337  13.113   5.438 -0.0192 -0.1647 -0.2162
  996loPI   PO414916  16.156  12.547   5.771  0.4316 -0.0684  0.3383
  996loPI   GL114917  16.271  12.225   6.024 -0.3402 -0.2610 -0.0566
  996loPI   GL214918  16.379  11.946   5.836 -0.1494  0.0949 -0.3944
  996loPI   C1A14919  16.320  12.243   6.540 -0.0169 -0.4149  0.0328
  996loPI   C2A14920  16.680  12.174   6.767  0.0510  0.2053 -0.0461
  996loPI   C3A14921  17.018  12.062   7.033 -0.1203  0.0514  0.2829
  996loPI   C4A14922  17.102  12.097   7.405  0.1266 -0.0768  0.0663
  996loPI   C5A14923  17.352  12.343   7.806 -0.0497 -0.2829 -0.0378
  996loPI   C6A14924  17.853  12.151   8.014  0.2148 -0.3182  0.3292
  996loPI   C1B14925  16.726  12.212   6.205 -0.0455  0.2327  0.1226
  996loPI   C2B14926  17.084  12.268   6.409 -0.0833  0.0608 -0.2185
  996loPI   C3B14927  17.079  12.501   6.833 -0.0964  0.3365 -0.0170
  996loPI   C4B14928  17.069  12.866   6.968 -0.3016 -0.2747  0.0219
  997loPI    C114929  10.831  10.379   5.454  0.0685 -0.1543 -0.0560
  997loPI    C214930  10.776  10.715   5.244 -0.0533 -0.1122  0.0416
  997loPI    C314931  10.503  10.423   5.229 -0.0134 -0.1508  0.0629
  997loPI   PO414932  10.811  10.456   5.689 -0.1114 -0.0513  0.1586
  997loPI   GL114933  10.987  10.450   6.103 -0.0719  0.0556  0.0479
  997loPI   GL214934  11.287  10.513   6.171  0.5049 -0.1178  0.0193
  997loPI   C1A14935  10.906  10.553   6.473 -0.0378  0.0403  0.1428
  997loPI   C2A14936  11.087  10.539   6.890  0.3806 -0.0266  0.0318
  997loPI   C3A14937  11.204  10.439   7.334  0.4107  0.1519  0.1179
  997loPI   C4A14938  11.531  10.463   7.539  0.2749 -0.0522  0.2350
  997loPI   C5A14939  11.976  10.192   7.668  0.0917  0.0711 -0.1494
  997loPI   C6A14940  12.317   9.929   7.772  0.4480  0.0559 -0.0383
  997loPI   C1B14941  11.365  10.772   6.453 -0.0770  0.0362  0.3129
  997loPI   C2B14942  11.275  11.031   6.802 -0.2338 -0.0973 -0.1108
  997loPI   C3B14943  11.299  11.335   7.089 -0.1070  0.3056  0.2302
  997loPI   C4B14944  11.319  11.541   7.452  0.0273  0.1806 -0.4980
  998loPI    C114945  17.670   9.026   4.776  0.3040  0.1216  0.0904
  998loPI    C214946  17.796   8.677   4.629  0.0952 -0.0035  0.2039
  998loPI    C314947  17.853   9.013   4.421 -0.3027 -0.1911 -0.2269
  998loPI   PO414948  17.608   8.957   5.105 -0.1216  0.0340 -0.2822
  998loPI   GL114949  17.537   8.718   5.487  0.0635  0.1705 -0.1943
  998loPI   GL214950  17.422   9.053   5.549 -0.3691  0.0269 -0.2072
  998loPI   C1A14951  17.476   8.702   5.928  0.2710 -0.1722 -0.0312
  998loPI   C2A14952  17.480   8.843   6.266  0.2833  0.1640 -0.1107
  998loPI   C3A14953  17.655   8.836   6.684 -0.0827  0.0620  0.2838
  998loPI   C4A14954  17.556   8.675   7.160 -0.1818 -0.0421 -0.1857
  998loPI   C5A14955  17.415   8.693   7.579 -0.0158 -0.3088  0.0137
  998loPI   C6A14956  17.480   8.483   7.863 -0.1532 -0.1016  0.2028
  998loPI   C1B14957  17.565   9.180   5.895  0.5409  0.2638  0.2348
  998loPI   C2B14958  17.485   9.396   6.337 -0.0904 -0.0493  0.0918
  998loPI   C3B14959  17.653   9.525   6.681 -0.0163 -0.0272  0.2953
  998loPI   C4B14960  17.658   9.634   7.173 -0.2892  0.1268  0.0822
  999loPI    C114961   6.989   0.760   5.281 -0.4024 -0.0818  0.1037
  999loPI    C214962   6.943   1.151   5.351  0.0142 -0.0296  0.1064
  999loPI    C314963   6.959   1.016   4.975  0.0228 -0.0237  0.1047
  999loPI   PO414964   7.000   0.633   5.587  0.2886 -0.2471  0.0520
  999loPI   GL114965   6.875   0.608   5.999 -0.2741 -0.2086 -0.0852
  999loPI   GL214966   6.835   0.245   5.927  0.0598 -0.0316  0.0701
  999loPI   C1A14967   6.575   0.545   6.208 -0.1748 -0.1037 -0.3679
  999loPI   C2A14968   6.586   0.437   6.694  0.4500  0.0277 -0.2743
  999loPI   C3A14969   6.588   0.374   7.065  0.1518  0.0744 -0.2125
  999loPI   C4A14970   6.657   0.219   7.361  0.2183 -0.1167  0.0421
  999loPI   C5A14971   6.463  -0.040   7.646 -0.1598 -0.1690 -0.0603
  999loPI   C6A14972   6.256  -0.388   7.663 -0.2020  0.1615 -0.0839
  999loPI   C1B14973   6.863   0.204   6.359 -0.1573 -0.0604  0.0812
  999loPI   C2B14974   7.033   0.164   6.792  0.0355 -0.1977  0.0349
  999loPI   C3B14975   7.315  -0.214   7.052  0.1739  0.5069 -0.1011
  999loPI   C4B14976   7.701  -0.214   7.124  0.0219  0.1854 -0.0986
 1000loPI    C114977  14.490   8.175   5.172  0.0826 -0.1086  0.2642
 1000loPI    C214978  14.779   8.373   4.979 -0.1963  0.0001 -0.0510
 1000loPI    C314979  14.484   8.198   4.773 -0.0756 -0.5632  0.2346
 1000loPI   PO414980  14.508   8.268   5.416 -0.1706  0.0245  0.0847
 1000loPI   GL114981  14.854   8.378   5.576 -0.1274 -0.0525  0.0908
 1000loPI   GL214982  14.828   8.180   5.895  0.0436 -0.1114  0.0830
 1000loPI   C1A14983  14.916   8.606   6.078  0.1150  0.0691 -0.2990
 1000loPI   C2A14984  14.830   8.452   6.456  0.0006 -0.1210  0.2576
 1000loPI   C3A14985  14.973   8.424   6.853 -0.0406  0.2203 -0.0111
 1000loPI   C4A14986  14.891   8.391   7.275  0.1151  0.0732  0.2560
 1000loPI   C5A14987  14.735   8.323   7.738  0.1324 -0.0029 -0.2034
 1000loPI   C6A14988  14.641   7.945   7.734  0.0020  0.1364  0.1280
 1000loPI   C1B14989  14.964   8.001   6.242 -0.0581 -0.1667  0.1979
 1000loPI   C2B14990  14.733   8.009   6.737 -0.2413 -0.1465 -0.0337
 1000loPI   C3B14991  14.667   7.934   7.201  0.0468  0.1757 -0.1593
 1000loPI   C4B14992  14.755   7.550   7.403  0.1372 -0.3507 -0.0164
 1001loPI    C114993  16.530   9.581   5.195 -0.0709 -0.1869  0.0387
 1001loPI    C214994  16.589   9.588   4.800 -0.0327 -0.1303  0.0453
 1001loPI    C314995  16.660   9.916   5.018 -0.1678 -0.1256  0.0828
 1001loPI   PO414996  16.313   9.437   5.219  0.0556  0.0805  0.1232
 1001loPI   GL114997  16.149   9.428   5.589  0.1636  0.0110  0.0348
 1001loPI   GL214998  16.367   9.609   5.763 -0.0342  0.0737 -0.1527
 1001loPI   C1A14999  16.039   9.266   6.012 -0.1012 -0.1962 -0.2271
 1001loPI   C2A15000  16.222   9.295   6.421  0.2523  0.0476  0.1256
 1001loPI   C3A15001  16.597   9.300   6.594  0.0184 -0.0189  0.0423
 1001loPI   C4A15002  16.767   9.292   7.083 -0.0322  0.0611 -0.0954
 1001loPI   C5A15003  17.017   8.906   7.229  0.1321  0.3461 -0.0639
 1001loPI   C6A15004  17.111   8.398   7.218  0.1778 -0.3201 -0.0946
 1001loPI   C1B15005  16.529   9.607   6.201 -0.1984  0.0304  0.1485
 1001loPI   C2B15006  16.700   9.837   6.687 -0.1913  0.1161 -0.1339
 1001loPI   C3B15007  16.690   9.907   7.137 -0.0483  0.1342  0.1215
 1001loPI   C4B15008  16.837   9.900   7.583 -0.1363 -0.0350 -0.0713
 1002loPI    C115009   7.051   2.579   5.024  0.1550  0.3184 -0.0386
 1002loPI    C215010   7.420   2.713   4.949  0.3044 -0.0520  0.0095
 1002loPI    C315011   7.277   2.398   4.748 -0.0608  0.2030 -0.1425
 1002loPI   PO415012   6.979   2.601   5.251 -0.4743  0.2213  0.0960
 1002loPI   GL115013   7.067   2.669   5.733  0.2461  0.1516 -0.4327
 1002loPI   GL215014   6.912   2.430   5.901 -0.0169  0.3549 -0.1092
 1002loPI   C1A15015   7.326   2.608   6.083 -0.2051 -0.0739 -0.3631
 1002loPI   C2A15016   7.383   2.713   6.546  0.3526 -0.0539  0.3303
 1002loPI   C3A15017   7.614   2.671   6.955 -0.2137  0.3050 -0.1372
 1002loPI   C4A15018   7.690   2.471   7.318  0.1134 -0.0192 -0.0650
 1002loPI   C5A15019   7.751   2.225   7.619  0.1998 -0.0241  0.0744
 1002loPI   C6A15020   7.950   2.059   7.867  0.1193  0.3775  0.0501
 1002loPI   C1B15021   7.069   2.220   6.337  0.1623  0.2282 -0.2045
 1002loPI   C2B15022   7.111   2.238   6.824  0.2263  0.3933  0.1618
 1002loPI   C3B15023   7.172   2.116   7.287  0.2604  0.2816  0.1930
 1002loPI   C4B15024   7.244   2.290   7.663  0.0928  0.0398 -0.2483
 1003loPI    C115025   6.158   0.849   5.296  0.0571 -0.0084 -0.0597
 1003loPI    C215026   6.469   1.044   5.136  0.0989 -0.1202 -0.1157
 1003loPI    C315027   6.198   0.868   4.899  0.0389 -0.0954 -0.0660
 1003loPI   PO415028   6.108   0.995   5.492 -0.1749 -0.2565 -0.2076
 1003loPI   GL115029   6.175   1.022   5.955 -0.1265  0.0637  0.1533
 1003loPI   GL215030   6.349   1.321   6.014  0.0854  0.1176  0.1283
 1003loPI   C1A15031   6.299   0.992   6.428  0.0218  0.3457 -0.1464
 1003loPI   C2A15032   6.319   0.898   6.819 -0.1963 -0.1086  0.1248
 1003loPI   C3A15033   6.451   0.824   7.173  0.3526 -0.2069  0.1080
 1003loPI   C4A15034   6.310   1.083   7.520  0.0463  0.1767 -0.0600
 1003loPI   C5A15035   6.033   1.390   7.790  0.2329 -0.1768 -0.1046
 1003loPI   C6A15036   5.927   1.641   8.083 -0.2497 -0.3306  0.1757
 1003loPI   C1B15037   6.509   1.510   6.406  0.1347  0.0060  0.2772
 1003loPI   C2B15038   6.541   1.562   6.811 -0.0238 -0.1254  0.0877
 1003loPI   C3B15039   6.429   1.406   7.202  0.0498  0.0158  0.0588
 1003loPI   C4B15040   6.428   1.583   7.525 -0.0339 -0.1291 -0.0870
 1004loPI    C115041   4.685  16.543   5.143 -0.0027  0.0639  0.0408
 1004loPI    C215042   5.025  16.549   5.354  0.0721 -0.0138 -0.0768
 1004loPI    C315043   5.008  16.729   4.997 -0.0188  0.0144 -0.0585
 1004loPI   PO415044   4.535  16.699   5.367  0.1446 -0.0773  0.0855
 1004loPI   GL115045   4.328  16.586   5.801  0.0845 -0.0616  0.4138
 1004loPI   GL215046   4.323  16.302   5.558 -0.2260 -0.0851  0.0736
 1004loPI   C1A15047   4.449  16.297   6.036  0.1691 -0.0245  0.0573
 1004loPI   C2A15048   4.727  16.058   6.381 -0.0642 -0.1542  0.3931
 1004loPI   C3A15049   4.822  15.809   6.824 -0.0980  0.0111 -0.1911
 1004loPI   C4A15050   4.845  15.725   7.251  0.2087  0.0555  0.5693
 1004loPI   C5A15051   5.029  15.475   7.561 -0.3419 -0.1361  0.0528
 1004loPI   C6A15052   5.440  15.274   7.677 -0.0616 -0.0196  0.2736
 1004loPI   C1B15053   4.275  15.926   5.778  0.2404  0.0387 -0.1274
 1004loPI   C2B15054   4.297  15.866   6.180  0.0408  0.0556  0.4096
 1004loPI   C3B15055   4.317  15.679   6.537 -0.0411  0.2616  0.3285
 1004loPI   C4B15056   4.304  15.561   6.937  0.0123  0.0234 -0.0632
 1005loPI    C115057   9.316   3.233   5.410  0.0859  0.2632  0.0991
 1005loPI    C215058   9.528   2.951   5.221  0.0359  0.2724  0.0291
 1005loPI    C315059   9.173   3.067   5.076 -0.1999 -0.0204  0.3551
 1005loPI   PO415060   9.440   3.490   5.448 -0.0084  0.1450  0.0946
 1005loPI   GL115061   9.392   3.640   5.831 -0.1102 -0.4769 -0.1385
 1005loPI   GL215062   9.597   3.382   5.934  0.0032  0.1953  0.2607
 1005loPI   C1A15063   9.132   3.464   6.176  0.0457  0.0122 -0.2226
 1005loPI   C2A15064   8.972   3.381   6.540 -0.0019  0.0631  0.1340
 1005loPI   C3A15065   8.999   3.141   6.822  0.1227  0.1246  0.1067
 1005loPI   C4A15066   8.921   2.789   7.056 -0.1551 -0.0706 -0.2161
 1005loPI   C5A15067   9.251   2.471   7.347 -0.1100  0.0139  0.0542
 1005loPI   C6A15068   9.424   2.154   7.658 -0.2283 -0.1174 -0.1386
 1005loPI   C1B15069   9.619   3.369   6.344  0.0161  0.1961 -0.0390
 1005loPI   C2B15070   9.474   3.359   6.725  0.1138  0.2662  0.1219
 1005loPI   C3B15071   9.629   3.268   7.144 -0.0132 -0.0196  0.1112
 1005loPI   C4B15072   9.688   3.166   7.507 -0.2692  0.0140  0.1550
 1006loPI    C115073   6.848  16.437   5.437 -0.0535 -0.0173 -0.0089
 1006loPI    C215074   6.466  16.472   5.322 -0.1100 -0.1848  0.1237
 1006loPI    C315075   6.761  16.533   5.059 -0.2286 -0.1018  0.0089
 1006loPI   PO415076   6.912  16.585   5.615  0.1153  0.0954  0.1443
 1006loPI   GL115077   7.115  16.600   5.961  0.0817  0.2701 -0.0206
 1006loPI   GL215078   6.840  16.871   5.999  0.3135 -0.2503 -0.1431
 1006loPI   C1A15079   7.355  16.742   6.303 -0.2984  0.5021 -0.3248
 1006loPI   C2A15080   7.336  16.928   6.688 -0.0774 -0.0061 -0.0058
 1006loPI   C3A15081   7.008  17.200   6.844  0.0452  0.1153 -0.3162
 1006loPI   C4A15082   6.729  17.209   7.240  0.0924 -0.1228  0.0809
 1006loPI   C5A15083   6.438  17.022   7.576 -0.0492 -0.0065  0.0230
 1006loPI   C6A15084   6.014  17.047   7.783 -0.0858  0.0175  0.1689
 1006loPI   C1B15085   6.420  17.015   6.059  0.0433 -0.1741  0.0081
 1006loPI   C2B15086   6.033  17.067   6.366  0.0524  0.2418  0.2576
 1006loPI   C3B15087   6.076  17.052   6.790 -0.3145 -0.2306 -0.1817
 1006loPI   C4B15088   6.346  16.937   7.103 -0.0696 -0.0207 -0.1074
 1007loPI    C115089  12.264   4.807   4.918  0.0301  0.0712  0.0438
 1007loPI    C215090  12.059   4.643   4.617  0.0682 -0.0691  0.0929
 1007loPI    C315091  11.915   4.966   4.804  0.1114  0.1032 -0.1647
 1007loPI   PO415092  12.316   4.622   5.077  0.2033  0.0577  0.0201
 1007loPI   GL115093  12.143   4.411   5.538  0.0825  0.1689 -0.3011
 1007loPI   GL215094  12.487   4.590   5.600 -0.0492 -0.3362 -0.2019
 1007loPI   C1A15095  12.080   4.643   5.906 -0.1149 -0.0040  0.1227
 1007loPI   C2A15096  11.976   4.644   6.270 -0.0959 -0.0134  0.0644
 1007loPI   C3A15097  11.963   4.661   6.797  0.1996  0.3972  0.0437
 1007loPI   C4A15098  12.021   4.513   7.260  0.3116 -0.1120 -0.2093
 1007loPI   C5A15099  11.962   4.554   7.583  0.0942  0.1029 -0.1040
 1007loPI   C6A15100  11.622   4.559   7.778 -0.0284 -0.2151 -0.1081
 1007loPI   C1B15101  12.554   4.569   6.158 -0.2652 -0.1546 -0.1014
 1007loPI   C2B15102  12.531   4.586   6.579  0.0198  0.2271 -0.1786
 1007loPI   C3B15103  12.470   4.492   7.013  0.0651 -0.1028 -0.2209
 1007loPI   C4B15104  12.485   4.397   7.464 -0.2981  0.1218  0.1187
 1008loPI    C115105   6.369  14.692   5.220  0.2605 -0.2356 -0.1495
 1008loPI    C215106   6.642  14.985   5.233  0.0360 -0.0259 -0.0943
 1008loPI    C315107   6.527  14.833   4.881  0.0629  0.0386 -0.1309
 1008loPI   PO415108   6.112  14.890   5.334 -0.2284  0.0163 -0.2175
 1008loPI   GL115109   6.126  15.151   5.692 -0.2635 -0.0364 -0.3118
 1008loPI   GL215110   6.278  15.035   5.759 -0.0833  0.1029  0.1368
 1008loPI   C1A15111   6.042  15.083   6.179 -0.2686 -0.0187 -0.0935
 1008loPI   C2A15112   6.005  15.098   6.562  0.0692 -0.0225 -0.1669
 1008loPI   C3A15113   6.209  15.094   6.969 -0.0197  0.1316 -0.0481
 1008loPI   C4A15114   6.083  15.342   7.374  0.0479  0.0165  0.0588
 1008loPI   C5A15115   5.910  15.339   7.790  0.0045  0.0817  0.1032
 1008loPI   C6A15116   5.790  15.721   7.972 -0.2350  0.4214 -0.0021
 1008loPI   C1B15117   6.558  15.072   6.127 -0.2674  0.1861  0.0743
 1008loPI   C2B15118   6.652  15.169   6.552 -0.0437 -0.0773 -0.2313
 1008loPI   C3B15119   6.717  15.135   6.956  0.1970  0.0740  0.1414
 1008loPI   C4B15120   6.935  15.176   7.254  0.1242 -0.2023 -0.1339
 1009loPI    C115121  17.015   3.835   4.999  0.1989  0.0424  0.1330
 1009loPI    C215122  17.117   4.115   4.733  0.1902 -0.0039  0.0806
 1009loPI    C315123  17.003   3.753   4.608  0.1465 -0.0129  0.1459
 1009loPI   PO415124  17.185   3.834   5.257 -0.6223  0.0485 -0.1976
 1009loPI   GL115125  17.204   3.572   5.698 -0.1647 -0.0688  0.1269
 1009loPI   GL215126  17.479   3.515   5.517  0.1340 -0.0760  0.1063
 1009loPI   C1A15127  17.123   3.430   6.090 -0.0074  0.2347  0.0675
 1009loPI   C2A15128  17.224   3.189   6.421 -0.0404 -0.1148 -0.0447
 1009loPI   C3A15129  17.419   3.030   6.824  0.1579 -0.0997 -0.1005
 1009loPI   C4A15130  17.630   3.277   7.171  0.1900 -0.0442  0.0073
 1009loPI   C5A15131  17.550   3.337   7.570 -0.1199 -0.0958  0.3291
 1009loPI   C6A15132  17.392   3.541   7.895  0.1981  0.0458 -0.0684
 1009loPI   C1B15133  17.678   3.644   5.901  0.0405  0.3157  0.1370
 1009loPI   C2B15134  17.651   3.464   6.268  0.3795 -0.2355 -0.0969
 1009loPI   C3B15135  17.638   3.429   6.706 -0.1953 -0.1934 -0.2134
 1009loPI   C4B15136  18.046   3.454   6.874 -0.1527  0.3722  0.1047
 1010loPI    C115137   9.699   8.062   5.749  0.1746 -0.0104  0.1266
 1010loPI    C215138   9.610   7.802   5.458  0.0748  0.1513  0.0109
 1010loPI    C315139   9.855   7.693   5.755  0.1525 -0.0255 -0.1161
 1010loPI   PO415140   9.474   8.045   6.005 -0.0457 -0.0208  0.1517
 1010loPI   GL115141   9.482   8.130   6.361 -0.0703 -0.0424 -0.2337
 1010loPI   GL215142   9.216   7.809   6.389 -0.1403  0.1489  0.0812
 1010loPI   C1A15143   9.672   7.878   6.678  0.2503  0.0591 -0.1130
 1010loPI   C2A15144   9.572   7.721   7.054 -0.3021  0.1816 -0.1102
 1010loPI   C3A15145   9.583   7.537   7.396  0.3233 -0.1158 -0.0547
 1010loPI   C4A15146   9.537   7.168   7.644  0.4297 -0.1957 -0.1343
 1010loPI   C5A15147   9.421   7.022   7.959 -0.1886 -0.1648 -0.0249
 1010loPI   C6A15148   9.203   6.655   8.228  0.2741  0.2887  0.0411
 1010loPI   C1B15149   9.215   7.928   6.833  0.0548  0.0635 -0.0379
 1010loPI   C2B15150   9.260   7.955   7.325  0.0476  0.1433 -0.1843
 1010loPI   C3B15151   9.546   7.997   7.683 -0.0478  0.3640  0.0249
 1010loPI   C4B15152   9.512   8.034   8.144  0.0887 -0.2260 -0.1187
 1011loPI    C115153   9.228   0.629   5.510  0.1615 -0.2001  0.4371
 1011loPI    C215154   9.255   1.028   5.483 -0.1352 -0.2093 -0.1817
 1011loPI    C315155   9.587   0.806   5.520  0.0374  0.0840  0.0822
 1011loPI   PO415156   9.140   0.625   5.659 -0.2512  0.2243 -0.0216
 1011loPI   GL115157   9.257   0.608   6.042 -0.3406  0.0660 -0.0815
 1011loPI   GL215158   9.461   0.927   5.991 -0.0522  0.3413 -0.1421
 1011loPI   C1A15159   9.157   0.899   6.441 -0.0527  0.1066  0.1915
 1011loPI   C2A15160   9.262   0.896   6.888  0.1149 -0.1810  0.3956
 1011loPI   C3A15161   9.318   0.862   7.219  0.0903 -0.0913  0.1865
 1011loPI   C4A15162   9.233   0.923   7.630 -0.2534 -0.2092  0.0879
 1011loPI   C5A15163   8.946   0.874   7.917  0.0401  0.5054 -0.0658
 1011loPI   C6A15164   8.634   0.633   8.126 -0.3324  0.1212 -0.0535
 1011loPI   C1B15165   9.101   1.235   6.059 -0.3403 -0.1039  0.1818
 1011loPI   C2B15166   8.766   1.413   6.284 -0.0828 -0.0096  0.0862
 1011loPI   C3B15167   8.591   1.596   6.712 -0.2500 -0.1837  0.4010
 1011loPI   C4B15168   8.685   1.867   7.096  0.2219  0.1105  0.0409
 1012loPI    C115169   9.607   6.974   5.882 -0.0360 -0.0048  0.2211
 1012loPI    C215170   9.969   6.857   5.760 -0.0727  0.0264  0.0807
 1012loPI    C315171   9.806   7.190   5.611 -0.2782 -0.1388 -0.0694
 1012loPI   PO415172   9.582   7.031   6.118 -0.2028  0.1643  0.0953
 1012loPI   GL115173   9.485   7.161   6.434  0.1699 -0.2410 -0.2153
 1012loPI   GL215174   9.764   7.269   6.598  0.0696 -0.3043 -0.1696
 1012loPI   C1A15175   9.240   7.447   6.724  0.0098 -0.0511 -0.2048
 1012loPI   C2A15176   9.059   7.461   7.125 -0.1010 -0.0011 -0.1376
 1012loPI   C3A15177   9.098   7.414   7.543 -0.0799  0.0935 -0.1067
 1012loPI   C4A15178   9.304   7.613   7.900  0.0702 -0.1414 -0.0343
 1012loPI   C5A15179   9.465   7.511   8.215 -0.0917 -0.2924  0.2329
 1012loPI   C6A15180   9.783   7.504   8.538  0.3359  0.2838  0.0701
 1012loPI   C1B15181   9.982   7.432   7.011 -0.1570 -0.1701 -0.0993
 1012loPI   C2B15182  10.139   7.484   7.395  0.2394 -0.1630 -0.0223
 1012loPI   C3B15183  10.347   7.704   7.723 -0.0197  0.1288  0.2321
 1012loPI   C4B15184  10.132   7.667   8.238  0.2160  0.0603 -0.1252
 1013loPI    C115185  17.927   9.437   4.852 -0.0485  0.0883 -0.1464
 1013loPI    C215186  18.219   9.393   4.582 -0.1665  0.0357 -0.2666
 1013loPI    C315187  18.046   9.750   4.632 -0.0708  0.0710 -0.1828
 1013loPI   PO415188  18.041   9.356   5.097 -0.0984  0.1878  0.0816
 1013loPI   GL115189  17.897   9.272   5.511  0.1892  0.0717  0.2260
 1013loPI   GL215190  18.170   8.954   5.377  0.0569 -0.2214  0.0171
 1013loPI   C1A15191  18.103   9.376   5.922  0.0323 -0.0742  0.1206
 1013loPI   C2A15192  18.034   9.332   6.328  0.2721 -0.3219 -0.2463
 1013loPI   C3A15193  18.000   9.187   6.718  0.0481 -0.3017 -0.1942
 1013loPI   C4A15194  17.894   9.076   7.113  0.1420  0.0594 -0.1065
 1013loPI   C5A15195  17.526   9.191   7.433  0.3463  0.2790 -0.1314
 1013loPI   C6A15196  17.531   9.228   7.794 -0.0062  0.1594 -0.0539
 1013loPI   C1B15197  18.003   8.890   5.787 -0.0357 -0.0648  0.0021
 1013loPI   C2B15198  17.959   8.858   6.234  0.1066 -0.0570 -0.2070
 1013loPI   C3B15199  18.140   8.706   6.587 -0.4994  0.2028 -0.2851
 1013loPI   C4B15200  17.963   8.537   6.918 -0.1361 -0.0012  0.0733
 1014loPI    C115201   7.922  14.564   5.333 -0.3004 -0.0145 -0.0802
 1014loPI    C215202   8.113  14.263   5.152 -0.4784 -0.0329 -0.2410
 1014loPI    C315203   7.887  14.514   4.938 -0.2522  0.2778 -0.1237
 1014loPI   PO415204   8.100  14.713   5.470  0.0580  0.0197 -0.2735
 1014loPI   GL115205   8.288  14.814   5.855  0.3735 -0.0412  0.0688
 1014loPI   GL215206   8.521  14.580   6.075  0.0695 -0.3273  0.0506
 1014loPI   C1A15207   8.208  14.922   6.285  0.2532 -0.1762  0.0876
 1014loPI   C2A15208   8.366  14.896   6.634 -0.0616  0.4263  0.1902
 1014loPI   C3A15209   8.396  14.848   7.114 -0.1199  0.1270  0.0728
 1014loPI   C4A15210   8.655  14.743   7.419 -0.1291 -0.2489 -0.1042
 1014loPI   C5A15211   8.910  15.012   7.681  0.0046  0.2089 -0.0114
 1014loPI   C6A15212   8.895  15.199   8.060 -0.0744  0.2430 -0.0675
 1014loPI   C1B15213   8.636  14.424   6.572  0.0174 -0.2060  0.0927
 1014loPI   C2B15214   8.726  14.382   7.122  0.2320  0.0794  0.2836
 1014loPI   C3B15215   8.994  14.351   7.478  0.0748 -0.5482 -0.1155
 1014loPI   C4B15216   9.111  14.002   7.781 -0.0558  0.1864 -0.1580
 1015loPI    C115217  16.343  16.351   5.613  0.0367 -0.1950  0.0711
 1015loPI    C215218  16.121  16.119   5.851 -0.0980 -0.0889  0.0497
 1015loPI    C315219  16.213  15.996   5.482 -0.0175 -0.1867  0.1017
 1015loPI   PO415220  16.510  16.494   5.779 -0.0802  0.2957  0.2053
 1015loPI   GL115221  16.544  16.421   6.233 -0.1155 -0.0618  0.0040
 1015loPI   GL215222  16.527  16.122   6.149  0.0005  0.0966 -0.2004
 1015loPI   C1A15223  16.372  16.683   6.464 -0.0595 -0.1008 -0.0701
 1015loPI   C2A15224  16.406  16.817   6.907  0.2027 -0.0247  0.2399
 1015loPI   C3A15225  16.356  16.910   7.392 -0.1409  0.1257 -0.1910
 1015loPI   C4A15226  16.197  17.147   7.653  0.1878  0.0531 -0.0958
 1015loPI   C5A15227  16.110  17.317   8.033  0.1535 -0.0969 -0.0588
 1015loPI   C6A15228  16.008  17.719   8.204  0.2145  0.0634 -0.0139
 1015loPI   C1B15229  16.435  16.133   6.634 -0.0827 -0.4146  0.1281
 1015loPI   C2B15230  16.529  16.254   7.063  0.2126  0.0804  0.1526
 1015loPI   C3B15231  16.401  16.403   7.544 -0.1611  0.4707  0.0705
 1015loPI   C4B15232  16.301  16.375   8.024  0.1450 -0.0872  0.0670
 1016loPI    C115233  15.186   1.633   4.845 -0.0543  0.0030  0.4034
 1016loPI    C215234  15.357   1.995   4.858 -0.2031  0.0898  0.0561
 1016loPI    C315235  15.314   1.806   4.508 -0.2949 -0.1849  0.2123
 1016loPI   PO415236  15.299   1.518   5.088  0.0729  0.2575  0.1099
 1016loPI   GL115237  15.239   1.540   5.538  0.0851  0.0679  0.0093
 1016loPI   GL215238  15.150   1.870   5.500 -0.1240  0.0078  0.0421
 1016loPI   C1A15239  15.194   1.325   5.962  0.1112 -0.1423 -0.0440
 1016loPI   C2A15240  14.979   1.251   6.392 -0.0712 -0.0959 -0.1146
 1016loPI   C3A15241  14.600   1.480   6.557 -0.0091 -0.2372  0.0810
 1016loPI   C4A15242  14.539   1.408   6.879 -0.1823 -0.1178 -0.2417
 1016loPI   C5A15243  14.640   1.260   7.320  0.0215 -0.0494  0.4267
 1016loPI   C6A15244  14.571   1.438   7.679 -0.0937 -0.1754 -0.1953
 1016loPI   C1B15245  14.953   1.808   5.861 -0.1198  0.3140  0.1335
 1016loPI   C2B15246  14.944   1.742   6.266  0.1911 -0.0763  0.0407
 1016loPI   C3B15247  15.032   1.730   6.684  0.3838  0.1088 -0.0621
 1016loPI   C4B15248  14.871   1.773   7.039 -0.0083 -0.1403  0.2070
 1017loPI    C115249   3.260   2.999   5.332 -0.1676 -0.1744  0.0279
 1017loPI    C215250   3.152   3.204   5.006  0.1265  0.1092  0.1033
 1017loPI    C315251   3.418   2.908   4.975 -0.1371 -0.1246  0.0286
 1017loPI   PO415252   3.035   2.960   5.522 -0.2823  0.2193 -0.0965
 1017loPI   GL115253   2.971   3.052   5.941 -0.0502  0.1057  0.0467
 1017loPI   GL215254   2.716   3.212   5.828 -0.2793  0.0670  0.0457
 1017loPI   C1A15255   3.019   2.810   6.358 -0.2327  0.0534 -0.0957
 1017loPI   C2A15256   3.151   2.366   6.540 -0.1460  0.2498  0.1474
 1017loPI   C3A15257   3.224   2.033   6.899  0.0039 -0.2359  0.3381
 1017loPI   C4A15258   3.258   2.052   7.361 -0.1707  0.2049 -0.0129
 1017loPI   C5A15259   3.277   1.994   7.769  0.2619  0.0259 -0.3783
 1017loPI   C6A15260   3.422   1.796   8.137 -0.1263 -0.1813 -0.2078
 1017loPI   C1B15261   2.608   3.490   6.213 -0.3117 -0.0151 -0.1809
 1017loPI   C2B15262   2.668   3.701   6.651 -0.3166 -0.2434 -0.0309
 1017loPI   C3B15263   2.841   3.957   6.976  0.0557 -0.3624  0.1365
 1017loPI   C4B15264   3.055   4.157   7.373  0.2904 -0.3304 -0.3573
 1018loPI    C115265  15.062   6.577   5.477  0.1184 -0.1906 -0.0158
 1018loPI    C215266  15.291   6.525   5.153  0.1354  0.2220 -0.0757
 1018loPI    C315267  14.893   6.523   5.119  0.1338  0.0288 -0.0577
 1018loPI   PO415268  15.231   6.834   5.578 -0.2831  0.0829 -0.2174
 1018loPI   GL115269  15.374   6.851   5.994  0.2529  0.1280 -0.2173
 1018loPI   GL215270  15.337   7.235   5.922 -0.0853 -0.0032 -0.0331
 1018loPI   C1A15271  15.297   6.793   6.363  0.1072 -0.0515 -0.0065
 1018loPI   C2A15272  15.339   6.561   6.833 -0.0337  0.4193 -0.2248
 1018loPI   C3A15273  15.465   6.215   7.169 -0.0104 -0.0273 -0.1541
 1018loPI   C4A15274  15.651   5.881   7.441 -0.1455  0.1128  0.2096
 1018loPI   C5A15275  15.906   5.541   7.801 -0.3536 -0.1196 -0.0503
 1018loPI   C6A15276  15.998   5.229   8.101  0.1304 -0.1928  0.0368
 1018loPI   C1B15277  15.616   7.152   6.279  0.2524  0.3036 -0.3348
 1018loPI   C2B15278  15.613   7.266   6.679 -0.3837 -0.4133 -0.1549
 1018loPI   C3B15279  15.663   7.274   7.147 -0.0858 -0.0223 -0.1616
 1018loPI   C4B15280  15.471   7.606   7.605  0.0684  0.0168  0.1545
 1019loPI    C115281  15.953  17.439   5.020  0.1005 -0.0477 -0.0313
 1019loPI    C215282  16.006  17.321   4.642  0.1793  0.1418 -0.0802
 1019loPI    C315283  16.006  17.710   4.732 -0.1523  0.1103  0.0679
 1019loPI   PO415284  16.080  17.346   5.158  0.2678  0.2391 -0.0930
 1019loPI   GL115285  16.161  17.469   5.645 -0.0581 -0.1534  0.0090
 1019loPI   GL215286  16.335  17.268   5.974 -0.1359  0.0638  0.1776
 1019loPI   C1A15287  16.194  17.728   6.143  0.1432 -0.1885 -0.0154
 1019loPI   C2A15288  16.343  17.654   6.526  0.1338 -0.0149 -0.2245
 1019loPI   C3A15289  16.390  17.480   7.031 -0.0098  0.0389 -0.0739
 1019loPI   C4A15290  16.482  17.477   7.399 -0.1616 -0.0010 -0.1611
 1019loPI   C5A15291  16.525  17.476   7.816 -0.2079  0.1477 -0.4881
 1019loPI   C6A15292  16.605  17.196   8.042  0.3674 -0.3291 -0.0210
 1019loPI   C1B15293  16.173  17.228   6.253 -0.0585 -0.3190 -0.1772
 1019loPI   C2B15294  16.205  17.192   6.609 -0.2870  0.1804 -0.1303
 1019loPI   C3B15295  15.924  17.180   6.840  0.0506  0.0942 -0.0492
 1019loPI   C4B15296  16.017  17.186   7.220  0.1837 -0.0319  0.0998
 1020loPI    C115297   8.201   7.073   5.642  0.0905  0.0890  0.0077
 1020loPI    C215298   8.186   6.989   5.252 -0.0058  0.0827  0.0127
 1020loPI    C315299   8.539   7.008   5.438  0.0366  0.0226 -0.0609
 1020loPI   PO415300   8.094   6.885   5.744  0.1772  0.1931 -0.5552
 1020loPI   GL115301   8.095   6.740   6.161 -0.0987  0.2169  0.0654
 1020loPI   GL215302   7.765   6.854   6.172  0.1120  0.0278 -0.0563
 1020loPI   C1A15303   8.203   6.750   6.576  0.0606  0.0336 -0.2053
 1020loPI   C2A15304   8.194   6.703   6.955  0.0726  0.0640 -0.1126
 1020loPI   C3A15305   8.529   6.828   7.298 -0.2750 -0.0776 -0.0815
 1020loPI   C4A15306   8.922   6.969   7.353 -0.4140  0.0282 -0.0557
 1020loPI   C5A15307   9.241   7.014   7.158 -0.0729 -0.3037 -0.0687
 1020loPI   C6A15308   9.552   7.145   7.074 -0.1013  0.0291  0.0187
 1020loPI   C1B15309   7.635   6.814   6.539 -0.0590 -0.2289  0.0508
 1020loPI   C2B15310   7.439   6.654   6.827 -0.0741  0.2228  0.0229
 1020loPI   C3B15311   7.209   6.937   7.122  0.3426 -0.1340 -0.2494
 1020loPI   C4B15312   7.078   7.154   7.463 -0.4317 -0.3508 -0.1391
 1021loPI    C115313  13.823  15.400   5.449 -0.0347 -0.0871  0.0790
 1021loPI    C215314  14.095  15.463   5.163 -0.0166 -0.1359  0.0854
 1021loPI    C315315  13.717  15.378   5.063 -0.0561  0.0447  0.0769
 1021loPI   PO415316  13.914  15.101   5.554  0.0111 -0.2523  0.0184
 1021loPI   GL115317  14.145  14.772   5.985 -0.0781  0.0126 -0.1062
 1021loPI   GL215318  14.409  14.944   5.829  0.1813 -0.1129 -0.1820
 1021loPI   C1A15319  14.023  14.684   6.383 -0.1386 -0.1530  0.0434
 1021loPI   C2A15320  14.060  14.704   6.760  0.3252 -0.0813  0.0353
 1021loPI   C3A15321  14.094  14.706   7.100  0.3572  0.0810 -0.0388
 1021loPI   C4A15322  13.781  14.717   7.544  0.0221 -0.0454  0.0698
 1021loPI   C5A15323  13.573  14.909   7.824 -0.0931  0.2909 -0.0020
 1021loPI   C6A15324  13.496  15.221   8.155 -0.0668  0.2336  0.0061
 1021loPI   C1B15325  14.594  14.905   6.319  0.0761 -0.0420 -0.1131
 1021loPI   C2B15326  14.576  14.880   6.790  0.0450 -0.3821  0.1436
 1021loPI   C3B15327  14.465  14.996   7.238  0.0408 -0.0402  0.1196
 1021loPI   C4B15328  14.325  14.809   7.531 -0.2252 -0.0863 -0.2589
 1022loPI    C115329   8.754  10.849   5.393  0.1520  0.1757  0.0076
 1022loPI    C215330   8.998  10.704   5.110 -0.0807 -0.1644 -0.0251
 1022loPI    C315331   8.659  10.891   5.007  0.2724  0.5303  0.0130
 1022loPI   PO415332   8.922  11.006   5.592 -0.0625  0.0546  0.1558
 1022loPI   GL115333   8.876  10.864   6.030  0.0861 -0.2737 -0.1586
 1022loPI   GL215334   9.199  10.816   6.081 -0.1136 -0.2131 -0.2167
 1022loPI   C1A15335   8.941  10.807   6.506 -0.3162  0.2725  0.0985
 1022loPI   C2A15336   9.145  10.844   6.833 -0.1214 -0.3552  0.2172
 1022loPI   C3A15337   9.079  11.245   7.119 -0.2434  0.2307 -0.1326
 1022loPI   C4A15338   9.245  11.624   7.224  0.2879  0.2474  0.0209
 1022loPI   C5A15339   9.378  11.717   7.614 -0.0776 -0.4686  0.1246
 1022loPI   C6A15340   9.851  11.579   7.675 -0.0547  0.2880 -0.1020
 1022loPI   C1B15341   9.438  10.692   6.390  0.0372  0.1898  0.2981
 1022loPI   C2B15342   9.505  10.461   6.723  0.1975  0.0227 -0.0041
 1022loPI   C3B15343   9.232  10.364   7.134  0.2761 -0.2373  0.0431
 1022loPI   C4B15344   9.120  10.404   7.523  0.0708  0.2154 -0.2689
 1023loPI    C115345   4.082  15.434   4.950 -0.0411 -0.0694  0.0863
 1023loPI    C215346   3.723  15.552   4.817 -0.0318 -0.2697 -0.1234
 1023loPI    C315347   4.005  15.438   4.558  0.1052 -0.3371  0.0529
 1023loPI   PO415348   4.159  15.571   5.095  0.3247  0.1635 -0.1327
 1023loPI   GL115349   4.263  15.567   5.505  0.0890  0.0638  0.2475
 1023loPI   GL215350   4.019  15.248   5.467 -0.1297  0.3057 -0.1431
 1023loPI   C1A15351   4.338  15.416   5.927 -0.2004 -0.1511  0.3056
 1023loPI   C2A15352   4.043  15.383   6.257 -0.3019 -0.1387 -0.1167
 1023loPI   C3A15353   4.025  15.075   6.627  0.0383 -0.1633 -0.4004
 1023loPI   C4A15354   4.145  15.050   7.072 -0.1234  0.2804  0.1187
 1023loPI   C5A15355   4.241  15.259   7.343 -0.2845  0.1001 -0.1142
 1023loPI   C6A15356   4.128  15.753   7.552 -0.0891 -0.1745  0.0578
 1023loPI   C1B15357   3.807  15.430   5.832  0.2557 -0.2118  0.1461
 1023loPI   C2B15358   3.443  15.598   6.183  0.2351  0.0580  0.1170
 1023loPI   C3B15359   3.371  15.744   6.663 -0.0414 -0.0714  0.2223
 1023loPI   C4B15360   3.439  15.844   7.019 -0.3351 -0.2290  0.1393
 1024loPI    C115361   0.855   2.799   4.855 -0.2614  0.2722 -0.2239
 1024loPI    C215362   0.732   2.524   4.592 -0.1840  0.1222 -0.1050
 1024loPI    C315363   0.944   2.840   4.467 -0.0752  0.0083 -0.2122
 1024loPI   PO415364   0.956   2.627   5.033 -0.0005 -0.1448  0.1860
 1024loPI   GL115365   0.852   2.442   5.424 -0.2714  0.1155 -0.3498
 1024loPI   GL215366   0.558   2.245   5.450  0.0308 -0.0929 -0.0383
 1024loPI   C1A15367   0.899   2.209   5.872  0.1801  0.0440  0.0856
 1024loPI   C2A15368   0.959   1.918   6.275  0.1376 -0.0869 -0.0316
 1024loPI   C3A15369   1.084   1.935   6.757  0.0349  0.2842 -0.0079
 1024loPI   C4A15370   1.266   1.940   7.102 -0.0351  0.0164 -0.0741
 1024loPI   C5A15371   1.316   1.688   7.415 -0.0704 -0.2908 -0.0270
 1024loPI   C6A15372   1.295   1.854   7.817  0.0794  0.2616 -0.0474
 1024loPI   C1B15373   0.498   2.576   5.770 -0.0755 -0.1167 -0.1417
 1024loPI   C2B15374   0.666   3.048   5.726  0.2531  0.1595 -0.3272
 1024loPI   C3B15375   0.749   3.204   6.130 -0.0997  0.1770  0.0018
 1024loPI   C4B15376   0.854   3.284   6.431 -0.0493  0.0651  0.1385
 1025loPI    C115377   9.258   1.517   5.346 -0.2110  0.2249  0.0965
 1025loPI    C215378   9.055   1.640   5.024  0.1149  0.3058 -0.0817
 1025loPI    C315379   9.453   1.600   5.007  0.0764 -0.2640  0.1330
 1025loPI   PO415380   9.179   1.688   5.562 -0.0924 -0.0326  0.1358
 1025loPI   GL115381   9.216   1.704   5.917 -0.1038  0.0092 -0.1688
 1025loPI   GL215382   8.908   1.754   5.962 -0.0788 -0.3179 -0.4389
 1025loPI   C1A15383   9.224   1.672   6.373 -0.2869  0.0933  0.0279
 1025loPI   C2A15384   9.039   1.340   6.682  0.2695 -0.1515  0.3493
 1025loPI   C3A15385   9.055   1.379   7.160  0.2157 -0.2088 -0.1090
 1025loPI   C4A15386   8.817   1.121   7.387  0.2027  0.1390 -0.0843
 1025loPI   C5A15387   8.534   0.753   7.679  0.2094  0.0886 -0.0474
 1025loPI   C6A15388   8.164   0.521   7.722  0.0001 -0.1276  0.2623
 1025loPI   C1B15389   8.531   1.821   6.246  0.0199  0.2195 -0.0298
 1025loPI   C2B15390   8.160   1.810   6.444  0.0794 -0.0724  0.1041
 1025loPI   C3B15391   7.729   1.589   6.680  0.1901 -0.0269  0.0077
 1025loPI   C4B15392   7.326   1.824   6.550 -0.1886  0.0603 -0.1597
 1026loPI    C115393   8.737  11.930   5.217  0.0957 -0.0244 -0.2168
 1026loPI    C215394   8.438  11.708   5.071  0.0602 -0.1344  0.0183
 1026loPI    C315395   8.389  12.102   5.122 -0.0864 -0.1703  0.1645
 1026loPI   PO415396   8.869  11.790   5.342  0.2460  0.2995 -0.3769
 1026loPI   GL115397   8.894  11.807   5.834  0.0596  0.2518  0.0995
 1026loPI   GL215398   9.162  11.803   5.869  0.0570 -0.0169 -0.2170
 1026loPI   C1A15399   8.889  11.812   6.335  0.0871  0.1448  0.3198
 1026loPI   C2A15400   8.907  11.651   6.721  0.2583 -0.1047  0.2097
 1026loPI   C3A15401   8.730  11.591   7.104 -0.1218 -0.2365 -0.0717
 1026loPI   C4A15402   8.893  11.598   7.539 -0.2715  0.2519  0.1551
 1026loPI   C5A15403   8.921  11.395   7.964 -0.1322  0.0097 -0.4472
 1026loPI   C6A15404   8.722  11.451   8.305  0.2141 -0.0429  0.0080
 1026loPI   C1B15405   9.403  11.849   6.298  0.1891  0.0630 -0.3826
 1026loPI   C2B15406   9.331  11.918   6.734  0.1063 -0.1778  0.1026
 1026loPI   C3B15407   9.032  12.075   6.983  0.0900  0.0005  0.0502
 1026loPI   C4B15408   9.101  12.057   7.406 -0.0076 -0.3303 -0.0611
 1027loPI    C115409  12.738   2.644   5.043  0.3747  0.0191 -0.0593
 1027loPI    C215410  12.918   2.849   4.750  0.1204  0.1072 -0.1566
 1027loPI    C315411  12.587   2.638   4.672  0.2549 -0.1632 -0.0087
 1027loPI   PO415412  13.052   2.563   5.175 -0.0201  0.1887  0.1059
 1027loPI   GL115413  13.058   2.503   5.555  0.2717 -0.1514 -0.0508
 1027loPI   GL215414  12.789   2.478   5.723 -0.0863  0.2200  0.0867
 1027loPI   C1A15415  13.230   2.729   5.960  0.0824 -0.3685  0.4064
 1027loPI   C2A15416  13.223   2.890   6.377  0.0609  0.0489 -0.2189
 1027loPI   C3A15417  13.063   3.103   6.816 -0.1975 -0.0451 -0.0958
 1027loPI   C4A15418  13.089   3.036   7.225 -0.0767  0.0460 -0.2997
 1027loPI   C5A15419  13.262   3.079   7.509  0.0408 -0.1127  0.1017
 1027loPI   C6A15420  13.569   3.208   7.943  0.0788 -0.2471 -0.0625
 1027loPI   C1B15421  12.840   2.581   6.183 -0.0175  0.1871  0.0428
 1027loPI   C2B15422  12.716   2.674   6.643 -0.4955  0.0751  0.0807
 1027loPI   C3B15423  12.708   2.699   7.102  0.2902 -0.1549  0.0568
 1027loPI   C4B15424  12.881   2.651   7.452 -0.0306  0.1550 -0.1566
 1028loPI    C115425   0.700  13.844   5.313 -0.0044 -0.0564 -0.1251
 1028loPI    C215426   0.749  13.698   4.944  0.0860  0.1627 -0.2014
 1028loPI    C315427   0.797  14.089   5.012  0.1516  0.1111  0.0585
 1028loPI   PO415428   0.982  13.623   5.402 -0.2056  0.0977 -0.2642
 1028loPI   GL115429   1.220  13.506   5.739 -0.0823  0.2544  0.1367
 1028loPI   GL215430   0.974  13.465   5.874 -0.0330 -0.0745 -0.2188
 1028loPI   C1A15431   1.341  13.421   6.142  0.2771  0.0903 -0.1617
 1028loPI   C2A15432   1.317  13.385   6.556 -0.1138 -0.0600  0.1519
 1028loPI   C3A15433   1.337  13.317   7.039  0.0251  0.1575  0.2267
 1028loPI   C4A15434   1.548  13.221   7.382 -0.2721 -0.0421  0.2821
 1028loPI   C5A15435   1.394  13.207   7.757 -0.2534  0.1741  0.0677
 1028loPI   C6A15436   1.210  13.488   7.946 -0.0641  0.0790 -0.1571
 1028loPI   C1B15437   0.779  13.533   6.263  0.0967  0.3187  0.0615
 1028loPI   C2B15438   0.762  13.571   6.727 -0.1161 -0.0370 -0.0522
 1028loPI   C3B15439   0.855  13.582   7.088 -0.1418  0.1912 -0.0878
 1028loPI   C4B15440   1.145  13.576   7.448  0.3240  0.0729  0.1485
 1029loPI    C115441  18.337  13.171   5.193 -0.1656  0.3008  0.1831
 1029loPI    C215442  18.624  12.951   5.022  0.0216  0.5038  0.2308
 1029loPI    C315443  18.247  12.816   5.033  0.1013  0.2659  0.1062
 1029loPI   PO415444  18.504  13.186   5.465 -0.2954 -0.3058  0.0119
 1029loPI   GL115445  18.451  13.360   5.890 -0.0386 -0.0406  0.0869
 1029loPI   GL215446  18.770  13.250   6.038 -0.1009  0.2798  0.1003
 1029loPI   C1A15447  18.312  13.315   6.375 -0.2019 -0.2099 -0.0116
 1029loPI   C2A15448  18.318  13.452   6.716  0.4376 -0.2532 -0.1726
 1029loPI   C3A15449  18.294  13.391   7.074  0.0800  0.0003  0.0729
 1029loPI   C4A15450  18.436  13.288   7.379 -0.1931 -0.0182  0.2411
 1029loPI   C5A15451  18.455  13.396   7.850  0.3132  0.1742 -0.0469
 1029loPI   C6A15452  18.751  13.704   8.047  0.0345 -0.2795  0.0616
 1029loPI   C1B15453  18.834  13.215   6.477  0.1292 -0.0566 -0.0486
 1029loPI   C2B15454  18.728  13.198   6.820 -0.0583 -0.0850 -0.0748
 1029loPI   C3B15455  18.828  13.167   7.186  0.0972  0.1136 -0.1292
 1029loPI   C4B15456  18.752  12.983   7.679  0.3557  0.1439 -0.0554
 1030loPI    C115457   5.456   4.397   5.133  0.0478  0.0661  0.0995
 1030loPI    C215458   5.232   4.663   4.936  0.0487 -0.1768 -0.2378
 1030loPI    C315459   5.621   4.627   4.850  0.0932 -0.1493 -0.0515
 1030loPI   PO415460   5.450   4.521   5.355  0.2915 -0.0171 -0.0844
 1030loPI   GL115461   5.410   4.571   5.672 -0.0396 -0.0042 -0.0296
 1030loPI   GL215462   5.700   4.738   5.890 -0.1511 -0.0566  0.1206
 1030loPI   C1A15463   5.301   4.538   6.133 -0.0336  0.2503 -0.2314
 1030loPI   C2A15464   5.399   4.629   6.490  0.1859  0.0429  0.1539
 1030loPI   C3A15465   5.467   4.765   6.944  0.2288 -0.1031  0.0221
 1030loPI   C4A15466   5.502   4.818   7.333 -0.0490  0.2166 -0.0130
 1030loPI   C5A15467   5.553   4.629   7.730  0.0963 -0.3962  0.2096
 1030loPI   C6A15468   5.375   4.440   8.061 -0.0382  0.0540  0.3677
 1030loPI   C1B15469   5.736   4.910   6.253  0.0595 -0.2473  0.4154
 1030loPI   C2B15470   5.838   4.925   6.629 -0.2251 -0.0496  0.1408
 1030loPI   C3B15471   6.070   5.063   7.020  0.1662 -0.2464  0.0872
 1030loPI   C4B15472   6.176   5.131   7.487  0.0704 -0.0441  0.1145
 1031loPI    C115473   7.227  13.432   5.061  0.2070  0.0649 -0.0595
 1031loPI    C215474   7.106  13.255   4.724  0.1299 -0.1229  0.0645
 1031loPI    C315475   6.959  13.613   4.826 -0.1101 -0.2226  0.0732
 1031loPI   PO415476   7.236  13.341   5.242  0.1242  0.0273  0.0971
 1031loPI   GL115477   7.061  13.401   5.655 -0.1328 -0.1080 -0.0898
 1031loPI   GL215478   6.888  13.557   5.834 -0.1241  0.0104  0.1819
 1031loPI   C1A15479   7.128  13.165   6.032  0.2683 -0.1055 -0.0865
 1031loPI   C2A15480   7.181  13.290   6.502  0.2144  0.1579  0.1585
 1031loPI   C3A15481   6.974  13.469   6.766 -0.3685  0.1090  0.0548
 1031loPI   C4A15482   7.017  13.432   7.232  0.1926  0.0486  0.1786
 1031loPI   C5A15483   7.308  13.526   7.510  0.0520 -0.0841 -0.0574
 1031loPI   C6A15484   7.343  13.775   7.869 -0.0023 -0.2108 -0.1814
 1031loPI   C1B15485   6.854  13.783   6.152  0.0109  0.1946 -0.2026
 1031loPI   C2B15486   6.719  13.827   6.611 -0.0940 -0.1252  0.3015
 1031loPI   C3B15487   6.773  13.846   7.106  0.0945  0.0598 -0.0076
 1031loPI   C4B15488   6.988  13.877   7.447 -0.0039 -0.0247 -0.2106
 1032loPI    C115489   5.144   7.155   5.256 -0.1289  0.1673 -0.0133
 1032loPI    C215490   4.889   6.890   5.099  0.2494 -0.2685  0.0885
 1032loPI    C315491   5.086   7.143   4.861  0.1243 -0.2936 -0.0430
 1032loPI   PO415492   5.178   7.148   5.465 -0.0180 -0.0408  0.1696
 1032loPI   GL115493   5.042   7.385   5.841 -0.1535 -0.1191  0.1160
 1032loPI   GL215494   5.189   7.276   5.998 -0.1124 -0.1975  0.4342
 1032loPI   C1A15495   4.835   7.600   6.143 -0.2254  0.1239  0.1055
 1032loPI   C2A15496   4.828   7.639   6.609  0.1045 -0.2970  0.1418
 1032loPI   C3A15497   4.665   7.972   6.756  0.1332  0.1359 -0.1471
 1032loPI   C4A15498   4.423   8.115   7.055 -0.0039 -0.2417  0.1628
 1032loPI   C5A15499   4.627   8.442   7.367  0.2738 -0.0556 -0.0694
 1032loPI   C6A15500   4.754   8.449   7.676 -0.1994  0.0186 -0.1767
 1032loPI   C1B15501   5.084   7.270   6.450 -0.0202 -0.0715 -0.1320
 1032loPI   C2B15502   5.135   7.161   6.872  0.0816 -0.1277 -0.2186
 1032loPI   C3B15503   5.234   7.252   7.310 -0.2857  0.0503  0.2118
 1032loPI   C4B15504   5.387   7.367   7.631 -0.0781 -0.2387  0.0732
 1033loPI    C115505   3.537   0.150   5.267  0.0336  0.0686 -0.0504
 1033loPI    C215506   3.816   0.203   4.985  0.2330 -0.0349  0.1249
 1033loPI    C315507   3.692  -0.166   5.078 -0.0831  0.0198 -0.0652
 1033loPI   PO415508   3.553   0.280   5.397 -0.0613 -0.0370 -0.1669
 1033loPI   GL115509   3.733   0.337   5.844 -0.0808 -0.0049 -0.0757
 1033loPI   GL215510   3.628   0.032   5.866  0.0514  0.3489  0.1991
 1033loPI   C1A15511   3.717   0.535   6.251 -0.0139  0.0206  0.3748
 1033loPI   C2A15512   3.795   0.555   6.755  0.3292  0.1807 -0.2014
 1033loPI   C3A15513   3.785   0.347   7.175 -0.1622 -0.3093 -0.1444
 1033loPI   C4A15514   3.598   0.345   7.434  0.0372 -0.2227 -0.2152
 1033loPI   C5A15515   3.407   0.613   7.784 -0.1955  0.1434  0.3119
 1033loPI   C6A15516   3.597   0.972   7.943 -0.1183  0.0679 -0.0560
 1033loPI   C1B15517   3.684  -0.022   6.285 -0.1403 -0.3772  0.0268
 1033loPI   C2B15518   3.603  -0.137   6.689 -0.0072 -0.0862  0.1778
 1033loPI   C3B15519   3.628  -0.145   7.099 -0.3589 -0.2217 -0.3155
 1033loPI   C4B15520   3.441  -0.165   7.491  0.0184  0.4623  0.1282
 1034loPI    C115521   1.964  13.402   5.351 -0.1891 -0.1997 -0.0366
 1034loPI    C215522   1.738  13.350   5.025 -0.0303  0.0075 -0.1827
 1034loPI    C315523   2.116  13.476   4.988  0.0309 -0.0943  0.0749
 1034loPI   PO415524   1.949  13.260   5.451 -0.0953 -0.1566 -0.0392
 1034loPI   GL115525   1.785  13.319   5.921 -0.3956  0.0319  0.3351
 1034loPI   GL215526   1.699  13.572   5.878 -0.1407 -0.0418  0.1602
 1034loPI   C1A15527   1.855  13.183   6.351  0.0331  0.1137 -0.1730
 1034loPI   C2A15528   1.896  13.239   6.762  0.2066  0.2340 -0.0047
 1034loPI   C3A15529   1.960  13.343   7.065 -0.0632  0.0057  0.2683
 1034loPI   C4A15530   2.023  13.306   7.442 -0.4085  0.2825  0.0018
 1034loPI   C5A15531   2.285  13.061   7.826 -0.0851 -0.0502  0.3820
 1034loPI   C6A15532   2.414  12.748   8.035 -0.1693  0.1608 -0.1122
 1034loPI   C1B15533   1.788  13.663   6.316 -0.0116  0.1926 -0.0438
 1034loPI   C2B15534   1.677  13.694   6.803 -0.0355  0.2916  0.0888
 1034loPI   C3B15535   1.611  13.674   7.209 -0.3312 -0.3638  0.2071
 1034loPI   C4B15536   1.607  13.797   7.599 -0.3319 -0.1747 -0.0525
 1035loPI    C115537   2.496  13.655   5.238 -0.0111  0.1490 -0.1284
 1035loPI    C215538   2.547  13.275   5.353  0.0147  0.1692 -0.0727
 1035loPI    C315539   2.635  13.384   4.979  0.1633  0.1547 -0.0424
 1035loPI   PO415540   2.367  13.735   5.398 -0.0968 -0.0871 -0.2841
 1035loPI   GL115541   2.389  13.971   5.712  0.1834 -0.0596 -0.0938
 1035loPI   GL215542   2.209  14.136   5.847  0.0532  0.2166 -0.0874
 1035loPI   C1A15543   2.633  13.872   6.040  0.1208 -0.2274 -0.0174
 1035loPI   C2A15544   2.893  13.986   6.371  0.0431 -0.0252  0.1810
 1035loPI   C3A15545   2.997  14.173   6.812  0.0854  0.1549  0.1792
 1035loPI   C4A15546   3.139  14.279   7.212  0.0102  0.0452 -0.0437
 1035loPI   C5A15547   3.259  14.234   7.574  0.0467 -0.0506 -0.3644
 1035loPI   C6A15548   3.555  14.138   7.973  0.0214 -0.3695  0.0221
 1035loPI   C1B15549   2.171  14.008   6.264 -0.0393  0.0726 -0.2317
 1035loPI   C2B15550   2.032  14.016   6.709 -0.0672  0.0565  0.0345
 1035loPI   C3B15551   2.014  13.939   7.201 -0.2355 -0.0242 -0.0108
 1035loPI   C4B15552   2.162  13.737   7.641 -0.1805 -0.1614  0.0440
 1036loPI    C115553  11.304   5.438   5.176  0.3123  0.0520 -0.1414
 1036loPI    C215554  11.036   5.705   5.046  0.2036  0.0017 -0.0234
 1036loPI    C315555  11.427   5.787   5.025  0.1820  0.0526 -0.2477
 1036loPI   PO415556  11.094   5.348   5.426  0.0529 -0.1540 -0.0149
 1036loPI   GL115557  11.078   5.454   5.932 -0.0980 -0.1868  0.0244
 1036loPI   GL215558  11.077   5.688   6.106 -0.0625 -0.0512  0.0165
 1036loPI   C1A15559  11.297   5.259   6.243 -0.0133 -0.0023  0.3442
 1036loPI   C2A15560  11.212   5.217   6.654 -0.3140  0.3638 -0.3893
 1036loPI   C3A15561  11.215   5.200   7.141  0.0556  0.0831 -0.3546
 1036loPI   C4A15562  11.110   5.104   7.702 -0.0554  0.2494  0.2104
 1036loPI   C5A15563  11.328   5.060   8.097  0.3657  0.0615  0.1056
 1036loPI   C6A15564  11.700   4.745   8.224  0.0103  0.2445 -0.1870
 1036loPI   C1B15565  11.079   5.641   6.548 -0.2090  0.1028  0.4612
 1036loPI   C2B15566  11.067   5.708   7.012 -0.2357 -0.0242  0.1446
 1036loPI   C3B15567  10.942   5.553   7.387 -0.0124  0.3542 -0.0011
 1036loPI   C4B15568  10.856   5.552   7.776 -0.1173  0.4345  0.0317
 1037loPI    C115569  17.521  10.044   5.118  0.0092 -0.0447  0.0905
 1037loPI    C215570  17.865   9.842   5.088  0.0690  0.0808 -0.0827
 1037loPI    C315571  17.576   9.788   4.816  0.1533  0.3540 -0.2295
 1037loPI   PO415572  17.525  10.028   5.404  0.0691  0.2459  0.1854
 1037loPI   GL115573  17.574   9.677   5.584  0.0155 -0.3579 -0.0652
 1037loPI   GL215574  17.307   9.578   5.659  0.2565  0.2381  0.0630
 1037loPI   C1A15575  17.722   9.645   6.000 -0.1970 -0.1481  0.1064
 1037loPI   C2A15576  17.920   9.901   6.296  0.0983  0.1276 -0.2678
 1037loPI   C3A15577  17.860  10.073   6.706  0.2643  0.1029  0.0860
 1037loPI   C4A15578  17.818  10.163   7.080 -0.2634  0.1444 -0.1629
 1037loPI   C5A15579  17.860  10.313   7.512 -0.0849  0.0852  0.0059
 1037loPI   C6A15580  17.722  10.636   7.792 -0.1710  0.4721  0.1923
 1037loPI   C1B15581  17.137   9.685   6.080 -0.0091  0.0698 -0.1947
 1037loPI   C2B15582  17.388   9.847   6.454  0.0759  0.1603  0.0100
 1037loPI   C3B15583  17.350  10.066   6.928 -0.1004  0.0584  0.0984
 1037loPI   C4B15584  17.356  10.087   7.351 -0.0152 -0.0543  0.2950
 1038loPI    C115585   9.388  13.850   5.554  0.0038  0.2385  0.1047
 1038loPI    C215586   9.489  14.008   5.201 -0.1108 -0.0116 -0.0434
 1038loPI    C315587   9.316  13.649   5.216 -0.0623 -0.0247  0.2726
 1038loPI   PO415588   9.575  13.769   5.681  0.0184  0.0337  0.1029
 1038loPI   GL115589   9.814  13.938   6.012  0.0394  0.0486 -0.2434
 1038loPI   GL215590   9.624  14.225   6.024 -0.1554 -0.2239  0.1008
 1038loPI   C1A15591   9.989  14.225   6.359 -0.0743 -0.0197  0.1745
 1038loPI   C2A15592   9.973  14.250   6.793 -0.0619  0.0189  0.2322
 1038loPI   C3A15593  10.025  14.077   7.141  0.3040 -0.2271  0.1595
 1038loPI   C4A15594  10.095  14.270   7.581 -0.1053 -0.1886 -0.2907
 1038loPI   C5A15595  10.027  14.214   8.020  0.1363 -0.0544  0.2671
 1038loPI   C6A15596   9.955  13.896   8.390  0.0823  0.0450  0.0857
 1038loPI   C1B15597   9.456  14.064   6.496 -0.1832 -0.1659  0.0798
 1038loPI   C2B15598   9.524  13.893   6.879  0.3871 -0.0957 -0.1627
 1038loPI   C3B15599   9.601  13.883   7.361  0.1690 -0.3445 -0.0439
 1038loPI   C4B15600   9.773  13.915   7.696  0.0705 -0.1271 -0.0999
 1039loPI    C115601  12.010  14.883   5.303  0.1720 -0.2840  0.1105
 1039loPI    C215602  12.057  14.554   5.080  0.0131 -0.2704  0.0561
 1039loPI    C315603  11.880  14.878   4.925  0.3094 -0.1033  0.0589
 1039loPI   PO415604  11.936  14.788   5.552  0.1072 -0.0146  0.1630
 1039loPI   GL115605  11.724  14.822   5.925  0.0171 -0.3011 -0.1121
 1039loPI   GL215606  11.872  14.542   6.036  0.1142  0.0359  0.2801
 1039loPI   C1A15607  11.446  14.825   6.345  0.1782  0.1328 -0.1046
 1039loPI   C2A15608  11.426  14.819   6.796  0.4077 -0.3765  0.0229
 1039loPI   C3A15609  11.430  14.785   7.169 -0.0654  0.3466  0.0896
 1039loPI   C4A15610  11.483  14.523   7.528  0.1549  0.0656 -0.0512
 1039loPI   C5A15611  11.771  14.254   7.681  0.1976 -0.0271 -0.0658
 1039loPI   C6A15612  12.021  13.918   7.747 -0.1249  0.0627 -0.2788
 1039loPI   C1B15613  11.916  14.597   6.434  0.1125 -0.4365  0.0810
 1039loPI   C2B15614  11.870  14.641   6.899 -0.1356  0.0829  0.2685
 1039loPI   C3B15615  11.914  14.663   7.344 -0.1690  0.1885 -0.0534
 1039loPI   C4B15616  12.013  14.620   7.765  0.3208 -0.0320  0.1546
 1040loPI    C115617   5.459   5.368   5.126 -0.3074 -0.0338 -0.1487
 1040loPI    C215618   5.477   5.464   4.738 -0.3410 -0.2151 -0.1961
 1040loPI    C315619   5.471   5.080   4.849  0.0044 -0.1676 -0.0001
 1040loPI   PO415620   5.258   5.480   5.257 -0.1796 -0.0999 -0.1095
 1040loPI   GL115621   5.119   5.653   5.603  0.2266 -0.1097 -0.1464
 1040loPI   GL215622   5.023   5.448   5.840  0.0389  0.2114  0.1180
 1040loPI   C1A15623   5.182   5.963   5.883 -0.0449 -0.0301  0.3433
 1040loPI   C2A15624   5.053   6.193   6.134  0.2871  0.0607  0.1276
 1040loPI   C3A15625   5.078   6.285   6.595 -0.2030  0.0642  0.0144
 1040loPI   C4A15626   4.976   6.485   6.859 -0.2291  0.0028  0.4471
 1040loPI   C5A15627   4.858   6.833   7.064  0.0420  0.1001  0.1810
 1040loPI   C6A15628   4.571   7.093   7.290 -0.4165  0.2195  0.0913
 1040loPI   C1B15629   4.917   5.408   6.342 -0.1012 -0.1808  0.0774
 1040loPI   C2B15630   4.806   5.318   6.667  0.0087  0.2106 -0.2206
 1040loPI   C3B15631   4.864   5.494   7.057  0.2060  0.1645 -0.3912
 1040loPI   C4B15632   4.805   5.367   7.556  0.1817  0.0752 -0.3421
 1041loPI    C115633  14.126  14.112   5.352 -0.1271  0.1236  0.0642
 1041loPI    C215634  14.358  13.796   5.274 -0.2710 -0.0791  0.4314
 1041loPI    C315635  13.976  13.798   5.154 -0.1351  0.1798 -0.0194
 1041loPI   PO415636  14.246  14.227   5.627 -0.1806  0.2404  0.1384
 1041loPI   GL115637  14.036  14.303   6.021  0.2086  0.0183  0.3390
 1041loPI   GL215638  14.125  14.059   6.163 -0.2484 -0.1989 -0.1182
 1041loPI   C1A15639  13.721  14.339   6.150 -0.0165  0.1197 -0.0479
 1041loPI   C2A15640  13.532  14.081   6.447 -0.0866  0.0418 -0.1180
 1041loPI   C3A15641  13.671  13.940   6.899  0.0306 -0.1376  0.0352
 1041loPI   C4A15642  13.528  13.865   7.319  0.0280  0.0628  0.2389
 1041loPI   C5A15643  13.702  13.751   7.725  0.3731  0.1149 -0.1254
 1041loPI   C6A15644  13.834  13.970   8.116 -0.0424 -0.2997  0.2862
 1041loPI   C1B15645  13.993  14.219   6.622 -0.1619  0.0868 -0.0734
 1041loPI   C2B15646  14.046  14.178   7.095 -0.1707  0.0532 -0.0678
 1041loPI   C3B15647  13.972  14.219   7.496  0.3165  0.1988 -0.0496
 1041loPI   C4B15648  14.011  14.397   7.902  0.0602  0.2701  0.0261
 1042loPI    C115649   7.375  15.856   4.908  0.0471 -0.0889 -0.2200
 1042loPI    C215650   7.133  16.167   4.975  0.0427 -0.1056 -0.1581
 1042loPI    C315651   7.098  15.956   4.637  0.0583 -0.0276 -0.2090
 1042loPI   PO415652   7.432  15.799   5.177  0.1173 -0.0845 -0.1730
 1042loPI   GL115653   7.671  16.012   5.616 -0.0576  0.0470 -0.0330
 1042loPI   GL215654   7.751  15.795   5.692 -0.0720 -0.0193 -0.2657
 1042loPI   C1A15655   7.405  16.151   5.947 -0.0395 -0.1005  0.1557
 1042loPI   C2A15656   7.351  16.245   6.363 -0.2539 -0.0429  0.0550
 1042loPI   C3A15657   7.385  16.427   6.748 -0.0287  0.1460 -0.4575
 1042loPI   C4A15658   7.402  16.563   7.142  0.0100  0.1011 -0.0527
 1042loPI   C5A15659   7.491  16.528   7.652  0.0739  0.2849  0.3916
 1042loPI   C6A15660   7.347  16.437   8.101  0.2148 -0.0388  0.1483
 1042loPI   C1B15661   7.847  16.034   6.141  0.0183 -0.0768 -0.2471
 1042loPI   C2B15662   7.758  15.975   6.561  0.2670  0.0404  0.1387
 1042loPI   C3B15663   8.020  15.969   6.961  0.2752 -0.0138 -0.0541
 1042loPI   C4B15664   8.197  15.984   7.424 -0.1219  0.1999  0.1155
 1043loPI    C115665   1.836  17.193   4.945  0.1345 -0.1820 -0.2275
 1043loPI    C215666   2.013  17.536   4.842 -0.0722 -0.0438 -0.1281
 1043loPI    C315667   1.656  17.442   4.689 -0.1104 -0.1166  0.0041
 1043loPI   PO415668   1.917  17.164   5.247  0.0079  0.0327  0.3395
 1043loPI   GL115669   1.818  17.009   5.689  0.1424  0.0289 -0.0981
 1043loPI   GL215670   1.658  16.739   5.582 -0.2243  0.1204 -0.0423
 1043loPI   C1A15671   1.799  16.980   6.168 -0.0434  0.0473 -0.3291
 1043loPI   C2A15672   1.919  16.756   6.506  0.0529  0.1672  0.0272
 1043loPI   C3A15673   2.167  16.712   6.918  0.0354 -0.3544  0.1745
 1043loPI   C4A15674   2.590  16.454   6.940  0.0403 -0.1479 -0.3096
 1043loPI   C5A15675   2.848  16.512   7.322 -0.2292 -0.1105 -0.1080
 1043loPI   C6A15676   2.768  16.769   7.712  0.1871  0.0551  0.2045
 1043loPI   C1B15677   1.716  16.575   5.954 -0.1595  0.1406 -0.1622
 1043loPI   C2B15678   1.577  16.363   6.316  0.0513 -0.0527 -0.0045
 1043loPI   C3B15679   1.320  16.127   6.588  0.1671 -0.2508 -0.0247
 1043loPI   C4B15680   1.129  16.102   6.914 -0.1188 -0.3037 -0.2980
 1044loPI    C115681   5.491  11.585   5.058 -0.0120  0.4303 -0.2934
 1044loPI    C215682   5.313  11.246   4.942  0.0988  0.3034 -0.0992
 1044loPI    C315683   5.615  11.397   4.728  0.3864  0.0022  0.0843
 1044loPI   PO415684   5.200  11.710   5.210 -0.2296  0.2058  0.3237
 1044loPI   GL115685   5.144  11.752   5.629  0.1638  0.0000 -0.0045
 1044loPI   GL215686   5.469  12.004   5.596  0.0729  0.2623  0.1355
 1044loPI   C1A15687   4.757  11.911   5.889 -0.3680 -0.4189  0.1051
 1044loPI   C2A15688   4.783  11.905   6.372  0.0222 -0.0219 -0.1293
 1044loPI   C3A15689   4.867  11.834   6.897 -0.1325  0.3888 -0.0078
 1044loPI   C4A15690   4.702  11.718   7.380 -0.0563  0.0800  0.1436
 1044loPI   C5A15691   4.858  11.531   7.735  0.1117 -0.1917  0.3844
 1044loPI   C6A15692   4.872  11.293   8.074  0.0165  0.1428  0.1090
 1044loPI   C1B15693   5.269  11.986   5.994 -0.1009  0.2656 -0.0740
 1044loPI   C2B15694   5.330  11.870   6.403 -0.0981 -0.2184  0.2157
 1044loPI   C3B15695   5.343  11.886   6.843  0.0143 -0.0414  0.3320
 1044loPI   C4B15696   5.524  11.936   7.265 -0.1694  0.0177  0.1978
 1045loPI    C115697   0.238   1.915   5.195 -0.1632  0.1299 -0.2060
 1045loPI    C215698   0.479   1.737   4.931 -0.2046 -0.2281 -0.0090
 1045loPI    C315699   0.116   1.862   4.818 -0.0497  0.0348 -0.2296
 1045loPI   PO415700   0.277   1.741   5.413  0.1120  0.1823  0.0667
 1045loPI   GL115701   0.084   1.465   5.626  0.3240 -0.1326  0.1718
 1045loPI   GL215702  -0.256   1.400   5.640 -0.0580 -0.0177  0.2626
 1045loPI   C1A15703   0.219   1.452   6.013 -0.0534  0.1315  0.1177
 1045loPI   C2A15704   0.330   1.396   6.472  0.0880  0.1492  0.1009
 1045loPI   C3A15705   0.458   1.244   6.886 -0.0418 -0.0524  0.1165
 1045loPI   C4A15706   0.480   1.414   7.297  0.3862  0.0531 -0.3739
 1045loPI   C5A15707   0.675   1.680   7.535  0.0577  0.0782 -0.0823
 1045loPI   C6A15708   0.762   1.945   7.986 -0.4841 -0.0146 -0.0346
 1045loPI   C1B15709  -0.487   1.128   5.907  0.4653  0.4038 -0.0964
 1045loPI   C2B15710  -0.422   0.811   6.101  0.2702  0.2223 -0.0292
 1045loPI   C3B15711  -0.371   0.823   6.546 -0.1810 -0.1358  0.4077
 1045loPI   C4B15712  -0.264   1.209   6.778 -0.0338 -0.1744 -0.1268
 1046loPI    C115713  14.123   9.775   5.272  0.1835 -0.1167 -0.1622
 1046loPI    C215714  14.110   9.748   4.873 -0.0068  0.0757 -0.1712
 1046loPI    C315715  13.996  10.086   5.054 -0.0897 -0.0718  0.0559
 1046loPI   PO415716  14.423   9.627   5.331  0.1066  0.3593  0.0840
 1046loPI   GL115717  14.496   9.625   5.720  0.2066  0.0150  0.1509
 1046loPI   GL215718  14.171   9.579   5.826 -0.0641 -0.0779  0.1445
 1046loPI   C1A15719  14.642   9.520   6.068 -0.2662  0.1741  0.0866
 1046loPI   C2A15720  14.917   9.471   6.420  0.0239 -0.0649  0.2193
 1046loPI   C3A15721  15.009   9.792   6.711  0.0189  0.2130  0.0396
 1046loPI   C4A15722  15.222   9.844   6.997 -0.0374  0.4922  0.0364
 1046loPI   C5A15723  15.370   9.867   7.447  0.1583 -0.0713 -0.1341
 1046loPI   C6A15724  15.476   9.758   7.871 -0.3274  0.0835  0.1881
 1046loPI   C1B15725  14.289   9.829   6.113 -0.0366 -0.1474 -0.1399
 1046loPI   C2B15726  14.573   9.895   6.364  0.0569  0.2659  0.0391
 1046loPI   C3B15727  14.554   9.909   6.765 -0.1140 -0.0835  0.0640
 1046loPI   C4B15728  14.734   9.747   7.210  0.3855 -0.1418  0.4020
 1047loPI    C115729  12.482   3.124   5.092  0.1825 -0.3033  0.0491
 1047loPI    C215730  12.201   3.030   4.823  0.0347 -0.2571  0.1858
 1047loPI    C315731  12.207   2.847   5.178 -0.0630  0.0208  0.3333
 1047loPI   PO415732  12.425   3.418   5.168 -0.1070  0.0085  0.2440
 1047loPI   GL115733  12.453   3.335   5.527 -0.0426 -0.2026  0.2014
 1047loPI   GL215734  12.152   3.126   5.579  0.0657 -0.2597 -0.1115
 1047loPI   C1A15735  12.420   3.551   5.832 -0.0888  0.4673 -0.1750
 1047loPI   C2A15736  12.356   3.658   6.281  0.0339  0.1132  0.1436
 1047loPI   C3A15737  12.338   3.725   6.731  0.3335 -0.1342 -0.1057
 1047loPI   C4A15738  12.339   3.619   7.101  0.0396  0.0911  0.1666
 1047loPI   C5A15739  12.412   3.674   7.490  0.1735  0.2348  0.1836
 1047loPI   C6A15740  12.133   3.559   7.913  0.1983  0.2742  0.1863
 1047loPI   C1B15741  12.321   2.816   5.826 -0.2314 -0.0203 -0.1712
 1047loPI   C2B15742  12.435   2.930   6.253  0.2630  0.0269 -0.4514
 1047loPI   C3B15743  12.236   2.884   6.657  0.1511  0.1621 -0.2970
 1047loPI   C4B15744  12.191   2.707   6.989  0.0651 -0.0872  0.2474
 1048loPI    C115745   2.948   8.655   5.403 -0.0228 -0.1533  0.0294
 1048loPI    C215746   2.764   8.350   5.220  0.1717 -0.2221 -0.0550
 1048loPI    C315747   3.035   8.568   5.022 -0.1333  0.1558 -0.0694
 1048loPI   PO415748   3.047   8.621   5.571 -0.0658 -0.0649  0.0848
 1048loPI   GL115749   3.295   8.556   5.967 -0.0621 -0.3298 -0.0362
 1048loPI   GL215750   3.440   8.298   5.857 -0.0731  0.0318  0.0642
 1048loPI   C1A15751   3.371   8.778   6.158 -0.1658  0.3321 -0.2301
 1048loPI   C2A15752   3.327   9.099   6.433 -0.2097 -0.0317  0.1153
 1048loPI   C3A15753   3.430   9.187   6.930 -0.1851 -0.1787  0.1297
 1048loPI   C4A15754   3.619   9.093   7.377  0.2255  0.0500  0.1783
 1048loPI   C5A15755   3.684   9.275   7.813 -0.1439  0.0481  0.1215
 1048loPI   C6A15756   3.387   8.888   8.124  0.0550 -0.1275  0.2845
 1048loPI   C1B15757   3.182   8.065   6.209 -0.1866  0.0045  0.1681
 1048loPI   C2B15758   2.933   8.112   6.545  0.2980 -0.0112 -0.1600
 1048loPI   C3B15759   2.695   8.392   6.835  0.0103  0.0249 -0.2265
 1048loPI   C4B15760   2.503   8.845   6.839 -0.5001  0.0089  0.1948
 1049loPI    C115761  13.190   8.807   5.184  0.0203  0.0396 -0.0410
 1049loPI    C215762  13.151   8.409   5.179  0.0112  0.0346  0.2534
 1049loPI    C315763  13.350   8.594   4.886 -0.0891 -0.1739  0.0506
 1049loPI   PO415764  13.293   8.826   5.460  0.0505 -0.1275 -0.0301
 1049loPI   GL115765  13.324   8.437   5.691 -0.0397 -0.0140  0.0408
 1049loPI   GL215766  13.140   8.320   6.023  0.0954 -0.1294  0.0591
 1049loPI   C1A15767  13.481   8.595   6.097 -0.3478 -0.0323  0.1280
 1049loPI   C2A15768  13.532   8.730   6.586  0.0239 -0.2348 -0.1882
 1049loPI   C3A15769  13.467   8.706   7.070 -0.3905 -0.5062  0.1061
 1049loPI   C4A15770  13.545   8.726   7.434 -0.0890  0.1936  0.1321
 1049loPI   C5A15771  13.579   8.569   7.877 -0.3356  0.0062 -0.0387
 1049loPI   C6A15772  13.755   8.301   8.206  0.0720 -0.0298  0.1262
 1049loPI   C1B15773  13.081   8.430   6.488 -0.2899 -0.0375  0.0249
 1049loPI   C2B15774  13.140   8.359   6.925  0.0589  0.0159  0.1287
 1049loPI   C3B15775  13.113   8.274   7.337  0.0658 -0.3583 -0.1522
 1049loPI   C4B15776  13.221   8.376   7.599 -0.0646 -0.4407  0.0948
 1050loPI    C115777  13.994  18.358   4.884  0.0620  0.0276 -0.2327
 1050loPI    C215778  14.091  18.690   5.085  0.2180 -0.0690 -0.1465
 1050loPI    C315779  14.378  18.462   4.925  0.1088 -0.1359 -0.2488
 1050loPI   PO415780  13.839  18.218   5.048  0.2004 -0.2945 -0.1015
 1050loPI   GL115781  14.093  18.194   5.370  0.1429 -0.1812  0.1072
 1050loPI   GL215782  13.968  17.974   5.479  0.0888 -0.1071  0.2730
 1050loPI   C1A15783  14.065  18.441   5.692 -0.0218  0.1049 -0.0268
 1050loPI   C2A15784  14.114  18.657   6.112  0.2540 -0.3855 -0.1399
 1050loPI   C3A15785  13.988  18.693   6.524 -0.3143  0.0247  0.1078
 1050loPI   C4A15786  13.749  18.713   6.861 -0.0989 -0.0372 -0.0409
 1050loPI   C5A15787  13.708  18.673   7.301  0.0116 -0.1960  0.0702
 1050loPI   C6A15788  13.542  18.462   7.709  0.1413 -0.1954 -0.3590
 1050loPI   C1B15789  14.284  17.919   5.822 -0.0523 -0.0447  0.1899
 1050loPI   C2B15790  14.454  17.932   6.296  0.1759 -0.0569 -0.2916
 1050loPI   C3B15791  14.513  17.910   6.816 -0.1229  0.2384  0.1054
 1050loPI   C4B15792  14.567  17.635   7.198 -0.0305 -0.0690 -0.0421
 1051loPI    C115793  16.758  11.207   4.793  0.3247 -0.2103  0.0400
 1051loPI    C215794  16.736  10.849   4.616  0.2433 -0.1207 -0.1335
 1051loPI    C315795  16.965  11.137   4.459 -0.0247  0.0400 -0.2370
 1051loPI   PO415796  16.830  11.159   5.054  0.1774  0.1393  0.1768
 1051loPI   GL115797  16.621  11.128   5.498 -0.1289 -0.0628  0.2133
 1051loPI   GL215798  16.473  11.445   5.637 -0.0904 -0.0825 -0.1621
 1051loPI   C1A15799  16.606  10.970   5.830 -0.5121 -0.0973 -0.0802
 1051loPI   C2A15800  16.448  11.092   6.194  0.1471  0.1568  0.0801
 1051loPI   C3A15801  16.543  11.306   6.553 -0.0741 -0.0496  0.1434
 1051loPI   C4A15802  16.706  11.192   7.063  0.2413 -0.1188  0.0536
 1051loPI   C5A15803  16.911  11.025   7.443  0.0566 -0.1446 -0.2586
 1051loPI   C6A15804  16.857  10.745   7.775  0.0559  0.1031  0.2441
 1051loPI   C1B15805  16.750  11.443   5.863  0.0585  0.2764  0.1498
 1051loPI   C2B15806  16.654  11.655   6.199  0.1707  0.0315 -0.1191
 1051loPI   C3B15807  16.358  11.779   6.487 -0.1222  0.1825 -0.0620
 1051loPI   C4B15808  16.132  11.830   6.782  0.1400 -0.0391  0.1238
 1052loPI    C115809  16.331   3.749   5.184  0.0455 -0.0337 -0.0138
 1052loPI    C215810  16.197   3.536   4.872 -0.1276 -0.0893  0.0965
 1052loPI    C315811  16.590   3.590   4.925 -0.0748 -0.4763  0.1276
 1052loPI   PO415812  16.258   3.591   5.372  0.2188 -0.0431 -0.1022
 1052loPI   GL115813  16.340   3.796   5.753  0.0587  0.1671 -0.0317
 1052loPI   GL215814  16.090   3.582   5.954  0.0312  0.0431 -0.0431
 1052loPI   C1A15815  16.698   3.756   6.015  0.0552 -0.1236 -0.3850
 1052loPI   C2A15816  16.739   3.664   6.402  0.2395 -0.1636 -0.1511
 1052loPI   C3A15817  16.750   3.424   6.718 -0.2472  0.1654 -0.3626
 1052loPI   C4A15818  16.795   3.288   7.066  0.1986  0.1957 -0.2364
 1052loPI   C5A15819  17.058   2.995   7.269  0.1831 -0.0840  0.3020
 1052loPI   C6A15820  17.288   2.620   7.277  0.1827  0.0886  0.1128
 1052loPI   C1B15821  16.255   3.752   6.373  0.2566  0.0115 -0.1016
 1052loPI   C2B15822  16.165   3.712   6.789  0.0430 -0.3415 -0.0887
 1052loPI   C3B15823  16.346   3.513   7.038 -0.0704 -0.2889 -0.1252
 1052loPI   C4B15824  16.438   3.546   7.523  0.1340  0.2462  0.2065
 1053loPI    C115825  11.167  14.723   5.087  0.0338 -0.2297  0.1384
 1053loPI    C215826  11.547  14.611   5.136  0.1616  0.1288  0.0001
 1053loPI    C315827  11.433  14.784   4.794 -0.0868  0.1834  0.1088
 1053loPI   PO415828  11.027  14.683   5.302  0.1619 -0.0311 -0.2422
 1053loPI   GL115829  10.911  14.658   5.723  0.1159  0.0120 -0.1712
 1053loPI   GL215830  11.156  14.513   5.858 -0.1851  0.0449  0.0479
 1053loPI   C1A15831  10.724  14.787   6.117  0.2043  0.2159  0.1911
 1053loPI   C2A15832  10.616  14.715   6.550 -0.0378 -0.1741 -0.1471
 1053loPI   C3A15833  10.589  14.731   6.977 -0.1471 -0.2916 -0.0672
 1053loPI   C4A15834  10.487  14.612   7.448  0.0048  0.0018  0.2985
 1053loPI   C5A15835  10.576  14.435   7.901  0.3304  0.0430  0.1107
 1053loPI   C6A15836  10.868  14.157   8.101  0.0805 -0.3418 -0.1537
 1053loPI   C1B15837  11.040  14.465   6.417  0.1085 -0.0696 -0.0214
 1053loPI   C2B15838  10.996  14.465   6.848  0.1952 -0.3162 -0.0386
 1053loPI   C3B15839  10.968  14.472   7.237 -0.2029  0.1814 -0.1016
 1053loPI   C4B15840  10.930  14.508   7.636  0.0102 -0.1622 -0.2808
 1054loPI    C115841  16.940  13.491   5.445 -0.1650  0.1448  0.0087
 1054loPI    C215842  16.939  13.836   5.242  0.1194  0.1624  0.0327
 1054loPI    C315843  17.103  13.509   5.080 -0.1620  0.0323  0.0043
 1054loPI   PO415844  16.837  13.567   5.623 -0.1403  0.1010 -0.0575
 1054loPI   GL115845  16.720  13.630   5.998  0.0866  0.1457 -0.4105
 1054loPI   GL215846  16.356  13.646   5.980 -0.3869  0.3678 -0.1297
 1054loPI   C1A15847  16.612  13.762   6.390  0.0600  0.1548 -0.0246
 1054loPI   C2A15848  16.563  13.684   6.853 -0.0399 -0.0563 -0.2487
 1054loPI   C3A15849  16.456  13.621   7.280 -0.0749  0.1320  0.1027
 1054loPI   C4A15850  16.297  13.369   7.583 -0.1235  0.1020 -0.1590
 1054loPI   C5A15851  16.445  13.310   7.986  0.1024  0.0702 -0.0539
 1054loPI   C6A15852  16.549  12.955   8.312 -0.1523  0.1154 -0.0657
 1054loPI   C1B15853  16.270  14.064   6.091 -0.0380 -0.0163 -0.4028
 1054loPI   C2B15854  16.270  14.294   6.482 -0.3898  0.0048 -0.2624
 1054loPI   C3B15855  16.325  14.158   6.969 -0.3303  0.2187  0.1021
 1054loPI   C4B15856  16.426  14.207   7.426 -0.1574 -0.2719 -0.2388
 1055loPI    C115857   3.966  11.316   5.094 -0.1085  0.0672 -0.0704
 1055loPI    C215858   3.626  11.276   4.888 -0.1585  0.2107 -0.0170
 1055loPI    C315859   3.881  11.571   4.798 -0.0446  0.0998 -0.0609
 1055loPI   PO415860   3.844  11.394   5.385 -0.3672  0.2474 -0.0664
 1055loPI   GL115861   3.732  11.211   5.749 -0.0547 -0.0889  0.0785
 1055loPI   GL215862   4.152  11.253   5.785 -0.0903  0.0938  0.1362
 1055loPI   C1A15863   3.464  11.354   6.073  0.0303 -0.2947 -0.0175
 1055loPI   C2A15864   3.388  11.650   6.348 -0.2419  0.2169  0.0233
 1055loPI   C3A15865   3.428  11.845   6.719  0.1221  0.2604  0.2504
 1055loPI   C4A15866   3.472  11.941   7.135 -0.1512 -0.4307  0.0086
 1055loPI   C5A15867   3.753  11.746   7.524  0.3758  0.0094 -0.1210
 1055loPI   C6A15868   3.707  11.579   7.929  0.0150 -0.1979  0.0681
 1055loPI   C1B15869   4.319  11.136   6.203  0.2083  0.2410  0.0573
 1055loPI   C2B15870   4.425  11.516   6.515  0.1686 -0.0514 -0.3141
 1055loPI   C3B15871   4.619  11.442   7.000  0.3162 -0.0969  0.1463
 1055loPI   C4B15872   4.877  11.187   7.342 -0.1093  0.1060 -0.0004
 1056loPI    C115873  14.825   1.390   5.210 -0.5111  0.0593  0.2243
 1056loPI    C215874  14.698   1.487   4.843  0.0257 -0.0090  0.0110
 1056loPI    C315875  14.722   1.768   5.127 -0.0211  0.1266 -0.1178
 1056loPI   PO415876  14.670   1.099   5.181  0.2260  0.2499  0.0014
 1056loPI   GL115877  14.374   0.928   5.351  0.1419  0.0132 -0.0700
 1056loPI   GL215878  14.122   0.784   5.299 -0.2424 -0.0010 -0.1091
 1056loPI   C1A15879  14.282   1.093   5.821 -0.1275 -0.3110 -0.0048
 1056loPI   C2A15880  14.090   1.267   6.225 -0.1706 -0.1184 -0.1935
 1056loPI   C3A15881  14.094   1.279   6.668 -0.2001  0.1801 -0.0159
 1056loPI   C4A15882  13.966   1.246   7.094 -0.1217  0.0260 -0.0749
 1056loPI   C5A15883  13.824   1.403   7.550  0.1103 -0.1235  0.2167
 1056loPI   C6A15884  14.135   1.670   7.725  0.2069  0.0920 -0.0891
 1056loPI   C1B15885  14.004   0.599   5.687 -0.5720 -0.2841 -0.0372
 1056loPI   C2B15886  13.984   0.784   6.122  0.0810  0.2141 -0.1507
 1056loPI   C3B15887  13.923   0.822   6.520  0.0214 -0.0331 -0.0423
 1056loPI   C4B15888  13.922   0.787   6.911 -0.0969  0.1964 -0.2260
 1057loPI    C115889  10.995   4.138   4.855  0.0921  0.1452 -0.1195
 1057loPI    C215890  11.130   3.776   4.751  0.1630  0.1507 -0.0474
 1057loPI    C315891  11.354   4.100   4.682  0.1750  0.1627  0.0465
 1057loPI   PO415892  10.903   4.086   5.109 -0.1812  0.1469 -0.1781
 1057loPI   GL115893  11.062   3.878   5.497  0.0797  0.4220 -0.0375
 1057loPI   GL215894  11.006   3.572   5.301 -0.1445 -0.2093  0.2038
 1057loPI   C1A15895  11.201   3.923   5.951 -0.1688  0.2630  0.1601
 1057loPI   C2A15896  11.337   3.967   6.352 -0.1098  0.0707 -0.4104
 1057loPI   C3A15897  11.384   3.859   6.744  0.4184 -0.0406  0.0140
 1057loPI   C4A15898  11.333   3.780   7.116  0.2285  0.0211 -0.0566
 1057loPI   C5A15899  11.210   3.665   7.602  0.3320  0.1212  0.0460
 1057loPI   C6A15900  11.221   3.193   7.714  0.0054 -0.2407 -0.0097
 1057loPI   C1B15901  10.926   3.529   5.782  0.0845  0.2969  0.3573
 1057loPI   C2B15902  10.940   3.548   6.248 -0.1797  0.1142  0.0667
 1057loPI   C3B15903  11.009   3.407   6.720  0.0319  0.2955  0.0929
 1057loPI   C4B15904  11.093   3.341   7.164 -0.1917  0.0532 -0.0742
 1058loPI    C115905  13.323   2.166   5.001 -0.0269  0.0188 -0.1531
 1058loPI    C215906  13.691   2.238   4.862  0.0677  0.0859  0.1263
 1058loPI    C315907  13.387   2.471   4.750  0.1164  0.0558 -0.0728
 1058loPI   PO415908  13.359   2.144   5.255 -0.5299  0.2901 -0.0809
 1058loPI   GL115909  13.611   2.090   5.574 -0.2426  0.0289  0.2989
 1058loPI   GL215910  13.491   2.373   5.689  0.1016  0.0831  0.1712
 1058loPI   C1A15911  13.573   1.879   5.908 -0.0779  0.2882  0.0051
 1058loPI   C2A15912  13.537   1.979   6.287 -0.4472 -0.0045  0.0067
 1058loPI   C3A15913  13.524   2.087   6.728 -0.0205 -0.1301 -0.0238
 1058loPI   C4A15914  13.482   2.092   7.249  0.3170 -0.0440 -0.0271
 1058loPI   C5A15915  13.643   1.979   7.574 -0.2404  0.2174  0.0527
 1058loPI   C6A15916  13.723   1.878   8.031 -0.1374  0.0283 -0.3894
 1058loPI   C1B15917  13.610   2.499   6.127 -0.2605 -0.0774  0.0673
 1058loPI   C2B15918  13.672   2.545   6.536 -0.0284 -0.0946  0.0209
 1058loPI   C3B15919  13.727   2.478   7.004  0.2071  0.2144  0.4093
 1058loPI   C4B15920  14.061   2.232   7.267  0.6160  0.0872 -0.0038
 1059loPI    C115921  15.725   7.509   5.417  0.0099 -0.0583  0.0968
 1059loPI    C215922  15.460   7.799   5.339  0.0230 -0.0763 -0.0168
 1059loPI    C315923  15.564   7.540   5.052 -0.1334 -0.3130  0.1362
 1059loPI   PO415924  15.690   7.527   5.685 -0.1256  0.1345 -0.0151
 1059loPI   GL115925  15.991   7.416   6.090 -0.2212 -0.2776 -0.0224
 1059loPI   GL215926  16.238   7.261   6.164  0.1380  0.0040  0.2758
 1059loPI   C1A15927  15.951   7.575   6.433  0.0554 -0.0941 -0.0209
 1059loPI   C2A15928  15.936   7.661   6.877  0.1727 -0.4330  0.2708
 1059loPI   C3A15929  15.666   7.797   7.138  0.0387  0.1072  0.0526
 1059loPI   C4A15930  15.808   8.138   7.294  0.2149  0.0600  0.0157
 1059loPI   C5A15931  15.741   8.325   7.668  0.1488 -0.2434 -0.2461
 1059loPI   C6A15932  15.643   8.699   7.820  0.1141 -0.0788 -0.0616
 1059loPI   C1B15933  16.067   7.120   6.544 -0.1634  0.0282 -0.0534
 1059loPI   C2B15934  16.109   7.181   6.890  0.3545 -0.1680 -0.2418
 1059loPI   C3B15935  16.293   7.082   7.253  0.2054 -0.0260 -0.1640
 1059loPI   C4B15936  16.399   7.025   7.545  0.0277  0.1252  0.0439
 1060loPI    C115937  11.212  10.049   5.426  0.0942  0.3357  0.2355
 1060loPI    C215938  11.551  10.249   5.353  0.3526 -0.1188  0.1555
 1060loPI    C315939  11.412   9.985   5.086  0.0694 -0.1212  0.3006
 1060loPI   PO415940  11.225  10.190   5.711 -0.4781 -0.1089 -0.1848
 1060loPI   GL115941  11.180  10.004   6.157 -0.0802 -0.3236 -0.1474
 1060loPI   GL215942  11.405   9.829   6.267  0.0977 -0.2087  0.2060
 1060loPI   C1A15943  11.268  10.202   6.602 -0.3190  0.4122  0.0029
 1060loPI   C2A15944  11.383  10.050   7.010 -0.0542  0.1777  0.0991
 1060loPI   C3A15945  11.583   9.838   7.397  0.3728  0.2926  0.1942
 1060loPI   C4A15946  11.715   9.791   7.785  0.0763  0.0769 -0.0196
 1060loPI   C5A15947  12.000  10.031   8.133 -0.4434 -0.0902  0.0134
 1060loPI   C6A15948  12.379   9.880   8.336  0.0339 -0.1503 -0.1676
 1060loPI   C1B15949  11.615   9.716   6.615  0.0459  0.0087  0.0532
 1060loPI   C2B15950  11.812   9.645   6.991 -0.0422 -0.0404 -0.2639
 1060loPI   C3B15951  11.865   9.339   7.382 -0.0006 -0.0414  0.4241
 1060loPI   C4B15952  11.997   9.200   7.725  0.0387 -0.1300  0.2038
 1061loPI    C115953   4.701   5.361   5.457 -0.0239 -0.3644 -0.0317
 1061loPI    C215954   4.400   5.446   5.208  0.1039 -0.2353 -0.1440
 1061loPI    C315955   4.705   5.702   5.248  0.0133 -0.1839  0.2581
 1061loPI   PO415956   4.763   5.098   5.588 -0.2943  0.0996  0.3382
 1061loPI   GL115957   4.868   4.949   5.984  0.1602 -0.0174 -0.0301
 1061loPI   GL215958   5.267   4.969   6.012 -0.0044 -0.3424  0.0120
 1061loPI   C1A15959   4.946   4.842   6.403  0.0447 -0.3560 -0.3216
 1061loPI   C2A15960   4.880   4.831   6.771  0.1031 -0.1288 -0.2264
 1061loPI   C3A15961   5.055   4.954   7.165 -0.1049  0.2234  0.0553
 1061loPI   C4A15962   4.803   4.742   7.387 -0.2312  0.3392 -0.0789
 1061loPI   C5A15963   4.623   4.386   7.441 -0.0687  0.1542 -0.0651
 1061loPI   C6A15964   4.811   3.913   7.305 -0.1256 -0.0935  0.0907
 1061loPI   C1B15965   5.335   5.141   6.422  0.0263 -0.0925  0.3136
 1061loPI   C2B15966   5.262   5.282   6.825 -0.2078  0.0039 -0.1321
 1061loPI   C3B15967   5.317   5.412   7.287  0.3332  0.0810  0.0510
 1061loPI   C4B15968   5.241   5.048   7.619  0.1030  0.1022  0.1723
 1062loPI    C115969  15.214   0.672   5.086  0.1096 -0.1104 -0.1003
 1062loPI    C215970  15.482   0.510   4.838  0.0498 -0.0816 -0.1841
 1062loPI    C315971  15.092   0.470   4.763  0.0253 -0.2969  0.0460
 1062loPI   PO415972  15.397   0.649   5.333  0.1244  0.2524 -0.2376
 1062loPI   GL115973  15.679   0.477   5.694  0.0941  0.2179 -0.4394
 1062loPI   GL215974  16.034   0.522   5.883 -0.1745 -0.2212 -0.0383
 1062loPI   C1A15975  15.415   0.513   6.046  0.1596  0.0300  0.1485
 1062loPI   C2A15976  15.347   0.439   6.436  0.3361  0.0339 -0.1040
 1062loPI   C3A15977  15.399   0.283   6.867  0.2757  0.0725  0.2137
 1062loPI   C4A15978  15.331   0.411   7.253  0.0309 -0.0560 -0.0441
 1062loPI   C5A15979  15.004   0.721   7.457 -0.1296  0.4503 -0.1346
 1062loPI   C6A15980  14.702   0.959   7.690  0.0187  0.2077 -0.0834
 1062loPI   C1B15981  15.840   0.693   6.308  0.1315 -0.1439 -0.0862
 1062loPI   C2B15982  15.696   0.697   6.747  0.0003  0.1099 -0.1574
 1062loPI   C3B15983  15.825   0.543   7.177 -0.3933  0.2791  0.1097
 1062loPI   C4B15984  16.199   0.287   7.458 -0.1129  0.0329 -0.1816
 1063loPI    C115985   3.667  12.340   5.199  0.2860 -0.0155 -0.0894
 1063loPI    C215986   3.369  12.186   4.981  0.0441  0.0863  0.1642
 1063loPI    C315987   3.576  12.498   4.842  0.0467  0.0032 -0.0219
 1063loPI   PO415988   3.618  12.161   5.450 -0.1290 -0.1489 -0.1417
 1063loPI   GL115989   3.782  12.078   5.784 -0.1562  0.0203  0.1429
 1063loPI   GL215990   3.712  11.754   5.751  0.2680  0.1058  0.2766
 1063loPI   C1A15991   3.584  12.100   6.289 -0.1319 -0.1873  0.2046
 1063loPI   C2A15992   3.664  12.434   6.558  0.0743  0.0133 -0.1765
 1063loPI   C3A15993   3.599  12.432   6.964  0.1217  0.0713  0.1776
 1063loPI   C4A15994   3.517  12.601   7.427  0.2132  0.0860 -0.1545
 1063loPI   C5A15995   3.420  12.722   7.834  0.1803 -0.0594 -0.2612
 1063loPI   C6A15996   3.524  13.049   8.190  0.2325 -0.1352  0.1022
 1063loPI   C1B15997   3.882  11.661   6.055 -0.0296  0.0295 -0.0085
 1063loPI   C2B15998   4.023  11.905   6.396  0.1242 -0.0159 -0.3881
 1063loPI   C3B15999   4.021  12.076   6.767 -0.0152  0.0191 -0.2083
 1063loPI   C4B16000   3.952  12.172   7.260  0.1465 -0.2808  0.0262
 1064loPI    C116001   3.320   2.488   5.355  0.1925  0.0467 -0.1180
 1064loPI    C216002   3.150   2.162   5.196 -0.2029  0.2291 -0.0816
 1064loPI    C316003   3.380   2.398   4.970 -0.1314  0.0691 -0.1772
 1064loPI   PO416004   3.431   2.521   5.589 -0.0930  0.0873 -0.1647
 1064loPI   GL116005   3.320   2.664   5.989 -0.3816 -0.0979 -0.1575
 1064loPI   GL216006   3.675   2.827   5.949  0.0339  0.2366  0.1225
 1064loPI   C1A16007   3.584   2.592   6.404 -0.3349 -0.1153  0.2459
 1064loPI   C2A16008   3.607   2.340   6.761 -0.1668 -0.0817 -0.1588
 1064loPI   C3A16009   3.731   2.307   7.172 -0.0256 -0.0975  0.0364
 1064loPI   C4A16010   3.588   2.346   7.598  0.1009  0.0018  0.2725
 1064loPI   C5A16011   3.283   2.646   7.763 -0.1830  0.3694 -0.3301
 1064loPI   C6A16012   2.854   2.843   7.888 -0.0600 -0.3152  0.2886
 1064loPI   C1B16013   3.495   3.103   6.219  0.0130 -0.0686 -0.1117
 1064loPI   C2B16014   3.362   3.072   6.610 -0.0779 -0.0752 -0.0171
 1064loPI   C3B16015   3.140   2.825   6.849 -0.2874  0.1120 -0.0394
 1064loPI   C4B16016   3.251   2.527   7.139  0.1674  0.1261  0.0833
 1065loPI    C116017   1.987   0.412   5.034  0.1720 -0.0345  0.1324
 1065loPI    C216018   2.196   0.470   4.698  0.0729  0.0128  0.0786
 1065loPI    C316019   2.231   0.126   4.899  0.4142  0.1276  0.2213
 1065loPI   PO416020   1.942   0.624   5.198 -0.0006  0.0197 -0.3456
 1065loPI   GL116021   2.147   0.670   5.552  0.1398  0.4118  0.0476
 1065loPI   GL216022   1.927   0.997   5.568 -0.1204  0.0373  0.0642
 1065loPI   C1A16023   2.368   0.784   5.965  0.2964  0.0929  0.0729
 1065loPI   C2A16024   2.267   0.887   6.430 -0.3391 -0.1156  0.1424
 1065loPI   C3A16025   2.370   0.910   6.842  0.0478 -0.2101  0.0321
 1065loPI   C4A16026   2.419   0.908   7.314 -0.0367 -0.1092 -0.1548
 1065loPI   C5A16027   2.701   1.154   7.602 -0.2007  0.0902  0.1792
 1065loPI   C6A16028   2.626   1.202   8.070  0.1625 -0.1277 -0.0782
 1065loPI   C1B16029   1.817   0.978   5.957 -0.1043  0.0179 -0.1053
 1065loPI   C2B16030   1.761   0.991   6.427  0.0769 -0.3498  0.0522
 1065loPI   C3B16031   1.966   1.229   6.784  0.3132 -0.2150 -0.0579
 1065loPI   C4B16032   2.044   1.321   7.219  0.0237 -0.1404 -0.2716
 1066loPI    C116033   1.449  16.008   5.154  0.1052  0.0108 -0.1377
 1066loPI    C216034   1.509  16.386   5.270  0.0369 -0.0510  0.1056
 1066loPI    C316035   1.576  16.280   4.890 -0.2199  0.2700 -0.0346
 1066loPI   PO416036   1.238  15.963   5.347  0.4465  0.0939 -0.3359
 1066loPI   GL116037   1.197  15.769   5.634 -0.0266 -0.0692 -0.2850
 1066loPI   GL216038   1.318  15.409   5.749 -0.1056 -0.1316 -0.0847
 1066loPI   C1A16039   0.930  15.721   5.988  0.2201  0.0332 -0.2896
 1066loPI   C2A16040   0.916  15.855   6.385  0.0631  0.0596 -0.0159
 1066loPI   C3A16041   0.960  15.637   6.853 -0.1181 -0.1173  0.0968
 1066loPI   C4A16042   1.053  15.719   7.297 -0.2383  0.3419  0.2290
 1066loPI   C5A16043   1.098  15.407   7.625 -0.1841 -0.3944  0.0997
 1066loPI   C6A16044   0.791  15.285   7.879  0.0763  0.1714  0.1773
 1066loPI   C1B16045   1.514  15.217   5.989  0.1200 -0.0511  0.0931
 1066loPI   C2B16046   1.496  15.111   6.362 -0.0254  0.2051 -0.0042
 1066loPI   C3B16047   1.555  15.279   6.786  0.0359 -0.4879  0.1992
 1066loPI   C4B16048   1.563  15.689   6.990  0.2071  0.1592 -0.1672
 1067loPI    C116049   2.609   7.195   5.456  0.0409  0.0754 -0.0081
 1067loPI    C216050   2.415   7.120   5.114  0.1313 -0.1476 -0.0120
 1067loPI    C316051   2.649   7.443   5.144 -0.1462  0.0604 -0.0450
 1067loPI   PO416052   2.493   7.113   5.643  0.1449  0.3621 -0.0728
 1067loPI   GL116053   2.324   7.068   6.027  0.0572 -0.1741 -0.0336
 1067loPI   GL216054   2.228   7.441   5.967  0.0838  0.1732  0.1126
 1067loPI   C1A16055   2.346   7.196   6.473 -0.0239 -0.0498  0.0364
 1067loPI   C2A16056   2.488   7.294   6.963  0.1175  0.1756  0.1099
 1067loPI   C3A16057   2.345   7.549   7.384  0.0619  0.0953  0.2935
 1067loPI   C4A16058   2.090   7.436   7.739 -0.0424  0.1621 -0.2623
 1067loPI   C5A16059   1.882   7.050   7.855 -0.0578  0.1410  0.3076
 1067loPI   C6A16060   1.593   6.821   7.974 -0.2134 -0.1379 -0.1440
 1067loPI   C1B16061   2.161   7.834   6.235  0.2457  0.0511  0.3924
 1067loPI   C2B16062   1.952   8.094   6.476  0.0977  0.0505  0.1368
 1067loPI   C3B16063   1.538   7.995   6.761  0.1063 -0.0576  0.1735
 1067loPI   C4B16064   1.372   7.914   7.125 -0.1362  0.2149  0.2895
 1068loPI    C116065  10.702  18.022   5.300  0.0353  0.2252 -0.1576
 1068loPI    C216066  10.712  17.712   5.048 -0.0100  0.1204 -0.0316
 1068loPI    C316067  10.970  18.014   5.004  0.0689  0.0405 -0.1233
 1068loPI   PO416068  10.704  17.961   5.523  0.2597 -0.1302  0.0478
 1068loPI   GL116069  10.815  17.807   5.866 -0.2592 -0.0655 -0.2529
 1068loPI   GL216070  10.484  17.853   6.013  0.1485  0.0646 -0.0761
 1068loPI   C1A16071  10.849  18.156   6.245 -0.0352 -0.2640  0.0971
 1068loPI   C2A16072  10.739  18.380   6.619 -0.1961  0.1751 -0.2621
 1068loPI   C3A16073  10.494  18.352   7.050  0.0266 -0.0050  0.3553
 1068loPI   C4A16074  10.483  18.350   7.440 -0.1927  0.0063  0.2029
 1068loPI   C5A16075  10.145  18.310   7.795 -0.0828  0.0641  0.2083
 1068loPI   C6A16076   9.970  18.235   8.107 -0.0947 -0.0529  0.1897
 1068loPI   C1B16077  10.422  17.979   6.417  0.0881 -0.0929  0.0152
 1068loPI   C2B16078  10.488  17.908   6.838 -0.2173 -0.1972  0.0046
 1068loPI   C3B16079  10.401  17.645   7.229 -0.0088 -0.0081 -0.2206
 1068loPI   C4B16080  10.212  17.243   7.063  0.1746  0.0597 -0.4378
 1069loPI    C116081  11.419  17.235   5.378 -0.0669 -0.1088 -0.1548
 1069loPI    C216082  11.648  17.376   5.675 -0.2488  0.0099 -0.0692
 1069loPI    C316083  11.628  17.573   5.327 -0.2011 -0.0144 -0.0857
 1069loPI   PO416084  11.246  17.084   5.500  0.1550 -0.3719  0.0687
 1069loPI   GL116085  11.068  17.049   5.856  0.5318  0.2536 -0.1863
 1069loPI   GL216086  10.826  17.277   5.849  0.0623 -0.0804 -0.0530
 1069loPI   C1A16087  10.889  17.064   6.289  0.0492  0.0110 -0.1760
 1069loPI   C2A16088  10.597  17.007   6.636 -0.1788  0.0714 -0.0267
 1069loPI   C3A16089  10.597  16.879   7.023 -0.1444 -0.1180 -0.0846
 1069loPI   C4A16090  10.781  16.831   7.417  0.2009  0.0621  0.1176
 1069loPI   C5A16091  11.156  16.787   7.581  0.2909  0.0714  0.1186
 1069loPI   C6A16092  11.562  16.715   7.778 -0.1039  0.2460  0.1059
 1069loPI   C1B16093  10.883  17.576   6.332  0.1281 -0.0630  0.1801
 1069loPI   C2B16094  10.953  17.938   6.662 -0.1998 -0.1576 -0.0164
 1069loPI   C3B16095  10.916  17.973   7.082  0.0500 -0.0876 -0.1203
 1069loPI   C4B16096  11.120  18.027   7.512  0.0211 -0.1336 -0.0681
 1070loPI    C116097   6.825   9.287   5.610 -0.0456 -0.0616 -0.0891
 1070loPI    C216098   7.114   9.334   5.339  0.0619 -0.0743  0.0225
 1070loPI    C316099   7.061   8.979   5.515  0.0344 -0.0488  0.0658
 1070loPI   PO416100   6.850   9.651   5.653  0.1353  0.3139  0.0533
 1070loPI   GL116101   7.142   9.787   6.007 -0.0162 -0.3199 -0.1001
 1070loPI   GL216102   7.347  10.079   5.919 -0.1906  0.2020 -0.0652
 1070loPI   C1A16103   6.980   9.758   6.350 -0.2680  0.1361  0.0760
 1070loPI   C2A16104   6.956   9.997   6.690  0.0607  0.4625  0.0279
 1070loPI   C3A16105   7.046  10.215   7.153 -0.1171 -0.1806  0.0417
 1070loPI   C4A16106   7.111  10.521   7.335 -0.3213  0.0211  0.0637
 1070loPI   C5A16107   6.799  10.708   7.578 -0.0974 -0.6341 -0.2730
 1070loPI   C6A16108   6.442  10.939   7.836  0.0199 -0.3190 -0.0790
 1070loPI   C1B16109   7.142  10.343   6.308  0.1293  0.0405 -0.0156
 1070loPI   C2B16110   6.873  10.554   6.574  0.0688  0.2014  0.1372
 1070loPI   C3B16111   6.570  10.724   6.560 -0.0608  0.5451 -0.1723
 1070loPI   C4B16112   6.351  10.996   6.764 -0.4514  0.1520  0.1256
 1071loPI    C116113   2.909  17.995   5.398 -0.1255 -0.2132  0.0169
 1071loPI    C216114   3.153  18.253   5.214 -0.0908 -0.1427  0.1603
 1071loPI    C316115   2.962  17.972   5.003  0.0262 -0.1261  0.0316
 1071loPI   PO416116   3.060  17.931   5.643  0.2413  0.0070 -0.1997
 1071loPI   GL116117   3.299  17.791   5.886  0.0765 -0.0156 -0.1473
 1071loPI   GL216118   3.229  18.176   6.011  0.1862  0.2804 -0.0101
 1071loPI   C1A16119   3.177  17.602   6.304 -0.1913  0.1529 -0.0271
 1071loPI   C2A16120   3.071  17.570   6.757 -0.1639 -0.1050  0.1035
 1071loPI   C3A16121   2.869  17.384   7.055  0.2357  0.0332 -0.0406
 1071loPI   C4A16122   3.038  17.032   7.318 -0.2983  0.1705  0.1664
 1071loPI   C5A16123   3.425  16.778   7.157  0.0251 -0.0576 -0.0297
 1071loPI   C6A16124   3.783  16.468   7.103 -0.3175  0.3228  0.3623
 1071loPI   C1B16125   3.126  18.057   6.526 -0.0716  0.2060 -0.0880
 1071loPI   C2B16126   3.073  18.071   6.898 -0.2260 -0.1825 -0.0656
 1071loPI   C3B16127   3.107  17.768   7.199 -0.1025 -0.3424  0.0780
 1071loPI   C4B16128   2.846  17.606   7.527  0.2114  0.3624 -0.3851
 1072loPI    C116129  13.716   3.921   5.296 -0.0070 -0.1605  0.0785
 1072loPI    C216130  13.894   3.877   4.940 -0.0670 -0.2377  0.0578
 1072loPI    C316131  13.556   4.089   4.970  0.1512  0.1085  0.1361
 1072loPI   PO416132  13.752   3.696   5.394  0.1553 -0.1798  0.4034
 1072loPI   GL116133  13.743   3.403   5.735 -0.0966 -0.2195  0.2244
 1072loPI   GL216134  14.015   3.188   5.825 -0.2745  0.0547  0.1179
 1072loPI   C1A16135  13.788   3.594   6.212 -0.1485  0.0890  0.1296
 1072loPI   C2A16136  13.756   3.738   6.632 -0.0390  0.0127  0.0927
 1072loPI   C3A16137  13.716   3.928   7.048  0.1913 -0.2859 -0.1069
 1072loPI   C4A16138  13.844   3.893   7.418 -0.1811 -0.2129  0.0692
 1072loPI   C5A16139  14.167   4.121   7.571  0.0221  0.1615  0.2123
 1072loPI   C6A16140  14.251   4.567   7.930 -0.2223 -0.1292 -0.3387
 1072loPI   C1B16141  14.206   3.155   6.213 -0.0213 -0.0944 -0.1886
 1072loPI   C2B16142  14.063   3.334   6.659  0.2137 -0.2768  0.0347
 1072loPI   C3B16143  13.876   3.355   7.054 -0.2176 -0.2096  0.0861
 1072loPI   C4B16144  13.881   3.262   7.498  0.0669 -0.0373  0.1192
 1073loPI    C116145   4.599   3.341   5.014 -0.1140 -0.0152  0.0564
 1073loPI    C216146   4.403   3.628   4.816  0.0076  0.0130 -0.0245
 1073loPI    C316147   4.369   3.246   4.701 -0.1953 -0.0123  0.1151
 1073loPI   PO416148   4.598   3.460   5.250  0.2472  0.4310  0.2561
 1073loPI   GL116149   4.596   3.162   5.606  0.0135  0.0261 -0.3678
 1073loPI   GL216150   4.761   2.883   5.687 -0.1787 -0.1669  0.0138
 1073loPI   C1A16151   4.792   3.490   5.877  0.0755  0.0254 -0.0746
 1073loPI   C2A16152   5.093   3.564   6.121 -0.1676 -0.0593  0.3060
 1073loPI   C3A16153   5.190   3.723   6.469 -0.2019  0.2823  0.0588
 1073loPI   C4A16154   5.198   3.826   6.903  0.1783  0.3105 -0.0120
 1073loPI   C5A16155   5.231   3.585   7.308  0.0119  0.0856 -0.3258
 1073loPI   C6A16156   5.253   3.452   7.638  0.0629  0.0699 -0.1300
 1073loPI   C1B16157   5.077   2.801   6.054  0.1135 -0.2565 -0.4457
 1073loPI   C2B16158   5.091   2.724   6.482 -0.0744 -0.0907  0.0944
 1073loPI   C3B16159   4.951   2.487   6.728  0.0575 -0.0265 -0.1163
 1073loPI   C4B16160   4.735   2.603   7.109 -0.2055  0.0867  0.0860
 1074loPI    C116161   2.152  14.093   5.071 -0.2175  0.1171 -0.0539
 1074loPI    C216162   2.459  14.276   4.890 -0.0469 -0.1036  0.0077
 1074loPI    C316163   2.367  13.898   4.796  0.0438 -0.2214  0.3766
 1074loPI   PO416164   2.220  14.227   5.335 -0.3439 -0.0482  0.0060
 1074loPI   GL116165   2.364  14.625   5.559 -0.0002  0.0394  0.0683
 1074loPI   GL216166   2.625  14.458   5.704 -0.0447  0.2478  0.0668
 1074loPI   C1A16167   2.092  14.615   5.922  0.0081  0.0873  0.2901
 1074loPI   C2A16168   2.073  14.550   6.390 -0.0433 -0.0175 -0.0402
 1074loPI   C3A16169   2.039  14.489   6.712  0.2283 -0.2271  0.0245
 1074loPI   C4A16170   2.028  14.436   7.112 -0.0128 -0.0032  0.2816
 1074loPI   C5A16171   1.984  14.322   7.603  0.0166 -0.2034  0.0906
 1074loPI   C6A16172   1.686  14.268   7.916 -0.0065 -0.1721 -0.1278
 1074loPI   C1B16173   2.582  14.348   6.167  0.2571 -0.0186  0.0963
 1074loPI   C2B16174   2.530  14.355   6.572 -0.1831  0.0770 -0.1508
 1074loPI   C3B16175   2.482  14.126   6.930  0.0615 -0.3908 -0.1863
 1074loPI   C4B16176   2.429  14.168   7.336 -0.2420  0.1511  0.3476
 1075loPI    C116177  17.312   1.941   5.139 -0.0332  0.1350 -0.2226
 1075loPI    C216178  17.570   2.246   5.113  0.2362 -0.0797 -0.1164
 1075loPI    C316179  17.515   2.003   4.800 -0.0593  0.1374 -0.2379
 1075loPI   PO416180  17.203   2.019   5.492 -0.3369 -0.0301 -0.0198
 1075loPI   GL116181  17.334   2.308   5.654  0.0149 -0.2678 -0.4205
 1075loPI   GL216182  17.153   2.536   5.642  0.2170  0.1907 -0.0762
 1075loPI   C1A16183  17.546   2.538   5.988 -0.0458 -0.0327 -0.0999
 1075loPI   C2A16184  17.722   2.501   6.383 -0.0842  0.5327 -0.2352
 1075loPI   C3A16185  17.685   2.553   6.839  0.0968 -0.1553 -0.3090
 1075loPI   C4A16186  17.758   2.494   7.304  0.2262  0.0465 -0.2368
 1075loPI   C5A16187  17.869   2.362   7.633 -0.1869  0.2417 -0.1535
 1075loPI   C6A16188  18.239   2.069   7.755  0.1183  0.0073 -0.1167
 1075loPI   C1B16189  17.055   2.373   6.008  0.2183  0.0786 -0.2073
 1075loPI   C2B16190  17.316   2.137   6.227 -0.3171  0.0876  0.3058
 1075loPI   C3B16191  17.575   2.102   6.619  0.0229  0.1030 -0.1698
 1075loPI   C4B16192  17.644   2.094   7.050  0.0026  0.0058  0.1047
 1076loPI    C116193   9.494   3.459   4.916 -0.2296 -0.3924  0.0729
 1076loPI    C216194   9.683   3.504   4.566  0.0892 -0.5365  0.2214
 1076loPI    C316195   9.316   3.345   4.577 -0.1229 -0.0907 -0.0884
 1076loPI   PO416196   9.755   3.386   5.057 -0.1736 -0.0642  0.1796
 1076loPI   GL116197   9.903   3.582   5.598 -0.2225  0.0592 -0.0097
 1076loPI   GL216198  10.135   3.699   5.639  0.2714  0.0907  0.3626
 1076loPI   C1A16199  10.061   3.381   6.018  0.2792  0.2545  0.1878
 1076loPI   C2A16200  10.140   3.193   6.447 -0.0829 -0.2398  0.2388
 1076loPI   C3A16201  10.037   3.126   6.834 -0.2957 -0.1256 -0.1647
 1076loPI   C4A16202  10.115   2.957   7.293 -0.2004 -0.0641  0.2419
 1076loPI   C5A16203   9.981   2.753   7.665 -0.1100 -0.0186  0.0619
 1076loPI   C6A16204  10.070   2.732   8.121 -0.0244 -0.0348  0.1744
 1076loPI   C1B16205  10.455   3.664   5.924 -0.1304 -0.0054  0.3677
 1076loPI   C2B16206  10.407   3.609   6.389 -0.0570  0.0375  0.0820
 1076loPI   C3B16207  10.484   3.372   6.765  0.3861  0.1138  0.1078
 1076loPI   C4B16208  10.648   3.213   7.041 -0.1473  0.0606 -0.1781
 1077loPI    C116209   0.252   3.964   5.187  0.1037  0.2084 -0.1291
 1077loPI    C216210   0.475   3.650   5.079  0.1336  0.1287  0.1548
 1077loPI    C316211   0.399   3.941   4.816  0.1572 -0.0847 -0.0929
 1077loPI   PO416212   0.357   4.041   5.406 -0.0466  0.0169  0.2232
 1077loPI   GL116213   0.379   4.115   5.772 -0.1875 -0.0150  0.1023
 1077loPI   GL216214   0.082   4.324   5.734  0.1615 -0.3082  0.0771
 1077loPI   C1A16215   0.343   4.132   6.243  0.3630  0.2676  0.3535
 1077loPI   C2A16216   0.300   4.163   6.676  0.0976  0.2288 -0.0983
 1077loPI   C3A16217   0.386   4.151   7.169 -0.0443  0.1497  0.1651
 1077loPI   C4A16218   0.543   4.354   7.459 -0.0609 -0.3151 -0.0372
 1077loPI   C5A16219   0.660   4.508   7.832  0.4087 -0.4452  0.0697
 1077loPI   C6A16220   0.727   4.716   8.311  0.3636 -0.0922  0.1112
 1077loPI   C1B16221  -0.097   4.278   6.088  0.0809 -0.0009 -0.0752
 1077loPI   C2B16222  -0.208   4.199   6.485  0.0252 -0.2184  0.2211
 1077loPI   C3B16223  -0.196   4.074   6.927  0.0398 -0.0405  0.0231
 1077loPI   C4B16224  -0.337   4.227   7.258  0.0386 -0.0006  0.2852
 1078loPI    C116225   3.095   3.515   5.399  0.0857 -0.1178  0.1259
 1078loPI    C216226   3.119   3.853   5.185  0.0343 -0.0358  0.2484
 1078loPI    C316227   3.402   3.766   5.454  0.1124 -0.1514  0.1301
 1078loPI   PO416228   2.805   3.416   5.371  0.3175 -0.2191  0.1412
 1078loPI   GL116229   2.417   3.701   5.669  0.2062  0.0359 -0.0320
 1078loPI   GL216230   2.069   3.867   5.617 -0.1003 -0.5158 -0.2136
 1078loPI   C1A16231   2.273   3.830   6.089  0.0598 -0.3337 -0.3606
 1078loPI   C2A16232   2.232   3.948   6.423  0.0402  0.0910 -0.2049
 1078loPI   C3A16233   2.313   4.017   6.862  0.1080  0.0500 -0.4735
 1078loPI   C4A16234   2.440   3.903   7.275 -0.0009 -0.1980 -0.0464
 1078loPI   C5A16235   2.271   3.509   7.593  0.2069 -0.1096  0.2246
 1078loPI   C6A16236   2.218   3.633   7.971 -0.2152 -0.0830 -0.1511
 1078loPI   C1B16237   1.792   3.898   5.937 -0.0283  0.1819 -0.3331
 1078loPI   C2B16238   1.806   3.801   6.360  0.3439 -0.2058  0.0490
 1078loPI   C3B16239   1.833   3.742   6.830 -0.1104  0.0186  0.2185
 1078loPI   C4B16240   1.983   3.609   7.173 -0.1100  0.0959 -0.2249
 1079loPI    C116241  17.588  13.403   5.147 -0.0955  0.0370 -0.1195
 1079loPI    C216242  17.864  13.130   5.244 -0.2210 -0.0303  0.0545
 1079loPI    C316243  17.784  13.206   4.859  0.0972  0.0502  0.0008
 1079loPI   PO416244  17.571  13.470   5.421 -0.0790  0.0499  0.1521
 1079loPI   GL116245  17.429  13.321   5.804 -0.0284 -0.3122  0.0121
 1079loPI   GL216246  17.677  13.285   5.874 -0.2311  0.1978 -0.0280
 1079loPI   C1A16247  17.391  13.316   6.319 -0.2150  0.2458 -0.1805
 1079loPI   C2A16248  17.448  13.269   6.768 -0.0335  0.2399  0.0425
 1079loPI   C3A16249  17.507  13.196   7.140  0.2274  0.0821 -0.0566
 1079loPI   C4A16250  17.413  13.118   7.516 -0.1196  0.1895  0.0052
 1079loPI   C5A16251  17.758  12.877   7.721  0.3809 -0.3996 -0.0404
 1079loPI   C6A16252  17.977  12.519   7.626  0.0140  0.0714  0.1300
 1079loPI   C1B16253  17.813  13.157   6.160  0.0660  0.2053 -0.2130
 1079loPI   C2B16254  17.888  13.035   6.440  0.0535  0.2747 -0.1278
 1079loPI   C3B16255  17.898  13.078   6.905 -0.0745 -0.1162  0.1805
 1079loPI   C4B16256  18.063  12.933   7.334 -0.2492  0.3473  0.0608
 1080loPI    C116257  16.528   4.478   5.472 -0.0771 -0.1176  0.0462
 1080loPI    C216258  16.403   4.290   5.802  0.0406 -0.2719  0.0040
 1080loPI    C316259  16.276   4.169   5.443 -0.0864 -0.1050 -0.0090
 1080loPI   PO416260  16.565   4.720   5.582  0.3149 -0.1846  0.1035
 1080loPI   GL116261  16.489   4.849   5.998 -0.1491  0.1942 -0.1252
 1080loPI   GL216262  16.576   5.016   6.276 -0.0272 -0.0691  0.2838
 1080loPI   C1A16263  16.407   4.451   6.253  0.4682  0.0277  0.0953
 1080loPI   C2A16264  16.262   4.207   6.644  0.0973 -0.2298 -0.0079
 1080loPI   C3A16265  16.082   4.272   7.104  0.1300  0.1220  0.1512
 1080loPI   C4A16266  15.810   4.231   7.469  0.1748 -0.1250 -0.0135
 1080loPI   C5A16267  15.519   4.065   7.762  0.0152 -0.1379 -0.2356
 1080loPI   C6A16268  15.151   4.303   7.943  0.1420 -0.0618 -0.1875
 1080loPI   C1B16269  16.631   5.053   6.665 -0.0347  0.1874 -0.3449
 1080loPI   C2B16270  16.857   4.885   7.115  0.0101  0.0558  0.3374
 1080loPI   C3B16271  17.151   4.581   7.319  0.1610 -0.2010 -0.0185
 1080loPI   C4B16272  17.366   4.302   7.647  0.0269  0.0077 -0.1807
 1081loPI    C116273  17.768   1.633   5.205 -0.0226 -0.2001 -0.2103
 1081loPI    C216274  18.164   1.613   5.149  0.0063 -0.0391 -0.0709
 1081loPI    C316275  17.923   1.711   4.845  0.0861 -0.0020 -0.1224
 1081loPI   PO416276  17.731   1.758   5.428  0.1657  0.0398 -0.1738
 1081loPI   GL116277  17.741   1.632   5.838 -0.1438  0.0088 -0.1580
 1081loPI   GL216278  17.434   1.728   5.833 -0.1975 -0.0997  0.0086
 1081loPI   C1A16279  18.185   1.762   6.036 -0.2633  0.0462  0.0118
 1081loPI   C2A16280  18.330   1.652   6.405  0.1886 -0.0356 -0.1362
 1081loPI   C3A16281  18.438   1.604   6.866  0.0859 -0.1085 -0.0647
 1081loPI   C4A16282  18.451   1.738   7.358 -0.2427 -0.0222  0.2437
 1081loPI   C5A16283  18.452   1.438   7.656  0.0277 -0.0529 -0.1549
 1081loPI   C6A16284  18.493   1.114   7.889  0.1756  0.0379  0.2766
 1081loPI   C1B16285  17.379   1.664   6.282  0.1188  0.1837  0.1327
 1081loPI   C2B16286  17.299   1.695   6.736 -0.0006 -0.1800  0.0067
 1081loPI   C3B16287  17.268   1.809   7.254  0.0101 -0.1281  0.1357
 1081loPI   C4B16288  17.368   2.083   7.551  0.2875  0.0819  0.0764
 1082loPI    C116289  10.386   4.119   4.825  0.0649 -0.0794  0.0462
 1082loPI    C216290  10.249   4.472   4.699 -0.1906 -0.1450  0.1345
 1082loPI    C316291  10.569   4.308   4.524 -0.2462 -0.0069 -0.1009
 1082loPI   PO416292  10.423   4.172   5.133 -0.1308 -0.0870 -0.0972
 1082loPI   GL116293  10.697   4.428   5.472  0.0958  0.1489  0.0512
 1082loPI   GL216294  10.988   4.449   5.471 -0.1217  0.0480  0.1665
 1082loPI   C1A16295  10.710   4.060   5.774  0.0144  0.0044 -0.2576
 1082loPI   C2A16296  10.758   4.013   6.209  0.1033  0.0365 -0.0512
 1082loPI   C3A16297  10.866   3.890   6.668  0.2012 -0.0697  0.0009
 1082loPI   C4A16298  10.814   3.738   7.099  0.1236  0.0205  0.0503
 1082loPI   C5A16299  10.706   3.549   7.486 -0.0709  0.0240  0.0569
 1082loPI   C6A16300  10.760   3.412   7.925  0.2729  0.1405  0.0781
 1082loPI   C1B16301  10.987   4.471   5.873 -0.2196  0.2416 -0.0310
 1082loPI   C2B16302  11.056   4.419   6.243  0.0106 -0.1300  0.1235
 1082loPI   C3B16303  11.166   4.355   6.654 -0.1992  0.1877  0.1567
 1082loPI   C4B16304  11.166   4.223   7.070 -0.2379  0.2012  0.1085
 1083loPI    C116305   2.751   9.850   5.091  0.1263  0.2304  0.0109
 1083loPI    C216306   2.383   9.911   5.233  0.0285 -0.1443 -0.0699
 1083loPI    C316307   2.440   9.861   4.841  0.1424 -0.2532 -0.0401
 1083loPI   PO416308   2.875   9.714   5.270  0.2096 -0.0951 -0.1593
 1083loPI   GL116309   2.909   9.769   5.608  0.2975 -0.1914  0.0379
 1083loPI   GL216310   3.121   9.452   5.752 -0.0849  0.1830 -0.1224
 1083loPI   C1A16311   2.812   9.854   5.971 -0.0705 -0.0746 -0.2758
 1083loPI   C2A16312   2.826   9.890   6.371  0.2923 -0.0281 -0.0315
 1083loPI   C3A16313   2.766   9.948   6.714  0.0585  0.2215  0.0490
 1083loPI   C4A16314   2.857   9.879   7.095 -0.2440 -0.0685 -0.3576
 1083loPI   C5A16315   2.960   9.886   7.507  0.1401  0.0055  0.2642
 1083loPI   C6A16316   3.062   9.983   7.932 -0.2950 -0.1288 -0.0205
 1083loPI   C1B16317   3.031   9.466   6.190 -0.0433  0.4210 -0.0481
 1083loPI   C2B16318   3.084   9.537   6.651 -0.1856  0.0876 -0.4525
 1083loPI   C3B16319   3.136   9.495   7.150 -0.2793  0.3283  0.0927
 1083loPI   C4B16320   3.406   9.596   7.502 -0.3031  0.1232 -0.0023
 1084loPI    C116321   0.371  15.883   5.314 -0.1164  0.4153  0.0584
 1084loPI    C216322   0.739  15.939   5.459  0.1222 -0.4249 -0.1643
 1084loPI    C316323   0.687  15.863   5.070 -0.3625  0.2928 -0.2586
 1084loPI   PO416324   0.241  16.004   5.456  0.1704 -0.2956  0.0200
 1084loPI   GL116325   0.213  16.115   5.820  0.0705  0.4492  0.2284
 1084loPI   GL216326   0.581  16.160   5.862  0.3290  0.0017  0.0409
 1084loPI   C1A16327   0.015  16.358   6.189 -0.1079  0.2975  0.0862
 1084loPI   C2A16328  -0.112  16.302   6.626 -0.2735  0.2344  0.0287
 1084loPI   C3A16329  -0.298  16.542   6.980  0.0274 -0.0525 -0.1294
 1084loPI   C4A16330  -0.576  16.506   7.354  0.1309 -0.4515 -0.2973
 1084loPI   C5A16331  -0.872  16.376   7.676 -0.1769 -0.0036  0.1280
 1084loPI   C6A16332  -0.749  16.263   8.017 -0.0144  0.0162  0.0569
 1084loPI   C1B16333   0.492  16.209   6.293 -0.0488  0.0739  0.1803
 1084loPI   C2B16334   0.579  16.034   6.780  0.2311  0.0458  0.3044
 1084loPI   C3B16335   0.566  15.988   7.275  0.0779 -0.2220 -0.2593
 1084loPI   C4B16336   0.836  16.193   7.629  0.0341  0.3392 -0.0418
 1085loPI    C116337   5.359  14.425   5.136  0.0777 -0.1751  0.0433
 1085loPI    C216338   5.476  14.192   4.833  0.1247  0.0403 -0.1070
 1085loPI    C316339   5.115  14.364   4.825  0.1136  0.0211 -0.0252
 1085loPI   PO416340   5.483  14.609   5.212 -0.2850 -0.0553 -0.2111
 1085loPI   GL116341   5.768  14.564   5.464 -0.0009 -0.0416 -0.0033
 1085loPI   GL216342   5.620  14.987   5.512 -0.0257 -0.2722  0.0337
 1085loPI   C1A16343   5.871  14.713   5.919 -0.3530  0.2775 -0.0043
 1085loPI   C2A16344   5.848  14.674   6.385 -0.1202 -0.1290  0.3847
 1085loPI   C3A16345   5.967  14.628   6.881 -0.0421  0.0922 -0.1086
 1085loPI   C4A16346   6.080  14.696   7.281  0.0419  0.3664 -0.0030
 1085loPI   C5A16347   6.344  14.948   7.565  0.1995  0.0606 -0.0710
 1085loPI   C6A16348   6.564  15.337   7.825  0.2201 -0.2163 -0.2091
 1085loPI   C1B16349   5.369  14.965   5.848 -0.2643  0.0118 -0.0397
 1085loPI   C2B16350   5.391  15.037   6.366 -0.0053  0.0794  0.1274
 1085loPI   C3B16351   5.493  14.965   6.783 -0.0354  0.0051 -0.0137
 1085loPI   C4B16352   5.721  15.067   7.055 -0.1106  0.1112 -0.2761
 1086loPI    C116353   1.501   0.213   5.080  0.0872  0.0714 -0.0442
 1086loPI    C216354   1.705  -0.046   4.853 -0.3268 -0.1453 -0.1792
 1086loPI    C316355   1.621   0.320   4.714 -0.0611 -0.0654 -0.1343
 1086loPI   PO416356   1.611   0.253   5.356 -0.2147  0.0282  0.1547
 1086loPI   GL116357   1.700   0.448   5.595  0.0434 -0.0544  0.0365
 1086loPI   GL216358   1.454   0.588   5.816 -0.2624 -0.2023  0.3342
 1086loPI   C1A16359   1.971   0.479   5.945  0.1348 -0.0713 -0.2091
 1086loPI   C2A16360   1.920   0.511   6.350  0.3943  0.2112  0.0026
 1086loPI   C3A16361   1.918   0.669   6.785 -0.0306 -0.2746 -0.1269
 1086loPI   C4A16362   1.939   0.829   7.164 -0.0741  0.0162 -0.0711
 1086loPI   C5A16363   1.859   0.946   7.628  0.1584 -0.1196 -0.2304
 1086loPI   C6A16364   1.831   0.969   8.035  0.4514  0.1959 -0.1600
 1086loPI   C1B16365   1.406   0.639   6.245  0.0346 -0.1140  0.0609
 1086loPI   C2B16366   1.341   0.749   6.689  0.2325  0.2290 -0.1636
 1086loPI   C3B16367   1.470   1.079   6.996 -0.1351  0.0066 -0.3637
 1086loPI   C4B16368   1.476   1.226   7.421  0.1918 -0.2413 -0.1347
 1087loPI    C116369  13.037  10.358   5.303 -0.0712  0.0476  0.0586
 1087loPI    C216370  13.027  10.475   4.920  0.1231 -0.1846 -0.0199
 1087loPI    C316371  12.687  10.444   5.129  0.0212 -0.0036 -0.1560
 1087loPI   PO416372  13.161  10.428   5.454  0.0406 -0.2106  0.2158
 1087loPI   GL116373  13.204  10.659   5.777  0.0967 -0.0956  0.0924
 1087loPI   GL216374  13.401  10.402   5.923 -0.0821 -0.0555 -0.1467
 1087loPI   C1A16375  13.274  10.816   6.327 -0.3296 -0.2075 -0.0654
 1087loPI   C2A16376  13.278  10.791   6.772 -0.1820  0.0170 -0.0644
 1087loPI   C3A16377  13.430  10.638   7.113  0.4669  0.4665  0.1525
 1087loPI   C4A16378  13.398  10.722   7.568 -0.0229 -0.1188 -0.2034
 1087loPI   C5A16379  13.116  10.609   7.860 -0.1523 -0.0586 -0.0999
 1087loPI   C6A16380  12.997  10.426   8.255  0.0686  0.2361  0.0360
 1087loPI   C1B16381  13.526  10.399   6.331  0.1472 -0.1055 -0.0335
 1087loPI   C2B16382  13.793  10.478   6.711  0.2614 -0.1487  0.1142
 1087loPI   C3B16383  13.949  10.562   7.114  0.0224 -0.1355 -0.0043
 1087loPI   C4B16384  14.038  10.419   7.449  0.0030 -0.0767  0.0905
 1088loPI    C116385   2.740  10.698   5.024  0.0812  0.0530 -0.0231
 1088loPI    C216386   3.027  10.882   5.233 -0.0488  0.1706  0.0542
 1088loPI    C316387   3.118  10.571   4.999  0.1195  0.1216  0.1823
 1088loPI   PO416388   2.478  10.913   5.105  0.0724  0.1496 -0.1365
 1088loPI   GL116389   2.376  10.883   5.626 -0.2492 -0.3101  0.0204
 1088loPI   GL216390   2.697  10.709   5.550  0.0423  0.1366  0.2837
 1088loPI   C1A16391   2.407  10.736   5.980  0.0498  0.0967 -0.1823
 1088loPI   C2A16392   2.481  10.756   6.317  0.1120 -0.0078  0.0095
 1088loPI   C3A16393   2.618  10.723   6.703 -0.1126 -0.2127 -0.1362
 1088loPI   C4A16394   2.529  10.751   7.078 -0.1099  0.1334  0.0660
 1088loPI   C5A16395   2.545  10.829   7.473 -0.3218  0.3117 -0.0248
 1088loPI   C6A16396   2.531  10.939   7.883  0.0892 -0.0798  0.2347
 1088loPI   C1B16397   2.901  10.887   5.848  0.3256 -0.1589  0.4228
 1088loPI   C2B16398   2.948  10.936   6.364  0.0112 -0.2849  0.1126
 1088loPI   C3B16399   3.082  10.981   6.761 -0.1944  0.3876  0.0647
 1088loPI   C4B16400   2.998  10.836   7.158 -0.1938  0.0059  0.0674
 1089loPI    C116401   2.876   7.058   4.933  0.0157  0.2316  0.2031
 1089loPI    C216402   2.568   7.063   4.678 -0.0317  0.2398  0.2603
 1089loPI    C316403   2.884   7.298   4.614  0.1229 -0.0311  0.0049
 1089loPI   PO416404   2.898   6.895   5.171  0.0797  0.3328  0.4723
 1089loPI   GL116405   2.995   6.889   5.586 -0.1036  0.4744 -0.3241
 1089loPI   GL216406   3.309   6.979   5.752 -0.1775  0.0101 -0.1769
 1089loPI   C1A16407   3.106   6.606   6.061 -0.0338 -0.0242 -0.1667
 1089loPI   C2A16408   2.997   6.674   6.443 -0.0773  0.0752 -0.1279
 1089loPI   C3A16409   2.707   6.747   6.839  0.2656  0.0462  0.0478
 1089loPI   C4A16410   2.826   6.775   7.253 -0.1548  0.0668  0.0644
 1089loPI   C5A16411   2.723   6.580   7.696  0.0115  0.0859 -0.0932
 1089loPI   C6A16412   2.529   6.411   8.107  0.0313  0.2056 -0.0788
 1089loPI   C1B16413   3.273   7.058   6.207 -0.0307  0.0377 -0.1139
 1089loPI   C2B16414   3.425   7.285   6.678 -0.1176 -0.0092  0.1042
 1089loPI   C3B16415   3.707   7.494   7.007 -0.2192 -0.2243  0.2469
 1089loPI   C4B16416   3.841   7.715   7.340 -0.1215  0.0681 -0.0582
 1090loPI    C116417   7.495   1.168   5.056 -0.1448  0.1014 -0.1713
 1090loPI    C216418   7.491   1.047   4.675  0.3333  0.0419 -0.1643
 1090loPI    C316419   7.572   1.428   4.763 -0.0583  0.1219 -0.1306
 1090loPI   PO416420   7.524   0.874   5.132  0.1258 -0.1516 -0.1185
 1090loPI   GL116421   7.470   0.790   5.653  0.3018  0.2666 -0.0177
 1090loPI   GL216422   7.332   0.815   5.989  0.3824 -0.2546 -0.4130
 1090loPI   C1A16423   7.761   0.585   5.900  0.0290 -0.0591  0.0766
 1090loPI   C2A16424   7.778   0.582   6.376  0.1614  0.0148  0.0205
 1090loPI   C3A16425   7.570   0.655   6.657 -0.0766 -0.0205  0.0243
 1090loPI   C4A16426   7.451   0.680   7.116  0.0629 -0.1090  0.0658
 1090loPI   C5A16427   7.375   0.596   7.553 -0.0592  0.0468  0.2208
 1090loPI   C6A16428   7.560   0.250   7.649 -0.2876  0.2367 -0.3688
 1090loPI   C1B16429   7.297   1.045   6.412  0.3041 -0.1110  0.2373
 1090loPI   C2B16430   7.331   1.093   6.767 -0.1386  0.2212 -0.2643
 1090loPI   C3B16431   7.492   1.404   7.084  0.3129 -0.1320 -0.2731
 1090loPI   C4B16432   7.887   1.537   7.179 -0.0921  0.3245  0.2384
 1091loPI    C116433   6.574   8.840   5.589 -0.0739  0.0666 -0.1671
 1091loPI    C216434   6.335   8.522   5.550  0.1339 -0.1598  0.3177
 1091loPI    C316435   6.668   8.551   5.329 -0.0268 -0.1390  0.0744
 1091loPI   PO416436   6.642   8.869   5.832 -0.0390  0.2344 -0.1873
 1091loPI   GL116437   6.336   9.193   6.093  0.3517 -0.0057  0.0895
 1091loPI   GL216438   6.003   9.293   6.032  0.1512 -0.0285 -0.3131
 1091loPI   C1A16439   6.328   9.098   6.558  0.1937 -0.1996  0.3566
 1091loPI   C2A16440   6.407   9.195   7.059 -0.0096 -0.0803  0.1336
 1091loPI   C3A16441   6.523   9.409   7.412 -0.0884  0.0691 -0.0562
 1091loPI   C4A16442   6.618   9.567   7.725 -0.1567  0.2746  0.0797
 1091loPI   C5A16443   6.679   9.459   8.070 -0.1251  0.1177  0.2009
 1091loPI   C6A16444   6.412   9.745   8.416 -0.1293 -0.4283  0.2463
 1091loPI   C1B16445   5.957   9.453   6.463 -0.0151 -0.5126 -0.1805
 1091loPI   C2B16446   5.873   9.529   6.899 -0.3901  0.0541 -0.0243
 1091loPI   C3B16447   5.896   9.460   7.246 -0.0880  0.1821 -0.1170
 1091loPI   C4B16448   5.821   9.628   7.611 -0.0467  0.1335  0.1842
 1092loPI    C116449   1.141  10.298   5.182  0.0608  0.1633 -0.2653
 1092loPI    C216450   1.421  10.015   5.139 -0.1982 -0.1360 -0.0286
 1092loPI    C316451   1.122  10.043   4.874 -0.1338 -0.0365 -0.0913
 1092loPI   PO416452   1.089  10.228   5.424 -0.2218 -0.3259 -0.0457
 1092loPI   GL116453   1.364  10.103   5.691  0.1679  0.0866 -0.0084
 1092loPI   GL216454   1.602  10.316   5.863  0.1161  0.2381  0.1673
 1092loPI   C1A16455   1.276   9.952   6.112 -0.1324  0.0385 -0.0251
 1092loPI   C2A16456   1.421   9.933   6.603 -0.1691 -0.1706 -0.0024
 1092loPI   C3A16457   1.339   9.838   6.948 -0.2973 -0.0672  0.0693
 1092loPI   C4A16458   1.197   9.572   7.367 -0.3279  0.2381 -0.1515
 1092loPI   C5A16459   0.883   9.435   7.680 -0.1516 -0.1260 -0.0338
 1092loPI   C6A16460   0.567   9.403   7.868  0.1954  0.0167 -0.1695
 1092loPI   C1B16461   1.526  10.387   6.284 -0.0901  0.0470 -0.0093
 1092loPI   C2B16462   1.505  10.447   6.665  0.2958 -0.2478  0.1008
 1092loPI   C3B16463   1.466  10.459   7.094  0.0814 -0.0657  0.0736
 1092loPI   C4B16464   1.611  10.575   7.610  0.0255 -0.0510 -0.0127
 1093loPI    C116465  14.053  17.419   5.108 -0.1868  0.1937  0.1290
 1093loPI    C216466  13.739  17.406   4.862  0.1176 -0.1009 -0.2563
 1093loPI    C316467  14.102  17.491   4.718  0.2725 -0.0981  0.1249
 1093loPI   PO416468  13.958  17.536   5.258  0.0221 -0.2242 -0.0813
 1093loPI   GL116469  13.940  17.484   5.671 -0.1919 -0.0307  0.0965
 1093loPI   GL216470  14.230  17.401   5.705  0.0553 -0.1373  0.1529
 1093loPI   C1A16471  13.747  17.363   6.079 -0.0837  0.0942 -0.0435
 1093loPI   C2A16472  13.849  17.308   6.458  0.3239 -0.1263 -0.0894
 1093loPI   C3A16473  13.765  17.039   6.721 -0.1645  0.3725  0.1672
 1093loPI   C4A16474  13.888  16.824   7.098 -0.1469  0.2468  0.0594
 1093loPI   C5A16475  14.193  16.929   7.447  0.0281  0.0600 -0.2758
 1093loPI   C6A16476  14.239  17.163   7.742 -0.1903 -0.0165  0.2182
 1093loPI   C1B16477  14.306  17.474   6.165  0.0628 -0.1545  0.1498
 1093loPI   C2B16478  14.116  17.659   6.585  0.4714 -0.0720 -0.1802
 1093loPI   C3B16479  14.057  17.782   6.977 -0.0074  0.0392  0.0382
 1093loPI   C4B16480  14.224  17.908   7.369 -0.0692  0.0796 -0.0102
 1094loPI    C116481   7.191  17.572   4.915  0.0028  0.0033  0.1375
 1094loPI    C216482   7.319  17.325   4.628  0.0213  0.0519  0.1038
 1094loPI    C316483   7.121  17.658   4.530  0.0755  0.0960  0.1447
 1094loPI   PO416484   7.116  17.406   5.098  0.0479 -0.2377 -0.2049
 1094loPI   GL116485   7.431  17.361   5.516  0.0805 -0.2915 -0.0606
 1094loPI   GL216486   7.023  17.441   5.644  0.0650  0.0305  0.2731
 1094loPI   C1A16487   7.595  17.529   6.020 -0.1931  0.1007  0.0949
 1094loPI   C2A16488   7.845  17.676   6.409 -0.0182 -0.1893 -0.0825
 1094loPI   C3A16489   7.859  17.692   6.812 -0.0026  0.0205 -0.0087
 1094loPI   C4A16490   7.837  17.624   7.247  0.0683  0.2002  0.3004
 1094loPI   C5A16491   7.937  17.314   7.479 -0.0304  0.1608  0.2080
 1094loPI   C6A16492   8.002  17.044   7.778 -0.1482  0.2781  0.0254
 1094loPI   C1B16493   6.889  17.637   5.962 -0.2391 -0.0727  0.1421
 1094loPI   C2B16494   6.747  17.765   6.404  0.0805  0.1032  0.2240
 1094loPI   C3B16495   6.756  17.667   6.896 -0.1996  0.0104  0.1569
 1094loPI   C4B16496   6.562  17.697   7.292 -0.2142 -0.2283 -0.1148
 1095loPI    C116497   4.108   7.988   5.257  0.0097 -0.0277 -0.0461
 1095loPI    C216498   3.797   8.195   5.399  0.0272 -0.1011  0.1003
 1095loPI    C316499   4.058   8.370   5.152 -0.1216 -0.0349 -0.0112
 1095loPI   PO416500   4.210   7.826   5.491  0.1228 -0.1336  0.2563
 1095loPI   GL116501   4.316   7.714   5.876 -0.0433  0.1978  0.0885
 1095loPI   GL216502   4.075   7.639   5.972 -0.1422  0.1247 -0.0139
 1095loPI   C1A16503   4.328   7.939   6.238  0.2282  0.0084  0.1785
 1095loPI   C2A16504   4.149   8.112   6.529 -0.0306  0.1243  0.3172
 1095loPI   C3A16505   3.809   8.133   6.729  0.1086 -0.0683 -0.1827
 1095loPI   C4A16506   3.580   8.136   7.136 -0.1192 -0.2243  0.1938
 1095loPI   C5A16507   3.468   8.210   7.480  0.0176  0.1484  0.1689
 1095loPI   C6A16508   3.324   8.370   7.844 -0.0533  0.1511 -0.0989
 1095loPI   C1B16509   3.761   7.912   6.190 -0.0712  0.3238  0.2464
 1095loPI   C2B16510   3.596   8.357   6.296  0.0013 -0.0040 -0.1224
 1095loPI   C3B16511   3.568   8.701   6.683  0.2555 -0.1340  0.2092
 1095loPI   C4B16512   3.553   8.696   7.106  0.2124  0.0174 -0.2227
 1096loPI    C116513   0.041  13.619   5.248 -0.0186 -0.0873 -0.0814
 1096loPI    C216514   0.278  13.547   4.934 -0.1180  0.2665 -0.2421
 1096loPI    C316515  -0.119  13.532   4.892 -0.1306  0.0041 -0.0538
 1096loPI   PO416516   0.263  13.696   5.450 -0.2145 -0.2530 -0.0384
 1096loPI   GL116517   0.574  13.734   5.857  0.1123 -0.0146 -0.2320
 1096loPI   GL216518   0.764  13.920   5.803 -0.0874 -0.1302 -0.0894
 1096loPI   C1A16519   0.292  13.712   6.255  0.0960  0.1247  0.2570
 1096loPI   C2A16520   0.324  13.821   6.703 -0.1728  0.1226 -0.1177
 1096loPI   C3A16521   0.364  13.661   7.079 -0.1392  0.4123  0.1751
 1096loPI   C4A16522   0.462  13.591   7.528  0.0707 -0.1955  0.0987
 1096loPI   C5A16523   0.808  13.744   7.841 -0.2165  0.1381 -0.0222
 1096loPI   C6A16524   0.775  14.098   8.029  0.0401  0.3230 -0.0526
 1096loPI   C1B16525   0.641  14.148   6.196  0.1313 -0.4024  0.2439
 1096loPI   C2B16526   0.692  14.094   6.535 -0.2655  0.1463  0.2329
 1096loPI   C3B16527   0.765  14.082   6.968  0.1597 -0.0902 -0.0763
 1096loPI   C4B16528   0.729  13.970   7.380 -0.1690  0.1454  0.1510
 1097loPI    C116529  13.277   3.207   4.765  0.0293 -0.1008  0.0429
 1097loPI    C216530  12.919   3.337   4.890 -0.0416 -0.0411 -0.2156
 1097loPI    C316531  13.204   3.600   4.789  0.1170 -0.0877  0.0981
 1097loPI   PO416532  13.322   2.988   5.003  0.2265  0.0690 -0.2285
 1097loPI   GL116533  13.207   2.940   5.456  0.3305 -0.0263 -0.2125
 1097loPI   GL216534  12.844   2.954   5.406 -0.2863  0.2085  0.0073
 1097loPI   C1A16535  13.247   3.226   5.790 -0.0796 -0.0547  0.0068
 1097loPI   C2A16536  13.340   3.383   6.139 -0.0724 -0.0693  0.0760
 1097loPI   C3A16537  13.311   3.472   6.561  0.1814  0.0458  0.0630
 1097loPI   C4A16538  13.380   3.463   6.975  0.2767 -0.3007  0.1783
 1097loPI   C5A16539  13.495   3.527   7.403 -0.0347  0.2141  0.3507
 1097loPI   C6A16540  13.664   3.673   7.808 -0.2213 -0.0419 -0.0044
 1097loPI   C1B16541  12.795   3.102   5.938 -0.1241 -0.1588  0.0443
 1097loPI   C2B16542  12.831   3.172   6.401 -0.1350 -0.0278  0.1695
 1097loPI   C3B16543  12.534   3.229   6.703 -0.0073 -0.0915  0.3330
 1097loPI   C4B16544  12.644   3.197   7.122  0.2284 -0.0381 -0.1617
 1098loPI    C116545  16.222   8.664   5.008 -0.0905 -0.1081  0.0048
 1098loPI    C216546  16.030   8.973   5.174 -0.1847 -0.1991  0.0662
 1098loPI    C316547  15.896   8.815   4.832 -0.1941 -0.2346  0.0862
 1098loPI   PO416548  16.463   8.509   5.090 -0.1086 -0.2732 -0.0818
 1098loPI   GL116549  16.641   8.649   5.516  0.0005 -0.4182  0.1530
 1098loPI   GL216550  17.031   8.553   5.616  0.0541  0.2736  0.2562
 1098loPI   C1A16551  16.443   8.526   5.809  0.1334 -0.1397 -0.0823
 1098loPI   C2A16552  16.414   8.309   6.232 -0.0980 -0.0503 -0.2049
 1098loPI   C3A16553  16.461   8.381   6.653  0.4390 -0.0601 -0.0730
 1098loPI   C4A16554  16.754   8.245   6.927 -0.2234 -0.2314 -0.3581
 1098loPI   C5A16555  16.774   7.934   7.219  0.1304 -0.0127 -0.1128
 1098loPI   C6A16556  16.980   8.012   7.660  0.1251 -0.1149 -0.1033
 1098loPI   C1B16557  16.931   8.720   5.960 -0.0220  0.0595 -0.3244
 1098loPI   C2B16558  16.690   8.835   6.465 -0.1186  0.2403 -0.2901
 1098loPI   C3B16559  16.623   8.852   6.904 -0.0324 -0.3170  0.0993
 1098loPI   C4B16560  16.410   8.528   7.189 -0.1415 -0.2503  0.0847
 1099loPI    C116561  15.840   3.921   5.411 -0.0935 -0.0080  0.1635
 1099loPI    C216562  15.495   3.717   5.418 -0.1082  0.0006 -0.1493
 1099loPI    C316563  15.764   3.645   5.131  0.2947 -0.2328  0.2731
 1099loPI   PO416564  15.860   3.953   5.651 -0.1353  0.2002 -0.0101
 1099loPI   GL116565  15.774   4.092   6.010 -0.1198 -0.4021 -0.0573
 1099loPI   GL216566  16.053   4.076   6.064 -0.3146  0.0120 -0.1400
 1099loPI   C1A16567  15.474   4.195   6.310  0.1151  0.0499 -0.0519
 1099loPI   C2A16568  15.308   4.231   6.712  0.0742  0.0643  0.2064
 1099loPI   C3A16569  15.088   4.067   7.007 -0.1759 -0.1496  0.1644
 1099loPI   C4A16570  15.361   3.978   7.296 -0.2934 -0.0580 -0.0963
 1099loPI   C5A16571  15.538   3.665   7.422  0.0169 -0.0561 -0.1366
 1099loPI   C6A16572  15.603   3.614   7.824  0.1350 -0.2010 -0.1029
 1099loPI   C1B16573  15.825   3.958   6.552 -0.3187 -0.0753  0.2227
 1099loPI   C2B16574  15.756   3.905   6.965 -0.1245 -0.0419  0.3160
 1099loPI   C3B16575  15.980   3.778   7.255  0.3748 -0.4239  0.2950
 1099loPI   C4B16576  16.276   3.939   7.359 -0.1766  0.2517 -0.2208
 1100loPI    C116577   0.667  16.838   4.889 -0.0730  0.2599 -0.0248
 1100loPI    C216578   0.822  16.626   4.587 -0.0903  0.0194  0.1331
 1100loPI    C316579   0.691  16.999   4.523  0.2257  0.0971 -0.0794
 1100loPI   PO416580   0.776  16.901   5.138  0.0372  0.0900 -0.0861
 1100loPI   GL116581   0.612  16.803   5.495 -0.1000  0.1975 -0.1176
 1100loPI   GL216582   0.756  17.092   5.652 -0.1985  0.2492  0.2065
 1100loPI   C1A16583   0.625  16.671   5.926 -0.2246 -0.2606 -0.2402
 1100loPI   C2A16584   0.601  16.695   6.397 -0.0105  0.1912  0.4788
 1100loPI   C3A16585   0.398  16.490   6.695  0.1344  0.0145  0.1172
 1100loPI   C4A16586   0.287  16.446   7.097 -0.2655  0.1448  0.0635
 1100loPI   C5A16587   0.182  16.280   7.550 -0.0529  0.0154 -0.1234
 1100loPI   C6A16588   0.122  15.775   7.607 -0.2520 -0.0087  0.2026
 1100loPI   C1B16589   0.862  17.128   6.166  0.0540  0.0348  0.1421
 1100loPI   C2B16590   0.905  17.059   6.608 -0.2539  0.0594  0.0538
 1100loPI   C3B16591   0.997  17.053   7.078 -0.2379  0.0579  0.1155
 1100loPI   C4B16592   0.879  17.110   7.494 -0.1052 -0.0095 -0.0367
 1101loPI    C116593   1.636  18.140   5.289  0.0016 -0.0856 -0.1193
 1101loPI    C216594   1.309  18.086   5.066 -0.1563 -0.3571  0.1693
 1101loPI    C316595   1.630  17.855   5.008 -0.0307 -0.1267 -0.0771
 1101loPI   PO416596   1.622  18.124   5.480  0.1325 -0.0947 -0.1241
 1101loPI   GL116597   1.750  17.902   5.798 -0.1392 -0.2115  0.0224
 1101loPI   GL216598   1.537  17.667   5.812  0.0268 -0.1506 -0.1508
 1101loPI   C1A16599   1.812  18.047   6.261  0.0963 -0.0287 -0.1024
 1101loPI   C2A16600   1.645  17.931   6.676  0.1844  0.0767 -0.0034
 1101loPI   C3A16601   1.545  17.792   7.095 -0.1241  0.0653 -0.0517
 1101loPI   C4A16602   1.468  17.754   7.530 -0.0760 -0.0433  0.2274
 1101loPI   C5A16603   1.199  17.451   7.755  0.1064  0.3092 -0.1778
 1101loPI   C6A16604   0.734  17.409   7.937 -0.1446  0.1709  0.0691
 1101loPI   C1B16605   1.786  17.513   6.123  0.1160  0.2076 -0.2457
 1101loPI   C2B16606   1.747  17.396   6.559 -0.2261 -0.4074  0.0805
 1101loPI   C3B16607   1.815  17.170   6.877  0.1292 -0.2384 -0.2185
 1101loPI   C4B16608   1.720  16.839   7.233  0.2502  0.1387 -0.0219
 1102loPI    C116609  14.576  18.045   5.079 -0.1031  0.0456  0.0259
 1102loPI    C216610  14.426  17.754   5.310  0.0107 -0.0694 -0.0435
 1102loPI    C316611  14.209  17.904   5.009 -0.0937  0.0009  0.0660
 1102loPI   PO416612  14.695  18.173   5.242 -0.1149  0.1835  0.1645
 1102loPI   GL116613  14.656  18.451   5.537  0.4001  0.0444 -0.1066
 1102loPI   GL216614  14.457  18.716   5.511 -0.0883  0.0558  0.1907
 1102loPI   C1A16615  14.484  18.347   5.987 -0.1045  0.1358  0.1316
 1102loPI   C2A16616  14.508  18.448   6.443 -0.3634 -0.1102  0.1517
 1102loPI   C3A16617  14.481  18.351   6.925  0.0908 -0.1460 -0.1776
 1102loPI   C4A16618  14.314  18.357   7.493 -0.3237 -0.0136 -0.0907
 1102loPI   C5A16619  14.017  18.618   7.685  0.1117 -0.1910 -0.2908
 1102loPI   C6A16620  13.681  18.920   7.715 -0.6500 -0.1308  0.1257
 1102loPI   C1B16621  14.493  18.993   5.850 -0.2000 -0.1761 -0.0113
 1102loPI   C2B16622  14.424  19.005   6.306 -0.1843 -0.3257  0.2318
 1102loPI   C3B16623  14.391  18.925   6.739 -0.2147 -0.1218  0.0942
 1102loPI   C4B16624  14.208  18.700   7.147 -0.1328 -0.1582  0.2124
 1103loPI    C116625   3.854   6.923   5.200  0.1358 -0.2988 -0.0015
 1103loPI    C216626   3.742   7.250   4.998 -0.0337 -0.2675  0.1413
 1103loPI    C316627   3.791   6.903   4.806  0.1088 -0.1678 -0.0044
 1103loPI   PO416628   3.723   6.934   5.441 -0.1017 -0.0970 -0.0855
 1103loPI   GL116629   3.591   7.359   5.599 -0.3071  0.1277  0.0690
 1103loPI   GL216630   3.792   7.193   5.866  0.1107  0.2281  0.1684
 1103loPI   C1A16631   3.492   7.497   6.048 -0.1290 -0.1663  0.4198
 1103loPI   C2A16632   3.134   7.529   6.306 -0.1556 -0.4318 -0.1744
 1103loPI   C3A16633   3.008   7.626   6.727  0.0492 -0.1148 -0.2859
 1103loPI   C4A16634   3.171   7.719   7.091 -0.3037  0.0987 -0.2063
 1103loPI   C5A16635   3.331   7.665   7.475  0.1033 -0.0103  0.2403
 1103loPI   C6A16636   3.153   7.525   7.853 -0.3326 -0.0187 -0.0833
 1103loPI   C1B16637   3.772   7.219   6.343  0.1438 -0.1892 -0.1168
 1103loPI   C2B16638   4.057   7.153   6.634  0.4390  0.1142  0.0771
 1103loPI   C3B16639   4.154   7.241   7.054  0.1393 -0.0094  0.0771
 1103loPI   C4B16640   4.294   7.621   7.211  0.1622 -0.1087  0.0401
 1104loPI    C116641   2.920  13.859   4.964 -0.0038 -0.0058  0.1121
 1104loPI    C216642   3.234  13.966   4.740 -0.0087 -0.0040  0.1061
 1104loPI    C316643   2.964  14.240   4.850  0.0029 -0.0016  0.1287
 1104loPI   PO416644   2.995  13.683   5.208 -0.2038 -0.2903  0.3612
 1104loPI   GL116645   2.816  13.650   5.635 -0.3814 -0.0681 -0.1618
 1104loPI   GL216646   2.959  14.002   5.749 -0.1329  0.2072 -0.1131
 1104loPI   C1A16647   2.871  13.420   6.037 -0.0856 -0.0361  0.2625
 1104loPI   C2A16648   2.926  13.453   6.410  0.1289  0.3218  0.1776
 1104loPI   C3A16649   2.832  13.647   6.755  0.0811  0.0622 -0.0685
 1104loPI   C4A16650   2.809  13.782   7.148  0.1091 -0.2110  0.1530
 1104loPI   C5A16651   2.823  13.973   7.559 -0.1176 -0.2178 -0.4666
 1104loPI   C6A16652   2.946  13.992   7.954 -0.0944  0.1012 -0.0312
 1104loPI   C1B16653   3.241  13.802   5.979 -0.0112 -0.1048 -0.2883
 1104loPI   C2B16654   3.312  13.712   6.463 -0.1578  0.1195 -0.3256
 1104loPI   C3B16655   3.273  13.759   6.917 -0.1710 -0.1740 -0.1727
 1104loPI   C4B16656   3.433  13.804   7.276  0.3138 -0.1259 -0.2561
 1105loPI    C116657   0.966   1.898   5.217 -0.0207  0.0416 -0.0543
 1105loPI    C216658   0.808   2.172   4.973  0.1042  0.0240 -0.1557
 1105loPI    C316659   1.202   2.103   4.968  0.0609 -0.2298 -0.2049
 1105loPI   PO416660   0.769   1.821   5.362 -0.0390  0.2710  0.0583
 1105loPI   GL116661   0.595   1.833   5.811  0.1090  0.2720  0.3037
 1105loPI   GL216662   0.258   2.014   5.825 -0.3085  0.0493  0.0466
 1105loPI   C1A16663   0.444   1.839   6.304  0.0937  0.2379 -0.0301
 1105loPI   C2A16664   0.453   1.859   6.752 -0.1189  0.0458  0.0781
 1105loPI   C3A16665   0.657   1.850   7.043  0.1165  0.2363  0.3579
 1105loPI   C4A16666   0.818   2.158   7.323 -0.3419 -0.1311  0.1528
 1105loPI   C5A16667   1.010   2.271   7.743 -0.1663  0.0376  0.1662
 1105loPI   C6A16668   1.235   2.616   7.758 -0.0220 -0.2489 -0.2264
 1105loPI   C1B16669   0.519   2.271   6.151  0.1960  0.0444  0.2157
 1105loPI   C2B16670   0.746   2.297   6.512  0.0125  0.4425  0.2484
 1105loPI   C3B16671   0.737   2.331   6.887 -0.1630  0.1873 -0.0054
 1105loPI   C4B16672   0.763   2.612   7.331 -0.0708 -0.3084 -0.1640
 1106loPI    C116673   6.101   4.310   5.403  0.0346 -0.1756 -0.0602
 1106loPI    C216674   5.916   4.196   5.067  0.0670  0.0199 -0.1459
 1106loPI    C316675   6.074   3.922   5.311 -0.3920 -0.1561 -0.0363
 1106loPI   PO416676   5.917   4.425   5.516  0.3837 -0.1000 -0.0304
 1106loPI   GL116677   6.054   4.366   5.897 -0.0223  0.1821 -0.1086
 1106loPI   GL216678   6.388   4.400   6.020 -0.0711  0.0233 -0.0818
 1106loPI   C1A16679   5.937   4.438   6.326 -0.2549  0.0184  0.0293
 1106loPI   C2A16680   5.776   4.407   6.801  0.4385  0.2347 -0.0467
 1106loPI   C3A16681   5.908   4.601   7.075  0.1091  0.1347  0.0057
 1106loPI   C4A16682   6.007   4.616   7.511  0.2771  0.2699  0.0788
 1106loPI   C5A16683   6.356   4.538   7.762  0.0301  0.1995 -0.2321
 1106loPI   C6A16684   6.681   4.756   7.898 -0.1585 -0.0770  0.0549
 1106loPI   C1B16685   6.688   4.446   6.461  0.0904 -0.1560 -0.1097
 1106loPI   C2B16686   6.748   4.493   6.890 -0.1029  0.0288  0.1646
 1106loPI   C3B16687   6.904   4.453   7.281 -0.0579 -0.0608 -0.0919
 1106loPI   C4B16688   7.054   4.328   7.643 -0.1081  0.1028  0.1490
 1107loPI    C116689   6.076   2.374   5.179 -0.2255 -0.1395 -0.1542
 1107loPI    C216690   6.010   2.768   5.203  0.1983 -0.0890  0.3722
 1107loPI    C316691   6.255   2.624   4.922 -0.1240 -0.0079  0.0419
 1107loPI   PO416692   6.204   2.251   5.337  0.0105 -0.2585  0.1532
 1107loPI   GL116693   6.185   2.297   5.750  0.0869 -0.0680  0.1662
 1107loPI   GL216694   6.422   2.222   5.909 -0.4881 -0.2040  0.0856
 1107loPI   C1A16695   6.027   2.384   6.175  0.1761 -0.2134 -0.0273
 1107loPI   C2A16696   5.952   2.443   6.553  0.2683  0.1193 -0.3754
 1107loPI   C3A16697   5.872   2.248   6.942  0.2591 -0.0891  0.0384
 1107loPI   C4A16698   5.681   2.415   7.255 -0.0509 -0.0164  0.2278
 1107loPI   C5A16699   5.742   2.565   7.713  0.2494 -0.0531 -0.1546
 1107loPI   C6A16700   5.480   2.395   8.069  0.0346 -0.1948 -0.1333
 1107loPI   C1B16701   6.611   2.372   6.316 -0.0278  0.2271 -0.1871
 1107loPI   C2B16702   6.426   2.314   6.831 -0.2511  0.1555  0.0438
 1107loPI   C3B16703   6.271   2.471   7.267  0.1229 -0.0051  0.0239
 1107loPI   C4B16704   6.342   2.439   7.689 -0.0659 -0.3008  0.1541
 1108loPI    C116705   0.657   0.530   5.430  0.0631  0.2332  0.1423
 1108loPI    C216706   0.420   0.824   5.298 -0.1896  0.0590  0.2011
 1108loPI    C316707   0.721   0.692   5.069 -0.1576  0.2700  0.1186
 1108loPI   PO416708   0.673   0.564   5.631  0.1553  0.0515  0.0561
 1108loPI   GL116709   0.517   0.516   6.007 -0.1786 -0.2131  0.0930
 1108loPI   GL216710   0.338   0.182   5.929  0.0116 -0.1900 -0.1819
 1108loPI   C1A16711   0.495   0.564   6.382  0.1457 -0.0523  0.2374
 1108loPI   C2A16712   0.569   0.677   6.736  0.0127  0.0291  0.2232
 1108loPI   C3A16713   0.518   0.740   7.206 -0.0816  0.0364  0.1189
 1108loPI   C4A16714   0.542   0.387   7.512  0.4608  0.1584  0.0027
 1108loPI   C5A16715   0.456   0.125   7.867  0.1710 -0.2522 -0.3285
 1108loPI   C6A16716   0.645  -0.139   8.065 -0.1021  0.2670  0.0678
 1108loPI   C1B16717   0.486   0.100   6.283 -0.1227  0.1780 -0.3464
 1108loPI   C2B16718   0.454   0.129   6.715 -0.0200  0.1077 -0.2349
 1108loPI   C3B16719   0.436   0.014   7.168 -0.1038 -0.0239  0.1174
 1108loPI   C4B16720   0.635  -0.131   7.531 -0.0700  0.2144 -0.3816
 1109loPI    C116721   8.599  10.370   5.458  0.0009 -0.2081  0.0166
 1109loPI    C216722   8.283  10.137   5.376 -0.1392 -0.0203  0.0160
 1109loPI    C316723   8.476  10.326   5.080 -0.0172 -0.1451  0.0150
 1109loPI   PO416724   8.491  10.491   5.685 -0.0708  0.0666  0.2841
 1109loPI   GL116725   8.379  10.556   6.117 -0.0081 -0.1366 -0.2169
 1109loPI   GL216726   8.406  10.774   6.324  0.0842 -0.0463  0.3867
 1109loPI   C1A16727   8.737  10.369   6.283 -0.0654 -0.2705  0.1724
 1109loPI   C2A16728   9.026  10.263   6.654 -0.0423 -0.0336  0.2397
 1109loPI   C3A16729   8.779  10.222   7.052 -0.1487  0.1384 -0.1274
 1109loPI   C4A16730   8.612  10.112   7.464 -0.1731 -0.1159 -0.2060
 1109loPI   C5A16731   8.433   9.912   7.860 -0.3514  0.2516 -0.1355
 1109loPI   C6A16732   8.257  10.002   8.159  0.1639  0.2456 -0.0176
 1109loPI   C1B16733   8.238  10.970   6.715  0.0784  0.1697 -0.0900
 1109loPI   C2B16734   8.219  10.793   7.103 -0.3464  0.0356  0.1774
 1109loPI   C3B16735   8.355  10.509   7.289  0.1645 -0.1741 -0.1475
 1109loPI   C4B16736   8.311  10.401   7.813 -0.1370 -0.1646  0.0870
 1110loPI    C116737  13.859  16.057   5.365  0.0624 -0.1808 -0.2051
 1110loPI    C216738  13.619  15.872   5.103  0.0949 -0.1894 -0.2289
 1110loPI    C316739  13.930  16.087   4.972 -0.0816  0.0788 -0.2130
 1110loPI   PO416740  13.932  15.918   5.525 -0.2261  0.1562 -0.0471
 1110loPI   GL116741  14.082  15.756   5.911 -0.0040 -0.0646  0.2469
 1110loPI   GL216742  14.267  15.930   6.055 -0.2439  0.2506  0.1293
 1110loPI   C1A16743  13.900  15.638   6.391 -0.3339  0.0156  0.1297
 1110loPI   C2A16744  13.777  15.599   6.883 -0.3053  0.0626 -0.0521
 1110loPI   C3A16745  13.780  15.823   7.303 -0.0152  0.2010  0.1026
 1110loPI   C4A16746  13.778  16.183   7.473  0.3381  0.3199  0.1954
 1110loPI   C5A16747  13.751  16.564   7.498 -0.1894 -0.1213 -0.1388
 1110loPI   C6A16748  13.682  17.014   7.616 -0.1126 -0.1369  0.1614
 1110loPI   C1B16749  14.283  15.877   6.455  0.0711  0.0473  0.1425
 1110loPI   C2B16750  14.184  15.863   6.854  0.1552  0.0850  0.0250
 1110loPI   C3B16751  14.235  15.966   7.365 -0.0112  0.1360  0.3746
 1110loPI   C4B16752  14.083  15.898   7.801 -0.1175  0.0449  0.2287
 1111loPI    C116753  17.100  17.097   5.473 -0.3001  0.3609 -0.1914
 1111loPI    C216754  17.089  16.866   5.146 -0.2475 -0.1091  0.1291
 1111loPI    C316755  17.418  17.078   5.230 -0.1710 -0.1775  0.0061
 1111loPI   PO416756  17.033  16.932   5.675 -0.4776 -0.0823  0.0938
 1111loPI   GL116757  16.732  16.845   5.995  0.0687 -0.0436  0.1059
 1111loPI   GL216758  16.893  16.763   6.169 -0.0722 -0.0340  0.1473
 1111loPI   C1A16759  16.648  17.141   6.326 -0.1597  0.0440  0.0730
 1111loPI   C2A16760  16.745  17.225   6.795  0.0517 -0.2457 -0.0090
 1111loPI   C3A16761  16.817  17.190   7.211 -0.0700  0.2950 -0.0602
 1111loPI   C4A16762  16.963  17.165   7.575  0.2220  0.2118 -0.0963
 1111loPI   C5A16763  17.085  17.478   7.851 -0.0904  0.1747  0.2800
 1111loPI   C6A16764  17.283  17.786   7.995  0.2101  0.1785  0.2608
 1111loPI   C1B16765  16.886  16.659   6.520 -0.1541 -0.1812  0.0680
 1111loPI   C2B16766  16.921  16.660   6.972 -0.1056  0.1333 -0.0461
 1111loPI   C3B16767  16.798  16.704   7.435 -0.1962 -0.1850 -0.0079
 1111loPI   C4B16768  16.693  16.740   7.821 -0.1678 -0.1798 -0.0163
 1112loPI    C116769   1.175  14.160   5.348  0.3538  0.0108  0.1233
 1112loPI    C216770   0.853  14.375   5.446  0.2122 -0.1244 -0.0379
 1112loPI    C316771   1.086  14.491   5.143  0.0893 -0.2401 -0.1782
 1112loPI   PO416772   1.206  14.013   5.576 -0.3790  0.5066  0.0287
 1112loPI   GL116773   1.251  13.995   5.944  0.1543  0.0840 -0.0474
 1112loPI   GL216774   1.006  14.380   5.928  0.3310 -0.0110 -0.0869
 1112loPI   C1A16775   1.168  13.844   6.346 -0.0824  0.0909 -0.0091
 1112loPI   C2A16776   1.129  13.865   6.753  0.0659  0.2107  0.1915
 1112loPI   C3A16777   1.177  14.020   7.221 -0.2277 -0.2142  0.2458
 1112loPI   C4A16778   1.169  14.108   7.659  0.3376  0.2056 -0.1655
 1112loPI   C5A16779   1.264  13.992   8.034 -0.2585 -0.2310  0.0275
 1112loPI   C6A16780   1.140  13.963   8.416 -0.2104 -0.1457 -0.1195
 1112loPI   C1B16781   1.085  14.321   6.301  0.0222 -0.1188  0.1580
 1112loPI   C2B16782   1.159  14.348   6.817  0.0738 -0.1847  0.0585
 1112loPI   C3B16783   1.047  14.514   7.206  0.4696 -0.0467  0.3033
 1112loPI   C4B16784   0.780  14.459   7.612  0.6224 -0.2884 -0.3038
 1113loPI    C116785   4.764  11.153   5.089 -0.0611 -0.2869  0.0015
 1113loPI    C216786   5.003  10.854   5.203  0.0986 -0.0908  0.1894
 1113loPI    C316787   4.921  10.908   4.816  0.5038 -0.0543  0.1042
 1113loPI   PO416788   4.815  11.354   5.144 -0.1035 -0.1064 -0.2272
 1113loPI   GL116789   5.201  11.255   5.454 -0.2294  0.1148 -0.0494
 1113loPI   GL216790   5.553  11.371   5.588 -0.2854 -0.1655 -0.1021
 1113loPI   C1A16791   5.179  11.202   5.902  0.0224 -0.1792 -0.0717
 1113loPI   C2A16792   5.235  11.085   6.376 -0.2160  0.1721  0.1289
 1113loPI   C3A16793   5.293  10.969   6.740  0.2627  0.0484  0.0595
 1113loPI   C4A16794   5.267  11.018   7.145  0.2295  0.0127 -0.1309
 1113loPI   C5A16795   5.531  10.903   7.491 -0.0326  0.0694  0.4090
 1113loPI   C6A16796   5.533  10.496   7.695  0.0487 -0.0921 -0.0564
 1113loPI   C1B16797   5.638  11.311   6.025  0.1857  0.1071  0.0306
 1113loPI   C2B16798   5.592  11.426   6.466  0.0841 -0.2530  0.1979
 1113loPI   C3B16799   5.667  11.456   6.926  0.0527  0.1325  0.1651
 1113loPI   C4B16800   5.703  11.390   7.327 -0.1183 -0.0605 -0.5042
 1114loPI    C116801   7.904  12.699   5.287 -0.3290 -0.0698  0.2935
 1114loPI    C216802   7.987  12.388   5.051  0.1811  0.3629 -0.1231
 1114loPI    C316803   7.660  12.609   4.983  0.1095  0.2446 -0.1675
 1114loPI   PO416804   7.903  12.757   5.585 -0.2176 -0.0683 -0.1086
 1114loPI   GL116805   7.928  12.929   5.993  0.0426 -0.0611  0.2635
 1114loPI   GL216806   8.211  12.600   5.925  0.0555  0.0224  0.1818
 1114loPI   C1A16807   8.134  12.982   6.370 -0.1585  0.1251  0.1046
 1114loPI   C2A16808   8.113  12.980   6.863 -0.0338 -0.0928  0.1073
 1114loPI   C3A16809   7.941  13.092   7.262 -0.2914 -0.2270 -0.3158
 1114loPI   C4A16810   7.945  13.193   7.684  0.1415 -0.1301 -0.1213
 1114loPI   C5A16811   7.650  13.339   7.953  0.1126 -0.2647 -0.0144
 1114loPI   C6A16812   7.470  13.475   8.311 -0.3442  0.2076 -0.0598
 1114loPI   C1B16813   8.295  12.184   6.062  0.0375  0.0358  0.0227
 1114loPI   C2B16814   8.466  12.171   6.439  0.1911  0.1598 -0.2922
 1114loPI   C3B16815   8.540  12.077   6.814 -0.1970  0.2223  0.2335
 1114loPI   C4B16816   8.343  11.906   7.031  0.0007 -0.1889  0.3005
 1115loPI    C116817  18.295  15.644   5.071 -0.3267 -0.0315  0.1531
 1115loPI    C216818  18.354  16.038   5.034 -0.0477 -0.1007 -0.1882
 1115loPI    C316819  18.596  15.781   4.846 -0.2062 -0.4379  0.0592
 1115loPI   PO416820  18.332  15.581   5.272 -0.1111  0.1078  0.1388
 1115loPI   GL116821  18.537  15.615   5.699  0.1699 -0.4607 -0.0799
 1115loPI   GL216822  18.818  15.618   5.777  0.1282 -0.1419 -0.1026
 1115loPI   C1A16823  18.162  15.582   5.911  0.0866 -0.0820 -0.0347
 1115loPI   C2A16824  17.993  15.531   6.346 -0.0429 -0.3551  0.1348
 1115loPI   C3A16825  17.964  15.660   6.734 -0.0512  0.0343  0.2000
 1115loPI   C4A16826  17.949  15.670   7.238  0.2822  0.2163 -0.0906
 1115loPI   C5A16827  17.968  15.678   7.671 -0.2148 -0.0967 -0.2051
 1115loPI   C6A16828  18.087  15.559   7.953 -0.0354  0.0236 -0.0678
 1115loPI   C1B16829  18.837  15.715   6.138  0.1372 -0.0309 -0.0728
 1115loPI   C2B16830  18.953  15.557   6.542 -0.1745  0.0875 -0.0414
 1115loPI   C3B16831  18.868  15.586   7.029  0.1607 -0.0301  0.2055
 1115loPI   C4B16832  18.848  15.460   7.434 -0.1014 -0.2103 -0.0766
 1116loPI    C116833  10.331   9.757   5.641 -0.0831  0.0638  0.1626
 1116loPI    C216834  10.376  10.152   5.604 -0.1214  0.0601  0.0776
 1116loPI    C316835  10.662   9.905   5.473 -0.2617  0.0471 -0.2134
 1116loPI   PO416836  10.270   9.693   5.912 -0.1140  0.0724  0.1047
 1116loPI   GL116837  10.302   9.729   6.337 -0.0534  0.2832  0.0184
 1116loPI   GL216838  10.092   9.675   6.467  0.0356 -0.0360 -0.1259
 1116loPI   C1A16839  10.595   9.661   6.764  0.2057  0.0657  0.0823
 1116loPI   C2A16840  10.497   9.681   7.088 -0.1363 -0.2700  0.0231
 1116loPI   C3A16841  10.416   9.630   7.407  0.0214  0.1334 -0.4345
 1116loPI   C4A16842  10.586   9.824   7.750  0.0276  0.1453  0.1740
 1116loPI   C5A16843  10.578  10.049   8.197  0.2057  0.0288 -0.0076
 1116loPI   C6A16844  10.522  10.194   8.605 -0.0484 -0.0805  0.1409
 1116loPI   C1B16845   9.932   9.605   6.823  0.0077  0.0948 -0.0406
 1116loPI   C2B16846   9.906   9.713   7.247  0.0747  0.3596 -0.1109
 1116loPI   C3B16847  10.053   9.696   7.703 -0.1737 -0.0407  0.0952
 1116loPI   C4B16848  10.213   9.743   8.069 -0.1780 -0.1110 -0.1422
 1117loPI    C116849  14.615  14.268   5.317  0.1266 -0.1875  0.1734
 1117loPI    C216850  14.541  14.605   5.520 -0.0084 -0.2010  0.1477
 1117loPI    C316851  14.740  14.620   5.173 -0.0177 -0.1469  0.1447
 1117loPI   PO416852  14.742  14.116   5.410 -0.0731 -0.0075 -0.2550
 1117loPI   GL116853  14.667  14.103   5.892 -0.1521  0.1139  0.0246
 1117loPI   GL216854  14.565  14.381   5.983  0.1357 -0.0911  0.1756
 1117loPI   C1A16855  14.611  13.902   6.279  0.0650 -0.0287  0.1377
 1117loPI   C2A16856  14.368  13.844   6.706  0.0465 -0.1647 -0.0747
 1117loPI   C3A16857  14.481  13.531   7.028 -0.1367  0.0280  0.0418
 1117loPI   C4A16858  14.498  13.541   7.470 -0.5631  0.0802  0.2001
 1117loPI   C5A16859  14.618  13.693   7.912  0.1974 -0.1516  0.1395
 1117loPI   C6A16860  14.597  14.080   8.146  0.0133 -0.1066  0.0404
 1117loPI   C1B16861  14.420  14.370   6.372 -0.2869 -0.0051 -0.1499
 1117loPI   C2B16862  14.424  14.338   6.800 -0.1326  0.0909 -0.2249
 1117loPI   C3B16863  14.513  14.460   7.263  0.1000 -0.1356  0.0351
 1117loPI   C4B16864  14.407  14.125   7.633  0.1030 -0.1751 -0.0806
 1118loPI    C116865  16.942  12.645   5.227  0.0820  0.1447  0.1493
 1118loPI    C216866  17.013  12.275   5.362  0.1118  0.1427  0.1282
 1118loPI    C316867  16.783  12.329   5.039 -0.1136  0.1581  0.2889
 1118loPI   PO416868  16.781  12.789   5.476  0.1388 -0.2705  0.1051
 1118loPI   GL116869  16.789  13.090   5.632  0.0456  0.1554 -0.1833
 1118loPI   GL216870  16.993  13.164   5.863 -0.0793 -0.0453  0.1199
 1118loPI   C1A16871  16.485  13.141   5.999 -0.1616  0.2443 -0.2525
 1118loPI   C2A16872  16.352  13.331   6.376 -0.0673  0.0751 -0.2556
 1118loPI   C3A16873  16.375  13.223   6.736 -0.2800 -0.1625 -0.0519
 1118loPI   C4A16874  16.452  13.117   7.149  0.1327  0.1294  0.0613
 1118loPI   C5A16875  16.648  12.934   7.429  0.1285  0.0866 -0.1912
 1118loPI   C6A16876  16.725  12.824   7.829  0.0717  0.2874 -0.0435
 1118loPI   C1B16877  16.871  13.200   6.375 -0.1348  0.0029  0.1052
 1118loPI   C2B16878  16.846  13.308   6.703  0.1977 -0.1895 -0.1418
 1118loPI   C3B16879  16.917  13.414   7.212  0.0146 -0.1600 -0.0859
 1118loPI   C4B16880  16.917  13.321   7.593 -0.0010  0.1015 -0.1246
 1119loPI    C116881  12.843   1.551   5.121 -0.1032  0.0923  0.1531
 1119loPI    C216882  13.098   1.720   4.864  0.0565  0.1763  0.3639
 1119loPI    C316883  12.703   1.768   4.816  0.0691 -0.1009 -0.0667
 1119loPI   PO416884  12.952   1.628   5.361 -0.0745 -0.1084  0.2555
 1119loPI   GL116885  13.050   1.656   5.698 -0.1548 -0.0454 -0.0819
 1119loPI   GL216886  13.033   2.030   5.678 -0.3808 -0.0501 -0.0264
 1119loPI   C1A16887  13.125   1.736   6.114 -0.0285  0.1322  0.0677
 1119loPI   C2A16888  13.156   1.808   6.502  0.1216 -0.3958 -0.1641
 1119loPI   C3A16889  13.085   1.834   7.022  0.0598 -0.0241  0.1401
 1119loPI   C4A16890  13.103   1.842   7.529 -0.0389  0.2160  0.4657
 1119loPI   C5A16891  13.253   1.940   7.900  0.1234 -0.4607 -0.1100
 1119loPI   C6A16892  13.300   1.894   8.297 -0.0857 -0.1969  0.4694
 1119loPI   C1B16893  13.173   2.243   6.016  0.0360 -0.3271 -0.0601
 1119loPI   C2B16894  13.216   2.373   6.442 -0.2473 -0.1360  0.1679
 1119loPI   C3B16895  13.264   2.619   6.783  0.3549  0.0204  0.0139
 1119loPI   C4B16896  13.255   2.547   7.149  0.1870  0.2152 -0.2982
 1120loPI    C116897  10.287   6.114   5.975 -0.1387  0.1769 -0.0238
 1120loPI    C216898  10.024   6.412   6.011 -0.3164  0.0072  0.1057
 1120loPI    C316899  10.038   6.198   5.674 -0.2972  0.0600  0.0728
 1120loPI   PO416900  10.301   5.970   6.121 -0.0966  0.1516  0.1110
 1120loPI   GL116901  10.165   5.997   6.495 -0.0184 -0.0971  0.1067
 1120loPI   GL216902   9.849   6.151   6.432 -0.3576 -0.0462 -0.1521
 1120loPI   C1A16903  10.134   5.838   6.830 -0.0165  0.1552  0.2906
 1120loPI   C2A16904   9.846   5.756   7.139 -0.1568  0.1179 -0.1451
 1120loPI   C3A16905   9.573   5.638   7.442  0.3940 -0.1165 -0.3732
 1120loPI   C4A16906   9.338   5.697   7.907 -0.1085  0.0145 -0.1577
 1120loPI   C5A16907   9.044   5.328   8.091  0.1406 -0.2792  0.3876
 1120loPI   C6A16908   8.822   4.964   7.927  0.0082  0.0989  0.4011
 1120loPI   C1B16909   9.955   6.319   6.783 -0.1330 -0.0459  0.1139
 1120loPI   C2B16910  10.020   6.245   7.244  0.1190 -0.2175  0.1431
 1120loPI   C3B16911  10.269   6.408   7.504  0.1280  0.2626  0.3600
 1120loPI   C4B16912  10.450   6.365   7.946  0.1433 -0.1203 -0.0989
 1121loPI    C116913   3.025   4.426   5.385  0.0720 -0.1555  0.0472
 1121loPI    C216914   2.955   4.315   5.007  0.3397  0.1951 -0.1115
 1121loPI    C316915   2.664   4.484   5.224  0.0721 -0.3513 -0.0266
 1121loPI   PO416916   3.155   4.249   5.506  0.0319 -0.1977  0.2559
 1121loPI   GL116917   3.027   3.946   5.730 -0.0661  0.0404 -0.2238
 1121loPI   GL216918   2.931   3.677   5.872  0.0610  0.1415 -0.1680
 1121loPI   C1A16919   3.283   4.009   6.093 -0.0293 -0.0972 -0.0583
 1121loPI   C2A16920   3.235   3.859   6.521 -0.0936 -0.2749 -0.2593
 1121loPI   C3A16921   3.121   3.598   6.759 -0.2828 -0.2539 -0.1013
 1121loPI   C4A16922   2.907   3.519   7.184  0.0825 -0.1467  0.3078
 1121loPI   C5A16923   2.868   3.702   7.496  0.2282  0.1100 -0.0653
 1121loPI   C6A16924   2.629   3.975   7.754  0.0854 -0.0322  0.0781
 1121loPI   C1B16925   2.793   3.934   6.179 -0.1865  0.1366 -0.2230
 1121loPI   C2B16926   2.725   4.235   6.551  0.0217 -0.1125 -0.0957
 1121loPI   C3B16927   2.788   4.692   6.563 -0.0771  0.1149 -0.2599
 1121loPI   C4B16928   3.020   5.010   6.745  0.1918  0.0681  0.1489
 1122loPI    C116929  12.567  14.300   5.431  0.0370  0.0677  0.0508
 1122loPI    C216930  12.540  14.458   5.064 -0.0054 -0.0274  0.0128
 1122loPI    C316931  12.780  14.145   5.130  0.1768  0.1315  0.1158
 1122loPI   PO416932  12.260  14.360   5.536  0.2904  0.0137 -0.0733
 1122loPI   GL116933  12.334  14.608   5.866 -0.2786 -0.0164  0.3433
 1122loPI   GL216934  12.535  14.419   5.928 -0.0370 -0.2820  0.0058
 1122loPI   C1A16935  12.508  14.639   6.331  0.0502 -0.4814  0.2133
 1122loPI   C2A16936  12.322  14.585   6.773  0.1307  0.0712 -0.1446
 1122loPI   C3A16937  12.393  14.602   7.168 -0.0720 -0.0601  0.1114
 1122loPI   C4A16938  12.638  14.717   7.578  0.1839  0.0318  0.2403
 1122loPI   C5A16939  12.756  14.794   7.993  0.2833 -0.2269 -0.1224
 1122loPI   C6A16940  12.994  15.169   8.257 -0.2881  0.3459  0.0067
 1122loPI   C1B16941  12.567  14.195   6.324  0.0459  0.1863  0.0767
 1122loPI   C2B16942  12.551  14.152   6.683  0.0971  0.1504 -0.0987
 1122loPI   C3B16943  12.651  14.181   7.065 -0.0618  0.3037  0.2522
 1122loPI   C4B16944  12.589  13.974   7.383 -0.2369  0.2749  0.1827
 1123loPI    C116945   1.645   1.176   4.875  0.0057  0.1911 -0.1794
 1123loPI    C216946   2.026   1.058   4.895 -0.1029 -0.1100  0.2611
 1123loPI    C316947   1.743   0.800   4.782 -0.1726  0.1343 -0.1416
 1123loPI   PO416948   1.662   1.298   5.163  0.0907  0.2577  0.2260
 1123loPI   GL116949   1.431   1.623   5.513 -0.2631 -0.2750  0.0057
 1123loPI   GL216950   1.762   1.538   5.654  0.1581  0.3867  0.0892
 1123loPI   C1A16951   1.437   1.825   5.950  0.3335  0.2335 -0.1334
 1123loPI   C2A16952   1.521   1.941   6.368 -0.0974 -0.0983  0.0147
 1123loPI   C3A16953   1.646   2.123   6.784  0.2158  0.1726  0.1064
 1123loPI   C4A16954   1.804   1.979   7.173  0.0213  0.0311 -0.1290
 1123loPI   C5A16955   1.795   1.720   7.621 -0.3421 -0.4342  0.0193
 1123loPI   C6A16956   1.651   1.399   7.882 -0.2623 -0.0417  0.4178
 1123loPI   C1B16957   1.861   1.448   6.116 -0.0723  0.1209  0.0037
 1123loPI   C2B16958   1.835   1.626   6.523  0.0272 -0.0821  0.1935
 1123loPI   C3B16959   2.091   1.743   6.880 -0.0040  0.4372  0.0292
 1123loPI   C4B16960   2.273   1.774   7.259  0.0306 -0.1474  0.0407
 1124loPI    C116961   8.477   7.522   5.624  0.3054 -0.0054 -0.2995
 1124loPI    C216962   8.332   7.801   5.377  0.0359 -0.0951 -0.2461
 1124loPI    C316963   8.455   7.449   5.231  0.1466 -0.0413 -0.2845
 1124loPI   PO416964   8.331   7.520   5.835 -0.0070  0.1629 -0.0367
 1124loPI   GL116965   7.988   7.321   6.022 -0.0823 -0.0107 -0.0531
 1124loPI   GL216966   7.632   7.358   6.186 -0.0140 -0.0026  0.2225
 1124loPI   C1A16967   8.080   7.237   6.391  0.0741 -0.1111  0.1582
 1124loPI   C2A16968   7.912   7.136   6.739  0.0192 -0.1586  0.2491
 1124loPI   C3A16969   7.758   6.914   7.074 -0.1566  0.0334  0.0405
 1124loPI   C4A16970   7.567   6.979   7.484  0.0061 -0.1528  0.1090
 1124loPI   C5A16971   7.826   7.069   7.896 -0.0752  0.0195 -0.0294
 1124loPI   C6A16972   7.908   7.520   7.960  0.1796 -0.2166  0.0334
 1124loPI   C1B16973   7.558   7.583   6.562  0.0548 -0.0984 -0.1607
 1124loPI   C2B16974   7.464   7.797   6.887 -0.3174  0.0114 -0.1668
 1124loPI   C3B16975   7.365   7.944   7.299 -0.0891 -0.0438 -0.0007
 1124loPI   C4B16976   7.603   7.817   7.635  0.0206 -0.1908 -0.3205
 1125loPI    C116977  14.428   0.694   4.882  0.2378  0.1028  0.3196
 1125loPI    C216978  14.614   0.951   4.638  0.1540 -0.0049  0.1403
 1125loPI    C316979  14.299   1.071   4.853  0.1637  0.0631  0.1166
 1125loPI   PO416980  14.631   0.572   5.031 -0.2653 -0.0659  0.0689
 1125loPI   GL116981  14.922   0.547   5.468 -0.0005  0.0822 -0.1376
 1125loPI   GL216982  14.877   0.779   5.550  0.1571 -0.0051  0.2034
 1125loPI   C1A16983  14.941   0.253   5.840 -0.0588  0.0758  0.0818
 1125loPI   C2A16984  14.944   0.263   6.218 -0.1082  0.1006 -0.0275
 1125loPI   C3A16985  14.948   0.033   6.744 -0.3188 -0.1025  0.0015
 1125loPI   C4A16986  15.210  -0.049   7.225 -0.0588  0.0622  0.0404
 1125loPI   C5A16987  15.310   0.013   7.676 -0.4366  0.0141  0.3418
 1125loPI   C6A16988  15.149   0.343   7.751  0.1607 -0.0706  0.0353
 1125loPI   C1B16989  14.981   0.797   5.956  0.0508 -0.2217  0.0891
 1125loPI   C2B16990  14.899   0.741   6.366  0.1495  0.2141  0.0578
 1125loPI   C3B16991  14.919   0.493   6.714  0.0322  0.3033  0.3327
 1125loPI   C4B16992  14.874   0.318   7.156  0.4672  0.0467 -0.4976
 1126loPI    C116993  13.795   7.136   5.634  0.1000 -0.1380 -0.2798
 1126loPI    C216994  13.966   7.497   5.619 -0.0208 -0.0770 -0.2081
 1126loPI    C316995  13.883   7.301   5.280  0.1904 -0.1080 -0.2435
 1126loPI   PO416996  13.672   7.161   5.870  0.0960  0.0430  0.4227
 1126loPI   GL116997  13.667   7.047   6.284 -0.0998  0.4553  0.0151
 1126loPI   GL216998  13.937   7.253   6.273 -0.0746  0.1079  0.0899
 1126loPI   C1A16999  13.534   6.793   6.683  0.1030  0.1658  0.0709
 1126loPI   C2A17000  13.311   6.671   7.007 -0.1197 -0.2261  0.2414
 1126loPI   C3A17001  13.058   6.702   7.345 -0.1555  0.0017  0.3386
 1126loPI   C4A17002  12.966   6.469   7.698  0.0316 -0.0600 -0.0268
 1126loPI   C5A17003  12.879   6.119   8.027  0.0710 -0.1237  0.0782
 1126loPI   C6A17004  12.826   5.852   8.399 -0.1019  0.0426  0.0524
 1126loPI   C1B17005  13.948   7.311   6.643  0.0409  0.2198 -0.1800
 1126loPI   C2B17006  13.884   7.183   7.093 -0.1188  0.1041  0.1874
 1126loPI   C3B17007  13.628   7.032   7.429  0.0681 -0.1204 -0.3643
 1126loPI   C4B17008  13.507   6.983   7.856 -0.0908  0.2793  0.0676
 1127loPI    C117009   2.031   5.229   4.879  0.2876 -0.2228 -0.1273
 1127loPI    C217010   2.161   5.515   4.631 -0.2377  0.1958  0.0620
 1127loPI    C317011   1.891   5.247   4.505 -0.0742  0.0515  0.0153
 1127loPI   PO417012   2.132   5.349   5.155 -0.1914 -0.1656  0.1578
 1127loPI   GL117013   1.834   5.353   5.650 -0.4057  0.0461  0.1071
 1127loPI   GL217014   2.093   5.394   5.885  0.2987  0.0096 -0.0186
 1127loPI   C1A17015   1.624   5.355   6.076 -0.0752 -0.2987 -0.1775
 1127loPI   C2A17016   1.635   5.449   6.533 -0.1210 -0.1112 -0.0827
 1127loPI   C3A17017   1.716   5.526   6.989 -0.0869 -0.3562 -0.2718
 1127loPI   C4A17018   2.015   5.599   7.293 -0.5536  0.1686 -0.0843
 1127loPI   C5A17019   2.123   5.792   7.674 -0.1659 -0.2134  0.0573
 1127loPI   C6A17020   2.504   6.132   7.651  0.2926 -0.0258 -0.1638
 1127loPI   C1B17021   2.126   5.387   6.264  0.0947 -0.0710  0.1551
 1127loPI   C2B17022   2.103   5.299   6.716 -0.0902 -0.1678 -0.2687
 1127loPI   C3B17023   2.038   5.073   7.143  0.0480 -0.1503 -0.1886
 1127loPI   C4B17024   1.966   4.954   7.483  0.0925 -0.1191  0.0541
 1128loPI    C117025   6.796  17.843   5.085 -0.1992 -0.0864  0.0837
 1128loPI    C217026   6.703  18.177   4.885 -0.2548 -0.0335  0.1965
 1128loPI    C317027   6.674  17.821   4.705  0.1117  0.0448 -0.0266
 1128loPI   PO417028   6.750  17.860   5.326  0.2748  0.1130 -0.0079
 1128loPI   GL117029   6.582  17.852   5.626 -0.3783 -0.1681  0.0966
 1128loPI   GL217030   6.649  18.240   5.686 -0.3310 -0.0433 -0.1751
 1128loPI   C1A17031   6.255  17.943   5.916 -0.0736 -0.0912 -0.2526
 1128loPI   C2A17032   6.285  17.976   6.486 -0.3661 -0.1436  0.0866
 1128loPI   C3A17033   6.307  17.976   6.945  0.0691 -0.0858  0.0821
 1128loPI   C4A17034   5.936  17.998   7.259  0.1642 -0.2979  0.1405
 1128loPI   C5A17035   5.819  17.797   7.739  0.0826 -0.0227  0.0667
 1128loPI   C6A17036   5.506  17.514   8.074  0.1295  0.1470  0.3440
 1128loPI   C1B17037   6.827  18.124   6.119 -0.0703 -0.0441 -0.0524
 1128loPI   C2B17038   7.088  18.158   6.554 -0.0232 -0.1024 -0.0665
 1128loPI   C3B17039   7.532  18.049   6.569  0.1141  0.2573  0.0792
 1128loPI   C4B17040   7.964  18.154   6.619  0.1302  0.4430  0.2683
 1129loPI    C117041   5.409  16.922   5.318 -0.1285  0.1981  0.1081
 1129loPI    C217042   5.574  17.286   5.343  0.4728 -0.0639  0.1089
 1129loPI    C317043   5.569  17.092   4.993 -0.2916  0.1338 -0.0072
 1129loPI   PO417044   5.449  16.801   5.513  0.0476 -0.0782 -0.1721
 1129loPI   GL117045   5.183  16.784   5.906 -0.0366 -0.0660 -0.0170
 1129loPI   GL217046   4.831  16.661   5.830 -0.2135  0.2015 -0.0333
 1129loPI   C1A17047   5.155  16.781   6.375 -0.2844 -0.0458  0.0491
 1129loPI   C2A17048   5.182  16.846   6.817 -0.0872  0.0827  0.1577
 1129loPI   C3A17049   5.251  16.834   7.316  0.4028 -0.0558 -0.2018
 1129loPI   C4A17050   5.018  16.999   7.694  0.1955  0.0032  0.0144
 1129loPI   C5A17051   4.859  16.721   8.090  0.0408 -0.2936 -0.0528
 1129loPI   C6A17052   4.635  16.543   8.319  0.1586  0.0065  0.0002
 1129loPI   C1B17053   4.714  16.832   6.233 -0.1371 -0.3625 -0.1323
 1129loPI   C2B17054   4.658  16.765   6.732  0.1406 -0.2984  0.2903
 1129loPI   C3B17055   4.821  16.758   7.129 -0.0910 -0.0616 -0.1455
 1129loPI   C4B17056   4.643  16.574   7.678  0.1093  0.2900 -0.0195
 1130loPI    C117057   5.963  13.298   5.179 -0.0987 -0.0194  0.1360
 1130loPI    C217058   5.676  13.279   4.901  0.1590  0.0152 -0.1372
 1130loPI    C317059   5.904  12.958   4.975  0.2211  0.0661 -0.1072
 1130loPI   PO417060   5.693  13.453   5.387 -0.1275 -0.0885 -0.5302
 1130loPI   GL117061   5.476  13.653   5.682 -0.0849  0.1299 -0.0544
 1130loPI   GL217062   5.791  13.821   5.780 -0.2376 -0.0512  0.0972
 1130loPI   C1A17063   5.370  13.800   6.047  0.0634 -0.0752  0.0065
 1130loPI   C2A17064   5.197  13.887   6.438 -0.0027  0.0848 -0.2531
 1130loPI   C3A17065   5.320  14.006   6.823  0.1341 -0.1579 -0.0349
 1130loPI   C4A17066   5.334  14.034   7.367  0.2439 -0.0709  0.0813
 1130loPI   C5A17067   5.371  13.806   7.846  0.2282  0.2073 -0.1415
 1130loPI   C6A17068   5.195  13.395   7.929 -0.1101  0.0669 -0.1666
 1130loPI   C1B17069   5.925  13.670   6.117  0.1787  0.0393 -0.3020
 1130loPI   C2B17070   5.626  13.658   6.531  0.2017 -0.3571  0.0877
 1130loPI   C3B17071   5.668  13.666   6.916  0.1823  0.1709 -0.0670
 1130loPI   C4B17072   5.729  13.745   7.331  0.1845 -0.1720 -0.5913
 1131loPI    C117073  17.539  16.588   5.261 -0.1618 -0.1447  0.1425
 1131loPI    C217074  17.531  16.202   5.154 -0.1401 -0.1208  0.0552
 1131loPI    C317075  17.877  16.375   5.256 -0.1434 -0.1134  0.0540
 1131loPI   PO417076  17.388  16.589   5.420 -0.0614 -0.1097 -0.1278
 1131loPI   GL117077  17.452  16.668   5.907 -0.0244  0.0369  0.0529
 1131loPI   GL217078  17.510  16.917   5.816 -0.1059  0.1464  0.1206
 1131loPI   C1A17079  17.322  16.640   6.296  0.1528 -0.1026  0.0257
 1131loPI   C2A17080  17.405  16.394   6.612 -0.3547  0.2063 -0.1676
 1131loPI   C3A17081  17.446  16.528   6.969 -0.0215  0.0804 -0.0065
 1131loPI   C4A17082  17.290  16.796   7.330 -0.0489  0.2002 -0.0356
 1131loPI   C5A17083  17.350  16.914   7.701  0.1150  0.1875 -0.3696
 1131loPI   C6A17084  17.168  17.052   8.096  0.0089 -0.1803 -0.4142
 1131loPI   C1B17085  17.692  17.215   6.088 -0.3332 -0.0182  0.3531
 1131loPI   C2B17086  17.594  17.379   6.537 -0.0634 -0.1647 -0.0794
 1131loPI   C3B17087  17.577  17.611   6.867 -0.2964  0.4439  0.2658
 1131loPI   C4B17088  17.578  17.793   7.336  0.1236  0.1640 -0.1893
 1132loPI    C117089  14.821  17.246   5.525  0.1330  0.1915  0.0546
 1132loPI    C217090  14.477  17.256   5.322  0.1055 -0.1172  0.0800
 1132loPI    C317091  14.818  17.171   5.132  0.1401 -0.0042  0.0907
 1132loPI   PO417092  14.765  17.475   5.696 -0.0994 -0.1966 -0.2020
 1132loPI   GL117093  14.910  17.565   6.143 -0.3344  0.0952  0.0833
 1132loPI   GL217094  15.068  17.332   6.133 -0.1577  0.0311  0.3470
 1132loPI   C1A17095  14.741  17.504   6.562 -0.2818 -0.2683  0.1102
 1132loPI   C2A17096  14.455  17.253   6.701 -0.2245 -0.0035 -0.0243
 1132loPI   C3A17097  14.168  17.252   7.095  0.1646  0.0146  0.0564
 1132loPI   C4A17098  13.988  17.446   7.410  0.3985 -0.3240 -0.0492
 1132loPI   C5A17099  13.639  17.548   7.586 -0.3366 -0.1753  0.0186
 1132loPI   C6A17100  13.606  17.746   7.959 -0.3023  0.0671 -0.2388
 1132loPI   C1B17101  15.277  17.474   6.514 -0.0624  0.0635  0.0606
 1132loPI   C2B17102  15.514  17.460   6.868  0.2994 -0.0306  0.0311
 1132loPI   C3B17103  15.510  17.517   7.267  0.4116  0.2218 -0.3582
 1132loPI   C4B17104  15.523  17.936   7.361 -0.0623  0.1037 -0.0574
 1133loPI    C117105   8.458  14.214   5.716 -0.0705 -0.0739 -0.0832
 1133loPI    C217106   8.558  14.462   5.419  0.0759 -0.0011  0.0251
 1133loPI    C317107   8.837  14.231   5.589 -0.0206 -0.0927  0.0603
 1133loPI   PO417108   8.103  14.265   5.709  0.2373  0.1235 -0.1247
 1133loPI   GL117109   7.866  14.561   5.885  0.0734  0.3001  0.1023
 1133loPI   GL217110   7.994  14.432   6.182 -0.0409 -0.0521 -0.0929
 1133loPI   C1A17111   7.642  14.720   6.198  0.0050 -0.2525 -0.1780
 1133loPI   C2A17112   7.407  14.955   6.539 -0.1431 -0.3404  0.1840
 1133loPI   C3A17113   7.526  15.068   6.914  0.0160 -0.1985 -0.0441
 1133loPI   C4A17114   7.803  15.016   7.132  0.1174  0.0090 -0.1772
 1133loPI   C5A17115   8.065  14.872   7.478 -0.0100 -0.1292 -0.0989
 1133loPI   C6A17116   7.901  14.734   7.749 -0.3187 -0.1778  0.0591
 1133loPI   C1B17117   8.058  14.330   6.574  0.1018 -0.0898 -0.1688
 1133loPI   C2B17118   8.213  14.390   6.972  0.2327 -0.0087  0.0534
 1133loPI   C3B17119   8.282  14.399   7.465 -0.1804 -0.2921 -0.0808
 1133loPI   C4B17120   8.553  14.223   7.775  0.4091 -0.0065  0.1561
 1134loPI    C117121   9.691  11.598   5.264 -0.0015 -0.4775  0.0030
 1134loPI    C217122   9.327  11.606   5.098  0.0169  0.0863 -0.0275
 1134loPI    C317123   9.614  11.377   4.939 -0.2405 -0.1374 -0.1779
 1134loPI   PO417124   9.656  11.573   5.554  0.0867  0.3426 -0.3174
 1134loPI   GL117125   9.719  11.462   5.994 -0.3181 -0.1247 -0.1567
 1134loPI   GL217126   9.662  11.110   6.140 -0.0162  0.2565  0.0377
 1134loPI   C1A17127   9.904  11.644   6.256  0.1372  0.1572 -0.0729
 1134loPI   C2A17128   9.871  11.825   6.663  0.3563  0.0880  0.0231
 1134loPI   C3A17129   9.727  11.886   7.053  0.0284 -0.2948 -0.2671
 1134loPI   C4A17130   9.760  12.075   7.420 -0.1870  0.1283  0.1334
 1134loPI   C5A17131   9.910  12.052   7.800  0.0104  0.4013 -0.0657
 1134loPI   C6A17132  10.207  12.012   8.036 -0.1759  0.0193 -0.0383
 1134loPI   C1B17133   9.836  10.959   6.548 -0.2716 -0.2051  0.2443
 1134loPI   C2B17134   9.731  10.835   6.990  0.0737  0.1201 -0.1544
 1134loPI   C3B17135   9.366  10.842   7.269  0.0118 -0.0611 -0.2598
 1134loPI   C4B17136   9.114  11.071   7.573 -0.0428  0.1617  0.2150
 1135loPI    C117137  17.041  10.733   5.268  0.0491  0.1211 -0.1924
 1135loPI    C217138  17.344  10.496   5.160  0.1521  0.1268  0.0770
 1135loPI    C317139  17.073  10.610   4.889  0.0737 -0.3360 -0.0475
 1135loPI   PO417140  17.086  10.839   5.448 -0.1212 -0.0134  0.0009
 1135loPI   GL117141  17.178  11.104   5.798 -0.0216 -0.0526 -0.1371
 1135loPI   GL217142  17.486  10.807   5.834 -0.1546 -0.1776  0.1103
 1135loPI   C1A17143  16.959  11.166   6.227  0.0822 -0.0579  0.2609
 1135loPI   C2A17144  17.163  11.255   6.685  0.0679 -0.2411 -0.1511
 1135loPI   C3A17145  17.231  11.322   7.101 -0.1465  0.1066 -0.2525
 1135loPI   C4A17146  16.992  11.598   7.389 -0.3620  0.1268 -0.1792
 1135loPI   C5A17147  16.698  11.833   7.603 -0.1896  0.0098 -0.1988
 1135loPI   C6A17148  16.435  12.091   7.842 -0.4674  0.0897 -0.0713
 1135loPI   C1B17149  17.425  10.892   6.283  0.3288  0.0383 -0.1031
 1135loPI   C2B17150  17.623  10.954   6.726 -0.0294  0.1000  0.0049
 1135loPI   C3B17151  17.725  11.360   6.981  0.0369  0.0563 -0.4111
 1135loPI   C4B17152  17.823  11.589   7.355 -0.0128  0.0728  0.1097
 1136loPI    C117153  14.366  15.957   5.201  0.1271 -0.0120  0.1052
 1136loPI    C217154  14.683  15.933   4.958 -0.0346 -0.1009 -0.1004
 1136loPI    C317155  14.345  15.740   4.866 -0.1288 -0.0598  0.1500
 1136loPI   PO417156  14.452  15.923   5.501  0.1481  0.0593  0.1588
 1136loPI   GL117157  14.645  16.065   5.791 -0.0975  0.0355 -0.0880
 1136loPI   GL217158  14.798  16.349   5.836 -0.0954  0.1837 -0.0105
 1136loPI   C1A17159  14.751  15.961   6.239  0.3286  0.3244  0.3891
 1136loPI   C2A17160  14.739  15.836   6.689  0.0009 -0.3795 -0.0039
 1136loPI   C3A17161  14.596  15.743   7.105 -0.2576 -0.3600 -0.1502
 1136loPI   C4A17162  14.903  15.861   7.328 -0.0019  0.3874  0.0847
 1136loPI   C5A17163  15.106  15.906   7.729 -0.2992 -0.0565  0.1158
 1136loPI   C6A17164  15.535  16.121   7.904  0.1582 -0.1441 -0.3287
 1136loPI   C1B17165  14.624  16.399   6.205 -0.0105 -0.0740 -0.1945
 1136loPI   C2B17166  14.662  16.482   6.641 -0.1560 -0.0203  0.0631
 1136loPI   C3B17167  14.663  16.346   7.102 -0.1790 -0.1560  0.0513
 1136loPI   C4B17168  14.620  16.204   7.498 -0.1237  0.0498 -0.2982
 1137loPI    C117169   1.495  12.615   5.334 -0.0961 -0.0548 -0.3082
 1137loPI    C217170   1.854  12.790   5.358 -0.1793  0.0814 -0.0012
 1137loPI    C317171   1.596  12.901   5.073  0.0975 -0.1681 -0.3603
 1137loPI   PO417172   1.399  12.643   5.650 -0.0580  0.4047 -0.0737
 1137loPI   GL117173   1.706  12.774   5.821 -0.1263 -0.4075  0.0286
 1137loPI   GL217174   1.790  12.536   6.034  0.0809 -0.0802  0.0091
 1137loPI   C1A17175   1.453  12.858   6.264 -0.4117  0.1220  0.0445
 1137loPI   C2A17176   1.446  12.883   6.709  0.1251 -0.1833  0.0554
 1137loPI   C3A17177   1.452  12.810   7.146  0.0447 -0.0317 -0.0411
 1137loPI   C4A17178   1.281  12.808   7.510 -0.0353  0.0323 -0.1242
 1137loPI   C5A17179   0.953  12.584   7.734  0.2456  0.2392  0.1129
 1137loPI   C6A17180   0.484  12.519   7.856 -0.2249  0.0571 -0.2540
 1137loPI   C1B17181   1.873  12.654   6.479  0.1445  0.0066 -0.2958
 1137loPI   C2B17182   1.883  12.784   6.913 -0.0250 -0.2550 -0.0892
 1137loPI   C3B17183   1.903  12.851   7.222 -0.0473  0.0442 -0.1956
 1137loPI   C4B17184   1.772  12.908   7.715  0.4433 -0.4262 -0.3524
 1138loPI    C117185   0.893  16.334   5.117  0.1980 -0.0390  0.1885
 1138loPI    C217186   1.165  16.550   4.917 -0.0242 -0.0129 -0.0915
 1138loPI    C317187   1.092  16.171   4.810  0.0634 -0.0940  0.1299
 1138loPI   PO417188   0.979  16.411   5.407 -0.0759  0.1314  0.3920
 1138loPI   GL117189   1.091  16.351   5.733  0.1132  0.2749  0.2397
 1138loPI   GL217190   1.398  16.217   5.779  0.0474  0.1004 -0.5945
 1138loPI   C1A17191   1.031  16.317   6.195 -0.0743 -0.0511 -0.1317
 1138loPI   C2A17192   0.928  16.444   6.660 -0.0097 -0.0371  0.0182
 1138loPI   C3A17193   0.772  16.469   7.096 -0.0326  0.1932  0.0481
 1138loPI   C4A17194   0.704  16.620   7.429 -0.2077 -0.1071 -0.4183
 1138loPI   C5A17195   0.946  16.703   7.796  0.5129 -0.0173 -0.1691
 1138loPI   C6A17196   1.375  16.556   7.813 -0.1943 -0.1224 -0.2167
 1138loPI   C1B17197   1.409  15.827   6.104 -0.2911  0.1295 -0.2470
 1138loPI   C2B17198   1.340  15.609   6.497 -0.1741 -0.0751  0.0056
 1138loPI   C3B17199   1.096  15.285   6.541 -0.1122  0.3556 -0.1595
 1138loPI   C4B17200   1.127  14.890   6.780 -0.2534  0.2247  0.1249
 1139loPI    C117201  16.211   6.490   5.593 -0.1164  0.0892 -0.0893
 1139loPI    C217202  16.472   6.682   5.359  0.0999  0.0139  0.0864
 1139loPI    C317203  16.144   6.870   5.489  0.0994  0.1309 -0.0806
 1139loPI   PO417204  16.381   6.344   5.762  0.0765  0.0816 -0.0773
 1139loPI   GL117205  16.625   6.287   6.198  0.1095 -0.0935  0.1642
 1139loPI   GL217206  16.733   6.547   6.213  0.3173 -0.0096  0.0287
 1139loPI   C1A17207  16.904   6.102   6.461 -0.0019 -0.0589  0.0548
 1139loPI   C2A17208  16.992   6.056   6.792 -0.0722  0.3170 -0.0133
 1139loPI   C3A17209  17.109   6.132   7.198 -0.0236  0.0109 -0.2122
 1139loPI   C4A17210  17.259   6.103   7.640  0.0332  0.0284 -0.0371
 1139loPI   C5A17211  17.105   6.134   8.030 -0.1106  0.1631  0.0843
 1139loPI   C6A17212  16.725   6.259   8.103 -0.1308  0.1246 -0.2853
 1139loPI   C1B17213  16.882   6.597   6.605  0.0142  0.0359 -0.0187
 1139loPI   C2B17214  16.740   6.612   7.014  0.1281 -0.0854  0.1827
 1139loPI   C3B17215  16.751   6.698   7.395 -0.2206  0.1614 -0.0905
 1139loPI   C4B17216  16.783   6.747   7.913 -0.0351 -0.4211  0.0666
 1140loPI    C117217   1.137   3.624   5.129  0.0266  0.2682 -0.0425
 1140loPI    C217218   1.008   3.284   4.965  0.0869  0.1585  0.1341
 1140loPI    C317219   1.302   3.491   4.790 -0.0850  0.2256 -0.0802
 1140loPI   PO417220   1.092   3.534   5.431  0.0174 -0.1593 -0.0660
 1140loPI   GL117221   1.477   3.343   5.758 -0.0336  0.0422 -0.0907
 1140loPI   GL217222   1.202   3.184   5.817  0.1878 -0.1878 -0.0392
 1140loPI   C1A17223   1.469   3.469   6.145  0.0866  0.1788  0.0095
 1140loPI   C2A17224   1.461   3.500   6.591  0.0367 -0.0442  0.1801
 1140loPI   C3A17225   1.490   3.426   7.006 -0.3394 -0.1496  0.1466
 1140loPI   C4A17226   1.180   3.559   7.388  0.3063  0.0816  0.1273
 1140loPI   C5A17227   1.019   3.642   7.815  0.0814 -0.1849 -0.4109
 1140loPI   C6A17228   0.727   3.875   8.127  0.2377  0.0914  0.1264
 1140loPI   C1B17229   1.316   2.977   6.161  0.0118 -0.0011 -0.2022
 1140loPI   C2B17230   1.306   3.004   6.711 -0.0421  0.0399 -0.0864
 1140loPI   C3B17231   1.374   2.869   7.091 -0.2275 -0.1731  0.1709
 1140loPI   C4B17232   1.567   2.833   7.490  0.0528  0.0917 -0.0860
 1141loPI    C117233   3.981  18.349   5.433  0.0198  0.3156 -0.1951
 1141loPI    C217234   4.363  18.322   5.314  0.0602  0.2010 -0.0420
 1141loPI    C317235   4.240  18.640   5.524  0.1264  0.1320  0.1026
 1141loPI   PO417236   3.961  18.157   5.655 -0.1298  0.1187 -0.0604
 1141loPI   GL117237   3.801  17.946   5.955 -0.1735  0.1543  0.1883
 1141loPI   GL217238   4.109  18.106   6.162 -0.2496  0.1422  0.2036
 1141loPI   C1A17239   3.533  17.907   6.325 -0.3157  0.1888  0.2870
 1141loPI   C2A17240   3.494  17.790   6.879 -0.1006  0.0905 -0.1526
 1141loPI   C3A17241   3.615  17.802   7.309  0.1636 -0.2326 -0.4273
 1141loPI   C4A17242   3.916  17.743   7.609  0.0627 -0.0422 -0.0528
 1141loPI   C5A17243   3.887  17.682   8.048  0.0897 -0.1456 -0.1985
 1141loPI   C6A17244   3.779  17.681   8.389 -0.0242  0.1633 -0.1019
 1141loPI   C1B17245   4.014  18.017   6.527 -0.1970 -0.2013 -0.2928
 1141loPI   C2B17246   3.965  17.969   6.859 -0.0908 -0.0773  0.1479
 1141loPI   C3B17247   4.102  18.079   7.222  0.0366 -0.0435 -0.1943
 1141loPI   C4B17248   3.934  18.392   7.477  0.2446  0.3068 -0.0302
 1142loPI    C117249   2.658   9.312   4.961  0.2369  0.1419  0.0985
 1142loPI    C217250   2.566   9.501   4.621  0.0870 -0.0278  0.0429
 1142loPI    C317251   2.942   9.506   4.757  0.1375  0.0840 -0.0975
 1142loPI   PO417252   2.458   9.380   5.086 -0.2318 -0.1337 -0.0959
 1142loPI   GL117253   2.277   9.479   5.445  0.4301  0.0204 -0.2132
 1142loPI   GL217254   2.299   9.174   5.630 -0.1476  0.0907  0.0850
 1142loPI   C1A17255   2.409   9.640   5.803  0.0297  0.0887  0.1073
 1142loPI   C2A17256   2.359   9.809   6.185 -0.1124 -0.0813 -0.1651
 1142loPI   C3A17257   2.272   9.835   6.738 -0.0368  0.3805  0.3533
 1142loPI   C4A17258   2.232   9.826   7.178  0.1920  0.0160  0.1166
 1142loPI   C5A17259   2.139  10.069   7.596 -0.0567  0.5903  0.0532
 1142loPI   C6A17260   2.544   9.922   7.834 -0.1402 -0.2068  0.0699
 1142loPI   C1B17261   2.073   8.943   5.965 -0.0723  0.0574 -0.1140
 1142loPI   C2B17262   1.749   9.053   6.295  0.3675  0.0630  0.1426
 1142loPI   C3B17263   1.721   8.991   6.730  0.4666 -0.0048  0.4269
 1142loPI   C4B17264   1.358   8.889   6.950 -0.1812 -0.3478  0.4590
 1143loPI    C117265  14.901   7.956   5.308  0.1610  0.1130 -0.2795
 1143loPI    C217266  15.111   7.768   5.024 -0.1095 -0.1931 -0.2824
 1143loPI    C317267  14.714   7.799   4.991 -0.0994  0.1273 -0.1350
 1143loPI   PO417268  14.999   7.868   5.530  0.1648 -0.1210  0.0646
 1143loPI   GL117269  15.269   8.105   5.738  0.1644  0.1241 -0.0826
 1143loPI   GL217270  15.312   7.781   5.887 -0.3290 -0.1724  0.2669
 1143loPI   C1A17271  15.374   8.303   6.147  0.0839 -0.1546  0.2618
 1143loPI   C2A17272  15.341   8.453   6.481 -0.0499  0.0097 -0.1384
 1143loPI   C3A17273  15.434   8.691   6.835 -0.1183  0.1006  0.0869
 1143loPI   C4A17274  15.402   8.922   7.374 -0.1796  0.2540  0.2357
 1143loPI   C5A17275  15.207   9.253   7.610  0.1581 -0.3016  0.3051
 1143loPI   C6A17276  15.005   9.726   7.707  0.0640 -0.1791  0.2649
 1143loPI   C1B17277  15.262   7.572   6.318  0.0243 -0.1866  0.2336
 1143loPI   C2B17278  15.153   7.764   6.634 -0.0928  0.0111  0.2023
 1143loPI   C3B17279  15.155   7.922   6.975  0.3435 -0.2671 -0.1986
 1143loPI   C4B17280  15.105   7.945   7.422  0.0880  0.0681  0.0730
 1144loPI    C117281   8.079  16.191   5.246  0.2497  0.1786  0.0551
 1144loPI    C217282   8.129  15.800   5.314 -0.1131  0.1254  0.0340
 1144loPI    C317283   8.386  15.996   5.079 -0.0223 -0.1360 -0.0887
 1144loPI   PO417284   8.071  16.352   5.530 -0.2203  0.2788 -0.0446
 1144loPI   GL117285   8.182  16.325   5.917  0.5692 -0.0824 -0.1782
 1144loPI   GL217286   8.224  15.948   5.764  0.0778 -0.0575 -0.1714
 1144loPI   C1A17287   8.164  16.362   6.354 -0.1864 -0.0312  0.1395
 1144loPI   C2A17288   8.335  16.075   6.603 -0.0203 -0.0262 -0.1999
 1144loPI   C3A17289   8.470  15.829   6.913  0.1927  0.5127 -0.1823
 1144loPI   C4A17290   8.218  15.551   7.116  0.3701  0.0177  0.0313
 1144loPI   C5A17291   7.946  15.388   7.416 -0.3512  0.2725  0.0974
 1144loPI   C6A17292   7.592  15.687   7.523 -0.1461  0.3587 -0.0328
 1144loPI   C1B17293   8.268  15.859   6.169  0.0182  0.3821  0.1831
 1144loPI   C2B17294   8.134  15.614   6.570  0.0155 -0.1453 -0.1479
 1144loPI   C3B17295   8.039  15.232   6.744  0.0511 -0.0115  0.0481
 1144loPI   C4B17296   7.877  14.795   6.645  0.4745 -0.1577 -0.2441
 1145loPI    C117297  13.866  12.447   5.556  0.1915 -0.0288 -0.0621
 1145loPI    C217298  13.814  12.426   5.161  0.0348  0.0626 -0.0470
 1145loPI    C317299  13.997  12.127   5.354  0.0110 -0.0339 -0.1721
 1145loPI   PO417300  13.669  12.506   5.641 -0.1079 -0.0116 -0.0816
 1145loPI   GL117301  13.674  12.561   6.066  0.3478 -0.0430 -0.4380
 1145loPI   GL217302  13.519  12.762   6.330 -0.0949 -0.1904 -0.1803
 1145loPI   C1A17303  13.893  12.221   6.330 -0.1605 -0.2095  0.2606
 1145loPI   C2A17304  13.858  11.988   6.668 -0.1778 -0.0114 -0.0663
 1145loPI   C3A17305  13.961  11.920   7.071  0.2158  0.1101  0.0121
 1145loPI   C4A17306  14.125  11.885   7.402  0.3201  0.1341  0.0620
 1145loPI   C5A17307  14.473  12.129   7.479 -0.0136  0.2538  0.4112
 1145loPI   C6A17308  14.741  12.412   7.771  0.1986  0.0497  0.1878
 1145loPI   C1B17309  13.472  12.701   6.782  0.0544 -0.1414 -0.1207
 1145loPI   C2B17310  13.527  12.607   7.249  0.0823  0.0397 -0.1710
 1145loPI   C3B17311  13.390  12.536   7.563 -0.1433 -0.1975  0.1439
 1145loPI   C4B17312  13.299  12.127   7.752  0.2050 -0.2764  0.0813
 1146loPI    C117313  12.785   6.188   5.561  0.0131  0.0608  0.0402
 1146loPI    C217314  12.781   6.536   5.364  0.1048  0.0770  0.0664
 1146loPI    C317315  12.719   6.193   5.166 -0.2329  0.1262  0.0807
 1146loPI   PO417316  12.580   6.137   5.713 -0.2876 -0.0147  0.3574
 1146loPI   GL117317  12.395   5.946   6.075  0.1266 -0.2264 -0.1927
 1146loPI   GL217318  12.041   6.129   6.251  0.2070  0.4129  0.3491
 1146loPI   C1A17319  12.406   5.839   6.433  0.0187  0.2168 -0.0845
 1146loPI   C2A17320  12.336   5.913   6.863  0.3932 -0.1089 -0.0825
 1146loPI   C3A17321  12.310   6.034   7.206 -0.1781  0.0424  0.1330
 1146loPI   C4A17322  12.369   6.162   7.708  0.0543 -0.2125  0.1744
 1146loPI   C5A17323  12.086   6.386   7.960  0.1738  0.0643  0.1556
 1146loPI   C6A17324  12.018   6.788   7.936 -0.0037 -0.1127  0.1640
 1146loPI   C1B17325  11.726   6.083   6.589  0.2057 -0.2164  0.1629
 1146loPI   C2B17326  11.794   5.957   7.016 -0.0930  0.1715  0.0612
 1146loPI   C3B17327  11.838   5.995   7.375  0.1026 -0.0343  0.0430
 1146loPI   C4B17328  11.730   6.081   7.734  0.2502  0.2226  0.0945
 1147loPI    C117329  18.376  17.375   4.964 -0.1856  0.0476 -0.1363
 1147loPI    C217330  18.288  17.034   4.773 -0.0261 -0.0166 -0.0970
 1147loPI    C317331  18.644  17.209   4.717  0.0328 -0.0509  0.1617
 1147loPI   PO417332  18.324  17.382   5.138 -0.1659  0.1844 -0.2647
 1147loPI   GL117333  18.233  17.465   5.561 -0.0523 -0.1323  0.0283
 1147loPI   GL217334  18.408  17.685   5.782 -0.3429  0.1328 -0.2198
 1147loPI   C1A17335  18.156  17.279   5.984  0.2711 -0.0798  0.1365
 1147loPI   C2A17336  18.086  17.281   6.408  0.1149  0.0645 -0.2545
 1147loPI   C3A17337  18.059  17.292   6.848  0.0981  0.1545 -0.2082
 1147loPI   C4A17338  17.855  17.406   7.196 -0.1118  0.2592  0.0838
 1147loPI   C5A17339  17.881  17.452   7.632  0.0214  0.1746 -0.0611
 1147loPI   C6A17340  17.599  17.414   7.930 -0.0891 -0.1373  0.1997
 1147loPI   C1B17341  18.440  17.679   6.191 -0.0455  0.3397 -0.1160
 1147loPI   C2B17342  18.482  17.568   6.584  0.2747 -0.0935 -0.2874
 1147loPI   C3B17343  18.499  17.484   6.925 -0.0098  0.0200  0.0030
 1147loPI   C4B17344  18.327  17.462   7.311  0.0386 -0.2727  0.0979
 1148POPI    C117345  10.982  13.614   5.104 -0.0549 -0.1297  0.0354
 1148POPI    C217346  11.304  13.794   4.951 -0.1984  0.1552  0.0614
 1148POPI    C317347  11.070  13.570   4.716 -0.0870  0.1022  0.0003
 1148POPI   PO417348  11.056  13.639   5.370  0.0945 -0.3879 -0.0734
 1148POPI   GL117349  11.085  13.793   5.723  0.0282  0.0461 -0.1338
 1148POPI   GL217350  11.086  13.559   5.992  0.0054  0.1814  0.2834
 1148POPI   C1A17351  11.018  14.087   6.088 -0.1815  0.1030  0.2286
 1148POPI   D2A17352  11.047  13.966   6.539 -0.3620 -0.2591  0.2454
 1148POPI   C3A17353  11.006  13.952   6.985 -0.1276  0.1003  0.1072
 1148POPI   C4A17354  11.103  13.903   7.346  0.1458  0.0076 -0.0218
 1148POPI   C1B17355  11.167  13.500   6.428 -0.1403  0.0266 -0.1169
 1148POPI   C2B17356  11.259  13.418   6.767 -0.1485 -0.0689 -0.1656
 1148POPI   C3B17357  11.218  13.348   7.193 -0.0749 -0.0477 -0.3505
 1148POPI   C4B17358  11.283  13.466   7.565  0.0774 -0.0232  0.2874
 1149POPI    C117359   9.473   8.859   5.404 -0.0101  0.0014  0.2480
 1149POPI    C217360   9.647   9.153   5.196  0.1432 -0.1778  0.1208
 1149POPI    C317361   9.776   8.776   5.157 -0.2652 -0.3141  0.0320
 1149POPI   PO417362   9.425   9.064   5.608  0.3645 -0.0131  0.2697
 1149POPI   GL117363   9.334   9.063   5.999 -0.1616 -0.1109  0.0521
 1149POPI   GL217364   9.347   9.165   6.219  0.1582 -0.2759  0.1002
 1149POPI   C1A17365   9.356   8.680   6.333  0.0094 -0.3070 -0.0095
 1149POPI   D2A17366   9.568   8.563   6.592 -0.2077 -0.0693  0.3809
 1149POPI   C3A17367   9.539   8.344   6.826  0.0852 -0.1831  0.0389
 1149POPI   C4A17368   9.663   8.180   7.176  0.1670 -0.0391 -0.1261
 1149POPI   C1B17369   9.227   9.281   6.670 -0.3911  0.0501  0.2128
 1149POPI   C2B17370   9.078   9.353   6.987  0.0010  0.1843 -0.0433
 1149POPI   C3B17371   9.156   9.424   7.454 -0.1373  0.2661  0.0589
 1149POPI   C4B17372   9.205   9.481   7.983 -0.3068  0.0990  0.1355
 1150POPI    C117373   4.139  14.955   5.121 -0.1749  0.0323  0.0538
 1150POPI    C217374   3.933  14.661   4.944 -0.2242 -0.0460  0.2383
 1150POPI    C317375   4.084  14.960   4.725 -0.3641 -0.0919  0.0772
 1150POPI   PO417376   4.327  14.764   5.287  0.5547 -0.0737  0.3716
 1150POPI   GL117377   4.320  14.910   5.720 -0.2072  0.0505  0.1316
 1150POPI   GL217378   4.626  14.620   5.665 -0.1482  0.2892  0.0585
 1150POPI   C1A17379   4.307  14.933   6.162  0.0447  0.3537  0.3209
 1150POPI   D2A17380   4.530  14.615   6.411  0.1360 -0.0866  0.1134
 1150POPI   C3A17381   4.472  14.864   6.694 -0.3068 -0.0800 -0.1195
 1150POPI   C4A17382   4.603  14.756   7.154  0.0133  0.2838 -0.0963
 1150POPI   C1B17383   4.859  14.710   6.058 -0.1013  0.0875 -0.0978
 1150POPI   C2B17384   4.890  14.927   6.466  0.2668 -0.1106  0.3378
 1150POPI   C3B17385   5.024  14.876   6.726 -0.2650  0.1826  0.2296
 1150POPI   C4B17386   5.100  14.881   7.141 -0.2333  0.0752  0.1032
 1151POPI    C117387  17.988  11.286   5.082 -0.2804 -0.1634  0.0151
 1151POPI    C217388  17.616  11.434   5.067 -0.1769  0.1310  0.2630
 1151POPI    C317389  17.931  11.681   5.049  0.0166 -0.1397 -0.2645
 1151POPI   PO417390  18.026  11.192   5.285 -0.1457  0.0746  0.0745
 1151POPI   GL117391  18.049  10.938   5.662 -0.0365  0.2265 -0.2445
 1151POPI   GL217392  17.985  10.744   5.943 -0.2721 -0.2711 -0.0859
 1151POPI   C1A17393  18.218  11.201   5.998  0.0819 -0.1458  0.1177
 1151POPI   D2A17394  18.028  11.482   6.369  0.1178 -0.0024  0.1899
 1151POPI   C3A17395  18.122  11.594   6.791  0.3188  0.1261 -0.1434
 1151POPI   C4A17396  18.344  11.700   7.145  0.0170 -0.0536  0.1362
 1151POPI   C1B17397  17.957  10.871   6.324  0.2474  0.0836 -0.1153
 1151POPI   C2B17398  18.134  11.108   6.718  0.2462  0.3341 -0.0207
 1151POPI   C3B17399  18.139  11.177   7.186 -0.2278  0.1427 -0.3214
 1151POPI   C4B17400  18.209  10.914   7.559 -0.0470 -0.0436  0.0981
 1152POPI    C117401   9.282  13.345   5.615 -0.0695 -0.1183 -0.0555
 1152POPI    C217402   9.306  13.039   5.358  0.0504  0.0664 -0.2679
 1152POPI    C317403   9.617  13.287   5.403 -0.0377  0.1447 -0.0812
 1152POPI   PO417404   9.221  13.268   5.862 -0.1974  0.1839  0.1944
 1152POPI   GL117405   9.130  12.986   6.112  0.0268 -0.3775  0.1783
 1152POPI   GL217406   9.053  12.735   6.267  0.2176 -0.1164  0.1397
 1152POPI   C1A17407   9.535  12.985   6.418  0.5079  0.1251  0.2329
 1152POPI   D2A17408   9.800  12.635   6.635 -0.3004 -0.2186 -0.0895
 1152POPI   C3A17409   9.708  12.333   6.938  0.0457  0.0275  0.3226
 1152POPI   C4A17410   9.470  12.428   7.285  0.0750 -0.1322 -0.2028
 1152POPI   C1B17411   8.983  13.024   6.675  0.0373 -0.0183  0.0615
 1152POPI   C2B17412   9.007  12.970   7.052  0.0508 -0.1266  0.0929
 1152POPI   C3B17413   8.858  12.855   7.407 -0.2631 -0.2545  0.0931
 1152POPI   C4B17414   9.138  12.644   7.701 -0.4615  0.0594 -0.1741
 1153POPI    C117415  14.605  16.788   5.463 -0.2344 -0.1623  0.1261
 1153POPI    C217416  14.593  16.409   5.334  0.1155 -0.1004 -0.1046
 1153POPI    C317417  14.666  16.706   5.076  0.0847  0.1020  0.1157
 1153POPI   PO417418  14.441  16.815   5.558  0.1513  0.1062 -0.0262
 1153POPI   GL117419  14.302  16.825   5.971 -0.0822 -0.0194 -0.3279
 1153POPI   GL217420  14.009  16.728   5.981 -0.1883  0.0798 -0.0702
 1153POPI   C1A17421  14.364  16.848   6.409  0.0343 -0.1288 -0.1116
 1153POPI   D2A17422  14.212  16.783   6.705 -0.2082  0.0372 -0.0446
 1153POPI   C3A17423  14.540  16.834   7.047  0.1644  0.1269 -0.0180
 1153POPI   C4A17424  14.625  17.168   7.311  0.0876 -0.1839 -0.1169
 1153POPI   C1B17425  14.088  16.422   6.355 -0.0199 -0.0026 -0.1561
 1153POPI   C2B17426  14.226  16.335   6.816 -0.0650  0.1790  0.1097
 1153POPI   C3B17427  14.218  16.456   7.241 -0.0587  0.0260 -0.0058
 1153POPI   C4B17428  14.215  16.389   7.688  0.1756 -0.0647  0.1592
 1154POPI    C117429  11.524   1.575   5.274  0.0658  0.0594  0.1190
 1154POPI    C217430  11.531   1.261   5.026  0.1210  0.1494  0.0054
 1154POPI    C317431  11.793   1.560   4.978  0.0859  0.2008  0.1291
 1154POPI   PO417432  11.475   1.409   5.511 -0.2451 -0.1511  0.2663
 1154POPI   GL117433  11.654   1.316   5.859 -0.2364 -0.0035  0.2013
 1154POPI   GL217434  11.638   0.934   5.905 -0.0822 -0.1342  0.1206
 1154POPI   C1A17435  11.694   1.368   6.392 -0.0626 -0.0938 -0.1045
 1154POPI   D2A17436  11.591   1.459   6.841 -0.2098 -0.2636  0.3345
 1154POPI   C3A17437  11.459   1.240   7.162 -0.0683 -0.2936 -0.4188
 1154POPI   C4A17438  11.120   1.079   7.392  0.0484 -0.4186  0.0357
 1154POPI   C1B17439  11.412   0.960   6.301  0.0923  0.1321  0.2134
 1154POPI   C2B17440  11.242   0.890   6.747 -0.2585  0.0625  0.0576
 1154POPI   C3B17441  11.197   0.674   7.067 -0.1451 -0.1946 -0.4098
 1154POPI   C4B17442  11.177   0.610   7.507 -0.0286  0.1222 -0.1249
 1155POPI    C117443  16.039  10.947   5.212  0.0221  0.0839 -0.2026
 1155POPI    C217444  15.740  10.744   5.385  0.1068  0.1546  0.0301
 1155POPI    C317445  15.705  10.868   5.006 -0.0552 -0.0575 -0.0260
 1155POPI   PO417446  16.043  11.149   5.445 -0.1937  0.0167 -0.2383
 1155POPI   GL117447  15.761  11.378   5.744 -0.2067 -0.3615  0.1849
 1155POPI   GL217448  15.719  11.077   5.793 -0.3080 -0.2085  0.0167
 1155POPI   C1A17449  16.126  11.568   6.032  0.1533  0.1590 -0.0177
 1155POPI   D2A17450  16.051  11.365   6.488 -0.0540  0.2295  0.1575
 1155POPI   C3A17451  15.814  11.422   6.824  0.2666 -0.0359 -0.2040
 1155POPI   C4A17452  15.659  11.403   7.240  0.1169  0.0707 -0.1005
 1155POPI   C1B17453  15.911  10.993   6.187  0.3079  0.0675 -0.2821
 1155POPI   C2B17454  15.757  10.638   6.541  0.2840  0.1369  0.0236
 1155POPI   C3B17455  15.800  10.471   6.923 -0.3493 -0.1145 -0.4033
 1155POPI   C4B17456  15.621  10.135   7.100  0.0278 -0.2896 -0.0060
 1156POPI    C117457  11.024   8.948   6.147 -0.1486  0.0675  0.0664
 1156POPI    C217458  10.652   8.872   6.273 -0.1117 -0.1806  0.0314
 1156POPI    C317459  10.754   8.800   5.892 -0.1264  0.2358 -0.0563
 1156POPI   PO417460  11.123   8.880   6.333  0.1486 -0.0830  0.1595
 1156POPI   GL117461  11.016   8.781   6.721 -0.2747 -0.0397 -0.0559
 1156POPI   GL217462  10.704   8.688   6.749 -0.1979 -0.1400  0.4299
 1156POPI   C1A17463  11.069   8.723   7.171  0.0627 -0.0507  0.0754
 1156POPI   D2A17464  11.157   8.796   7.544  0.2140  0.1914 -0.1029
 1156POPI   C3A17465  11.156   8.932   7.959 -0.0239  0.4899 -0.1106
 1156POPI   C4A17466  11.091   8.770   8.399  0.2045 -0.0601  0.1828
 1156POPI   C1B17467  10.523   8.631   7.129  0.2666 -0.0208  0.0377
 1156POPI   C2B17468  10.212   8.597   7.467  0.2539 -0.0379  0.2201
 1156POPI   C3B17469   9.948   8.422   7.587 -0.1438  0.4715 -0.2163
 1156POPI   C4B17470   9.639   8.439   7.878  0.0664  0.2162  0.3150
 1157POPI    C117471   4.857   8.468   5.483  0.2277 -0.1295  0.0286
 1157POPI    C217472   4.555   8.444   5.221  0.2376  0.2532 -0.0233
 1157POPI    C317473   4.513   8.295   5.590  0.1015  0.0196 -0.1309
 1157POPI   PO417474   4.939   8.699   5.526 -0.0365  0.1166 -0.1124
 1157POPI   GL117475   4.691   8.832   5.819  0.0741 -0.1116 -0.2259
 1157POPI   GL217476   4.846   9.093   5.912 -0.0701 -0.0092 -0.0723
 1157POPI   C1A17477   4.889   8.717   6.222  0.2854 -0.1593  0.1789
 1157POPI   D2A17478   5.226   8.604   6.373 -0.0440  0.0745 -0.3260
 1157POPI   C3A17479   5.424   8.680   6.840 -0.2798 -0.3275 -0.0731
 1157POPI   C4A17480   5.550   8.686   7.238  0.0595 -0.1026 -0.2440
 1157POPI   C1B17481   4.966   9.186   6.343  0.0167 -0.1013 -0.3414
 1157POPI   C2B17482   5.091   8.993   6.679 -0.1181  0.0368 -0.0960
 1157POPI   C3B17483   5.259   9.098   7.104 -0.4552  0.2097 -0.0290
 1157POPI   C4B17484   5.591   9.149   7.513 -0.1460  0.0915  0.0140
 1158POPI    C117485   4.696   7.334   5.279  0.2725  0.1365 -0.1727
 1158POPI    C217486   4.380   7.541   5.147  0.0885  0.0642  0.1436
 1158POPI    C317487   4.622   7.357   4.887 -0.3259 -0.1670 -0.0891
 1158POPI   PO417488   4.648   7.371   5.518  0.0794  0.4325  0.1178
 1158POPI   GL117489   4.482   7.242   5.823 -0.1561  0.0022 -0.1079
 1158POPI   GL217490   4.651   7.157   6.107  0.0192  0.0474 -0.0100
 1158POPI   C1A17491   4.186   6.984   6.098  0.0683  0.1559  0.0893
 1158POPI   D2A17492   3.740   6.790   6.125  0.3019 -0.1837  0.0931
 1158POPI   C3A17493   3.467   6.822   6.560 -0.0768  0.2502  0.0144
 1158POPI   C4A17494   3.719   6.955   6.913 -0.1494 -0.0821  0.0096
 1158POPI   C1B17495   4.463   7.355   6.364 -0.2204 -0.0580 -0.1645
 1158POPI   C2B17496   4.296   7.576   6.585  0.2343  0.1690 -0.3943
 1158POPI   C3B17497   3.930   7.628   6.536  0.2660  0.2540 -0.0959
 1158POPI   C4B17498   3.486   7.794   6.581  0.0519 -0.0612 -0.2874
 1159POPI    C117499   0.196   6.468   5.492 -0.2256 -0.0759  0.0631
 1159POPI    C217500   0.006   6.589   5.162 -0.0577 -0.0101 -0.0104
 1159POPI    C317501  -0.033   6.796   5.502  0.1099  0.1692 -0.0980
 1159POPI   PO417502   0.481   6.517   5.560 -0.1005  0.0449 -0.0261
 1159POPI   GL117503   0.727   6.461   5.889  0.1647  0.1969 -0.1732
 1159POPI   GL217504   0.804   6.756   6.070 -0.5424 -0.0811  0.1104
 1159POPI   C1A17505   0.633   6.330   6.268  0.0032 -0.1040  0.0880
 1159POPI   D2A17506   0.669   6.484   6.608 -0.1363 -0.0932 -0.1450
 1159POPI   C3A17507   0.972   6.646   6.935  0.3554 -0.1113 -0.0456
 1159POPI   C4A17508   0.813   6.644   7.385  0.0849  0.1289 -0.0906
 1159POPI   C1B17509   1.008   6.869   6.398  0.2923 -0.0096 -0.1914
 1159POPI   C2B17510   1.009   7.073   6.745  0.1736  0.2222 -0.0071
 1159POPI   C3B17511   1.069   7.476   7.007  0.0043  0.2318 -0.1051
 1159POPI   C4B17512   1.280   7.511   7.418  0.2148 -0.0646  0.1054
 1160POPI    C117513  13.427   6.209   5.603  0.0366  0.0840  0.1636
 1160POPI    C217514  13.586   6.486   5.362 -0.2078  0.1660  0.0928
 1160POPI    C317515  13.226   6.333   5.280 -0.0066 -0.2970  0.0395
 1160POPI   PO417516  13.660   6.167   5.812  0.0578 -0.4922  0.1115
 1160POPI   GL117517  13.742   6.299   6.211 -0.2511  0.0032 -0.0146
 1160POPI   GL217518  14.024   6.371   6.115 -0.2470  0.3211  0.1596
 1160POPI   C1A17519  13.518   6.277   6.648  0.1526  0.1923 -0.1615
 1160POPI   D2A17520  13.219   6.090   6.856 -0.1694  0.2687 -0.0394
 1160POPI   C3A17521  13.241   6.209   7.229 -0.2424  0.0920 -0.1683
 1160POPI   C4A17522  13.215   6.041   7.654 -0.1214 -0.2020  0.0132
 1160POPI   C1B17523  14.061   6.224   6.616  0.1996 -0.2709 -0.0044
 1160POPI   C2B17524  13.856   6.248   6.998 -0.2189 -0.1736  0.1224
 1160POPI   C3B17525  13.896   6.207   7.408  0.0222 -0.0352  0.2440
 1160POPI   C4B17526  13.993   5.824   7.652 -0.2164 -0.1073  0.0514
 1161POPI    C117527   9.990   4.281   5.087  0.3580  0.0881 -0.1191
 1161POPI    C217528   9.998   3.886   5.150  0.2882  0.0937 -0.0750
 1161POPI    C317529   9.899   4.030   4.790 -0.2074  0.0813  0.0493
 1161POPI   PO417530   9.828   4.402   5.341  0.1237 -0.2445  0.1765
 1161POPI   GL117531   9.954   4.428   5.784 -0.0867 -0.1357 -0.0289
 1161POPI   GL217532  10.230   4.159   5.637  0.1773  0.1335 -0.1054
 1161POPI   C1A17533   9.985   4.529   6.272  0.2678  0.0784 -0.2815
 1161POPI   D2A17534  10.114   4.471   6.685 -0.1876  0.2044  0.1270
 1161POPI   C3A17535   9.969   4.126   6.914  0.1129  0.2611  0.1876
 1161POPI   C4A17536   9.826   3.933   7.286  0.1899 -0.0734  0.2636
 1161POPI   C1B17537  10.210   4.121   6.060 -0.1450  0.1582  0.0692
 1161POPI   C2B17538  10.319   4.115   6.444 -0.1126  0.0441 -0.3522
 1161POPI   C3B17539  10.358   3.850   6.848  0.0961  0.0028 -0.2270
 1161POPI   C4B17540  10.373   3.920   7.326 -0.1604 -0.1973 -0.0037
 1162POPI    C117541  14.360  13.270   5.667  0.1414 -0.2725 -0.1185
 1162POPI    C217542  14.038  13.382   5.457  0.1727  0.0316 -0.0092
 1162POPI    C317543  14.210  13.028   5.386 -0.0354 -0.0256 -0.2407
 1162POPI   PO417544  14.286  13.263   5.931 -0.0736  0.0834  0.2148
 1162POPI   GL117545  14.273  13.150   6.250  0.0281  0.0834 -0.2296
 1162POPI   GL217546  14.256  13.421   6.413 -0.2320  0.1442  0.1478
 1162POPI   C1A17547  14.033  12.800   6.435  0.1359 -0.2734  0.0645
 1162POPI   D2A17548  13.945  12.508   6.791  0.1337 -0.0068 -0.0813
 1162POPI   C3A17549  13.927  12.387   7.255 -0.3303  0.5063 -0.2585
 1162POPI   C4A17550  13.842  12.194   7.669 -0.3980 -0.2133 -0.0150
 1162POPI   C1B17551  14.255  13.188   6.755 -0.1769  0.0284  0.2845
 1162POPI   C2B17552  14.238  13.115   7.213  0.0787  0.0517 -0.0708
 1162POPI   C3B17553  14.197  13.145   7.682  0.1213  0.1253  0.3608
 1162POPI   C4B17554  14.235  13.221   8.036 -0.1668 -0.1097  0.0709
 1163POPI    C117555   3.170   7.559   5.408  0.3407  0.0079  0.0462
 1163POPI    C217556   3.163   7.588   5.009  0.4898  0.0382  0.0451
 1163POPI    C317557   2.950   7.843   5.232  0.2466 -0.1050 -0.0199
 1163POPI   PO417558   3.091   7.369   5.506  0.1679 -0.2128  0.1978
 1163POPI   GL117559   2.868   7.279   5.899  0.1002  0.1416 -0.0005
 1163POPI   GL217560   2.816   7.053   6.031  0.1356  0.2319 -0.2021
 1163POPI   C1A17561   2.617   7.520   6.190  0.0447  0.1773 -0.2916
 1163POPI   D2A17562   2.493   7.664   6.640  0.0896  0.0594  0.0597
 1163POPI   C3A17563   2.694   7.812   7.054 -0.1679  0.0095 -0.2640
 1163POPI   C4A17564   2.864   7.856   7.493 -0.0813  0.2969 -0.0441
 1163POPI   C1B17565   2.835   7.145   6.485 -0.1504 -0.2697 -0.0495
 1163POPI   C2B17566   3.044   7.169   6.963  0.0534  0.3028  0.0560
 1163POPI   C3B17567   3.359   7.266   7.288  0.0718 -0.3256  0.1724
 1163POPI   C4B17568   3.745   7.139   7.380  0.0357  0.0317  0.2142
 1164POPI    C117569   3.599  15.033   4.910  0.0212 -0.0127 -0.1717
 1164POPI    C217570   3.301  15.221   4.721 -0.1029 -0.1371 -0.1018
 1164POPI    C317571   3.639  15.134   4.525 -0.0541  0.1343 -0.1416
 1164POPI   PO417572   3.635  15.133   5.149 -0.1354 -0.1689  0.1641
 1164POPI   GL117573   3.513  15.069   5.595  0.0614 -0.1034 -0.1445
 1164POPI   GL217574   3.810  14.828   5.531  0.4608  0.0602  0.0005
 1164POPI   C1A17575   3.245  15.065   5.972  0.0834 -0.1014  0.2766
 1164POPI   D2A17576   3.084  15.120   6.337 -0.0007  0.1949  0.0214
 1164POPI   C3A17577   2.861  15.113   6.809  0.1115 -0.2166 -0.2761
 1164POPI   C4A17578   2.884  15.235   7.172 -0.2482 -0.1393 -0.1225
 1164POPI   C1B17579   3.798  14.910   5.956 -0.3214 -0.2188  0.0985
 1164POPI   C2B17580   3.624  15.100   6.307  0.1235 -0.3361  0.3585
 1164POPI   C3B17581   3.382  15.273   6.743  0.1407 -0.2785  0.1114
 1164POPI   C4B17582   3.388  15.251   7.185 -0.2641  0.0068 -0.1924
 1165POPI    C117583   7.576   9.674   5.820 -0.0130  0.3104 -0.2017
 1165POPI    C217584   7.566   9.442   5.494  0.0078  0.1584 -0.0952
 1165POPI    C317585   7.323   9.759   5.521 -0.1676  0.0304 -0.1536
 1165POPI   PO417586   7.738   9.465   5.973 -0.1460 -0.0295  0.1702
 1165POPI   GL117587   7.599   9.190   6.294  0.0624 -0.1653  0.2228
 1165POPI   GL217588   7.265   9.266   6.388  0.0190  0.0569 -0.0948
 1165POPI   C1A17589   7.668   9.297   6.769  0.0692  0.0540  0.5125
 1165POPI   D2A17590   7.932   9.532   7.023  0.2416 -0.0076 -0.3227
 1165POPI   C3A17591   7.745   9.798   7.318  0.3851  0.0859  0.0405
 1165POPI   C4A17592   7.640   9.763   7.800  0.1341  0.1918  0.3072
 1165POPI   C1B17593   7.209   9.011   6.710  0.0822  0.0184  0.1427
 1165POPI   C2B17594   6.932   9.047   7.097  0.2093  0.3660  0.1493
 1165POPI   C3B17595   6.977   9.204   7.516 -0.0791 -0.1603  0.2549
 1165POPI   C4B17596   6.910   9.030   7.916  0.0099 -0.1301  0.3706
 1166POPI    C117597   5.369   0.851   5.209 -0.0900  0.1526  0.1521
 1166POPI    C217598   5.621   1.105   5.387 -0.0118  0.1885 -0.0079
 1166POPI    C317599   5.728   0.921   5.049 -0.0904 -0.0144  0.0760
 1166POPI   PO417600   5.208   0.825   5.486  0.0718  0.0741 -0.0073
 1166POPI   GL117601   5.263   0.746   5.893  0.0001 -0.1615  0.0013
 1166POPI   GL217602   5.349   0.474   5.951  0.2806  0.1028  0.1775
 1166POPI   C1A17603   5.115   0.509   6.359 -0.1639  0.1942  0.1181
 1166POPI   D2A17604   5.199   0.435   6.743 -0.1451  0.0601  0.0167
 1166POPI   C3A17605   5.582   0.482   7.062 -0.0606  0.0507 -0.0470
 1166POPI   C4A17606   5.630   0.469   7.476 -0.4401 -0.1817 -0.0534
 1166POPI   C1B17607   5.467   0.188   6.209  0.0225 -0.1026  0.1202
 1166POPI   C2B17608   5.680   0.267   6.614 -0.1850 -0.3007 -0.2624
 1166POPI   C3B17609   6.120   0.052   6.753  0.0759  0.4201  0.0138
 1166POPI   C4B17610   6.226   0.024   7.161 -0.1183 -0.0870  0.0781
 1167POPI    C117611   1.612   2.695   5.024 -0.0282  0.1090  0.2070
 1167POPI    C217612   1.338   2.926   4.845  0.1265  0.0497 -0.1134
 1167POPI    C317613   1.723   2.954   4.740  0.1388 -0.3987 -0.2054
 1167POPI   PO417614   1.440   2.608   5.184 -0.0123  0.1225 -0.0235
 1167POPI   GL117615   1.393   2.616   5.637 -0.2621  0.0038  0.2032
 1167POPI   GL217616   1.568   2.841   5.604  0.2971  0.3263  0.2554
 1167POPI   C1A17617   1.025   2.692   5.820 -0.0388 -0.1489  0.1707
 1167POPI   D2A17618   0.817   2.659   6.194  0.0897 -0.0395  0.0372
 1167POPI   C3A17619   0.881   2.779   6.517  0.2087  0.0260  0.0125
 1167POPI   C4A17620   0.913   2.800   6.925 -0.1129  0.2677 -0.2018
 1167POPI   C1B17621   1.806   2.927   6.058  0.0985  0.2476 -0.1250
 1167POPI   C2B17622   1.781   3.114   6.412  0.1171  0.1993  0.0212
 1167POPI   C3B17623   1.927   3.131   6.832  0.2333  0.2285  0.1945
 1167POPI   C4B17624   2.035   3.098   7.216  0.0187  0.1965 -0.2012
 1168POPI    C117625  16.232   5.862   5.814 -0.0062 -0.0323 -0.0680
 1168POPI    C217626  16.363   5.959   5.448 -0.1357 -0.0351 -0.1156
 1168POPI    C317627  16.113   5.651   5.495 -0.0447 -0.0941 -0.0127
 1168POPI   PO417628  16.397   5.864   5.979 -0.2509  0.1925 -0.1538
 1168POPI   GL117629  16.636   5.589   6.225  0.1366 -0.0271 -0.0097
 1168POPI   GL217630  16.954   5.633   6.153 -0.3606 -0.1257  0.1330
 1168POPI   C1A17631  16.686   5.568   6.579 -0.0993  0.2082 -0.1300
 1168POPI   D2A17632  16.814   5.664   7.054 -0.0782 -0.3287 -0.1322
 1168POPI   C3A17633  16.486   5.665   7.368 -0.3087 -0.3421  0.0062
 1168POPI   C4A17634  16.214   6.001   7.456  0.0323 -0.2757  0.4296
 1168POPI   C1B17635  17.266   5.741   6.467 -0.4814 -0.0336  0.2309
 1168POPI   C2B17636  17.297   5.636   6.908  0.3153 -0.0488  0.2593
 1168POPI   C3B17637  17.314   5.644   7.401  0.1743  0.0025  0.0096
 1168POPI   C4B17638  17.483   5.586   7.897 -0.3921 -0.0633  0.0857
 1169POPI    C117639   5.085   3.151   4.963  0.2037 -0.0805 -0.1549
 1169POPI    C217640   5.144   2.761   4.898 -0.1479 -0.1555 -0.0466
 1169POPI    C317641   4.819   2.941   4.751 -0.0839  0.0548  0.0645
 1169POPI   PO417642   5.057   3.219   5.335  0.0703  0.1359 -0.0358
 1169POPI   GL117643   5.248   3.281   5.745 -0.0892  0.2022 -0.2239
 1169POPI   GL217644   5.392   3.545   5.672  0.1149 -0.0857  0.2420
 1169POPI   C1A17645   5.459   3.178   6.116 -0.4478 -0.2862  0.1941
 1169POPI   D2A17646   5.539   3.256   6.573  0.0647  0.2837 -0.0448
 1169POPI   C3A17647   5.182   3.240   6.727 -0.0902 -0.0203 -0.0471
 1169POPI   C4A17648   4.751   3.025   6.851 -0.3209  0.1428  0.2604
 1169POPI   C1B17649   5.613   3.691   6.068  0.3088  0.0823  0.2962
 1169POPI   C2B17650   5.718   3.732   6.526 -0.0939  0.2296  0.3116
 1169POPI   C3B17651   5.656   3.910   6.968 -0.1466  0.2293  0.3115
 1169POPI   C4B17652   5.696   3.742   7.361 -0.2283  0.1161 -0.1664
 1170POPI    C117653   0.189   7.166   5.237 -0.0424  0.1002  0.0050
 1170POPI    C217654  -0.170   7.276   5.376 -0.1960 -0.1673 -0.1694
 1170POPI    C317655  -0.032   7.432   5.035  0.2351  0.5837  0.3183
 1170POPI   PO417656   0.332   7.173   5.511  0.3211 -0.2437  0.1322
 1170POPI   GL117657   0.363   6.966   5.968 -0.0625 -0.0130  0.0294
 1170POPI   GL217658   0.272   6.617   5.977 -0.0716  0.0295 -0.0228
 1170POPI   C1A17659   0.408   6.921   6.399 -0.0785  0.0336  0.1713
 1170POPI   D2A17660   0.491   6.941   6.809  0.1658 -0.0096 -0.0767
 1170POPI   C3A17661   0.690   7.076   7.178  0.0742 -0.3443 -0.0870
 1170POPI   C4A17662   0.888   7.161   7.494 -0.0091 -0.2241  0.0957
 1170POPI   C1B17663   0.140   6.469   6.383 -0.1534 -0.3463 -0.2963
 1170POPI   C2B17664   0.134   6.473   6.813  0.0650  0.0866  0.1027
 1170POPI   C3B17665   0.342   6.675   7.177  0.1803 -0.1222 -0.0554
 1170POPI   C4B17666   0.280   6.922   7.479  0.0148 -0.0054 -0.0425
 1171POPI    C117667   3.651  10.518   4.952 -0.3063  0.1307  0.3910
 1171POPI    C217668   3.866  10.855   4.953 -0.1969  0.0645  0.0877
 1171POPI    C317669   3.679  10.738   4.619 -0.1748 -0.2124  0.1701
 1171POPI   PO417670   3.545  10.553   5.226 -0.1791  0.0487  0.5312
 1171POPI   GL117671   3.276  10.625   5.627 -0.1436  0.3020 -0.0713
 1171POPI   GL217672   3.455  10.382   5.726  0.0427  0.2204 -0.4754
 1171POPI   C1A17673   3.405  10.814   5.987  0.0363  0.0963 -0.2340
 1171POPI   D2A17674   3.452  10.868   6.452 -0.1998 -0.0220  0.1476
 1171POPI   C3A17675   3.486  11.231   6.650  0.0949 -0.0788  0.0656
 1171POPI   C4A17676   3.248  11.444   6.982 -0.0699 -0.0114  0.1376
 1171POPI   C1B17677   3.589  10.365   6.170  0.0311  0.2361 -0.3150
 1171POPI   C2B17678   3.591  10.376   6.540  0.0834 -0.1705 -0.2416
 1171POPI   C3B17679   3.491  10.444   6.966  0.1634 -0.2443  0.0905
 1171POPI   C4B17680   3.689  10.475   7.336  0.1694  0.1847  0.0839
 1172POPI    C117681   8.900   5.886   5.937  0.2024  0.1351  0.3143
 1172POPI    C217682   9.095   5.862   5.588 -0.1297 -0.0916  0.1384
 1172POPI    C317683   9.015   6.219   5.748 -0.0235  0.0154 -0.0443
 1172POPI   PO417684   8.984   5.718   6.160  0.0585  0.0636  0.1327
 1172POPI   GL117685   8.672   5.670   6.416 -0.2728 -0.5074  0.3192
 1172POPI   GL217686   8.417   5.388   6.441  0.1847 -0.1997  0.0409
 1172POPI   C1A17687   8.684   5.883   6.836 -0.3749  0.1059  0.1169
 1172POPI   D2A17688   8.608   5.833   7.248 -0.1603 -0.1103 -0.2576
 1172POPI   C3A17689   8.766   6.145   7.512 -0.2500  0.0565 -0.1966
 1172POPI   C4A17690   8.668   6.519   7.769  0.0675  0.2904  0.1727
 1172POPI   C1B17691   8.543   5.398   6.869 -0.0146 -0.0968  0.5091
 1172POPI   C2B17692   8.392   5.303   7.158  0.2701 -0.3845 -0.0957
 1172POPI   C3B17693   8.297   5.564   7.534 -0.2779  0.3077  0.0006
 1172POPI   C4B17694   8.016   5.732   7.963  0.1333  0.0821 -0.0853
 1173POPI    C117695  15.058   8.689   5.157  0.0601 -0.0859  0.0314
 1173POPI    C217696  15.117   8.960   4.869 -0.0382 -0.1129 -0.0149
 1173POPI    C317697  15.313   8.611   4.859  0.0578 -0.0606  0.0228
 1173POPI   PO417698  15.082   8.775   5.380 -0.2813 -0.0016  0.5267
 1173POPI   GL117699  15.010   8.962   5.782  0.2098  0.1386  0.1745
 1173POPI   GL217700  14.718   9.074   5.816 -0.0360  0.0778  0.2123
 1173POPI   C1A17701  15.206   9.153   6.083 -0.2305 -0.2320 -0.3771
 1173POPI   D2A17702  15.284   9.009   6.376  0.0945 -0.1607  0.1528
 1173POPI   C3A17703  15.238   9.222   6.719  0.2597  0.0704  0.1782
 1173POPI   C4A17704  15.305   9.346   7.133  0.0716 -0.2391 -0.4047
 1173POPI   C1B17705  14.750   9.027   6.255 -0.2323  0.0838  0.2493
 1173POPI   C2B17706  14.734   8.897   6.634  0.3083 -0.0156  0.0657
 1173POPI   C3B17707  14.859   8.902   7.015 -0.2729  0.0898 -0.2125
 1173POPI   C4B17708  14.880   8.826   7.580 -0.1649  0.0408  0.0699
 1174POPI    C117709  14.630  10.040   5.069 -0.0635 -0.0590 -0.1251
 1174POPI    C217710  14.385  10.153   4.773 -0.1102  0.0297 -0.0532
 1174POPI    C317711  14.740   9.991   4.687 -0.0849  0.1392 -0.1580
 1174POPI   PO417712  14.520  10.169   5.296 -0.0954 -0.0941 -0.1432
 1174POPI   GL117713  14.576  10.278   5.675 -0.1783 -0.0303  0.0174
 1174POPI   GL217714  14.397  10.633   5.813 -0.0359  0.0979 -0.1466
 1174POPI   C1A17715  14.704  10.027   5.973 -0.0183  0.1046  0.1667
 1174POPI   D2A17716  15.163   9.880   5.973 -0.3956 -0.0672 -0.0494
 1174POPI   C3A17717  15.305   9.980   6.331  0.1878  0.1862 -0.1507
 1174POPI   C4A17718  15.484  10.225   6.623 -0.3023  0.0259  0.1759
 1174POPI   C1B17719  14.393  10.374   6.177 -0.0095 -0.2631 -0.1826
 1174POPI   C2B17720  14.300  10.422   6.672 -0.0783 -0.1219  0.1556
 1174POPI   C3B17721  14.438  10.358   7.034  0.0299  0.0720 -0.2759
 1174POPI   C4B17722  14.521  10.170   7.433  0.1494 -0.1329  0.1786
 1175POPI    C117723  14.563   2.341   4.813 -0.0558 -0.1153  0.2382
 1175POPI    C217724  14.172   2.415   4.777  0.0177  0.1525 -0.0548
 1175POPI    C317725  14.439   2.680   4.640  0.3034 -0.0324  0.1340
 1175POPI   PO417726  14.483   2.274   5.138 -0.3292 -0.0791 -0.2022
 1175POPI   GL117727  14.302   1.985   5.409  0.2017  0.3131 -0.0549
 1175POPI   GL217728  14.561   1.739   5.562  0.0460  0.2097  0.1765
 1175POPI   C1A17729  14.083   2.164   5.790  0.1986 -0.0712  0.0642
 1175POPI   D2A17730  13.958   2.137   6.235 -0.1771 -0.3389  0.2355
 1175POPI   C3A17731  14.082   2.298   6.615  0.0938  0.0714 -0.1397
 1175POPI   C4A17732  14.283   2.414   6.898  0.0760  0.0026 -0.1254
 1175POPI   C1B17733  14.527   1.498   5.989 -0.0943  0.1549 -0.1676
 1175POPI   C2B17734  14.524   1.089   6.237  0.0026 -0.1167  0.0986
 1175POPI   C3B17735  14.556   0.993   6.644  0.0670  0.1068  0.2190
 1175POPI   C4B17736  14.773   0.817   7.066  0.1286  0.1574  0.2830
 1176POPI    C117737   6.073  16.135   5.096  0.0057  0.0671  0.0649
 1176POPI    C217738   6.194  15.762   5.016 -0.0209  0.0781 -0.0275
 1176POPI    C317739   6.130  16.020   4.717 -0.2422  0.0819  0.0217
 1176POPI   PO417740   6.147  16.058   5.378 -0.0363  0.2779  0.3495
 1176POPI   GL117741   6.363  16.215   5.690 -0.2010 -0.2186  0.1772
 1176POPI   GL217742   6.481  16.507   5.877  0.0972  0.1029 -0.0890
 1176POPI   C1A17743   6.415  16.000   6.105  0.0020  0.0024 -0.3256
 1176POPI   D2A17744   6.436  15.943   6.542 -0.1687 -0.1921 -0.1362
 1176POPI   C3A17745   6.451  16.293   6.655 -0.0806 -0.3062  0.0073
 1176POPI   C4A17746   6.458  16.479   7.094  0.0978 -0.0014 -0.2436
 1176POPI   C1B17747   6.692  16.517   6.252 -0.2114 -0.0120  0.0377
 1176POPI   C2B17748   6.909  16.625   6.571  0.1300 -0.1319  0.2601
 1176POPI   C3B17749   6.920  16.746   7.037 -0.2934  0.1636 -0.0932
 1176POPI   C4B17750   6.866  16.674   7.485 -0.0881 -0.1504  0.2560
 1177POPI    C117751  11.213   7.614   5.724  0.1276 -0.1345  0.2153
 1177POPI    C217752  11.454   7.351   5.542  0.2498 -0.0091  0.1944
 1177POPI    C317753  11.557   7.737   5.560 -0.1505  0.1230 -0.1918
 1177POPI   PO417754  11.176   7.492   5.913 -0.1226 -0.0391  0.1351
 1177POPI   GL117755  11.101   7.411   6.428  0.1875  0.2806 -0.0654
 1177POPI   GL217756  11.487   7.555   6.498 -0.0810 -0.1707  0.2549
 1177POPI   C1A17757  11.002   7.396   6.915 -0.1385  0.6411  0.0753
 1177POPI   D2A17758  10.870   7.217   7.220 -0.0987 -0.2698  0.1302
 1177POPI   C3A17759  10.569   7.219   7.433  0.1255  0.0002 -0.1051
 1177POPI   C4A17760  10.319   7.221   7.787 -0.1812 -0.1031  0.1373
 1177POPI   C1B17761  11.513   7.493   6.967  0.2031  0.2016  0.1320
 1177POPI   C2B17762  11.727   7.756   7.246 -0.1842 -0.2157  0.1875
 1177POPI   C3B17763  11.890   8.125   7.521  0.0546 -0.1316  0.2455
 1177POPI   C4B17764  11.735   8.213   7.886 -0.1209 -0.0599 -0.1735
 1178POPI    C117765  11.287  11.184   5.527  0.1275  0.2379  0.0172
 1178POPI    C217766  11.437  11.437   5.256  0.0716  0.0583 -0.1838
 1178POPI    C317767  11.122  11.209   5.164 -0.0617  0.1263  0.0942
 1178POPI   PO417768  11.406  11.356   5.826  0.0980  0.0104 -0.0271
 1178POPI   GL117769  11.310  11.674   6.180  0.2222 -0.3487  0.2178
 1178POPI   GL217770  11.016  11.845   6.223  0.1664  0.2857 -0.0891
 1178POPI   C1A17771  11.585  11.819   6.524  0.2031  0.0856 -0.2041
 1178POPI   D2A17772  11.654  11.710   7.051  0.0224  0.1284 -0.0571
 1178POPI   C3A17773  11.776  11.783   7.489  0.0070 -0.0817  0.1931
 1178POPI   C4A17774  11.647  11.720   7.945  0.0705 -0.1856 -0.1299
 1178POPI   C1B17775  11.157  12.086   6.472  0.0704  0.4565 -0.0280
 1178POPI   C2B17776  11.157  12.369   6.857  0.2730 -0.1046 -0.1783
 1178POPI   C3B17777  10.980  12.396   7.295 -0.1972  0.1984 -0.1648
 1178POPI   C4B17778  11.007  12.487   7.715 -0.3012 -0.2075 -0.0159
 1179POPI    C117779   6.286  17.690   5.131  0.0750  0.1380 -0.1480
 1179POPI    C217780   6.552  17.398   5.195  0.2182  0.2805 -0.0841
 1179POPI    C317781   6.303  17.378   4.882 -0.2397 -0.2460  0.2931
 1179POPI   PO417782   6.106  17.721   5.351  0.1470 -0.3388 -0.1650
 1179POPI   GL117783   5.923  17.573   5.725  0.1682 -0.1223 -0.0873
 1179POPI   GL217784   6.320  17.420   5.674 -0.0966  0.3341  0.2128
 1179POPI   C1A17785   5.832  17.354   6.026  0.3278  0.0338 -0.2073
 1179POPI   D2A17786   5.487  17.191   6.266 -0.0201  0.1616  0.1001
 1179POPI   C3A17787   5.583  17.241   6.637 -0.2013  0.3857  0.2486
 1179POPI   C4A17788   5.380  17.319   6.955 -0.0615  0.0743 -0.2759
 1179POPI   C1B17789   6.384  17.557   6.121 -0.1286  0.0537  0.0858
 1179POPI   C2B17790   6.389  17.405   6.556 -0.3021  0.0457 -0.0019
 1179POPI   C3B17791   6.308  17.412   7.020 -0.0269  0.0457  0.3241
 1179POPI   C4B17792   6.156  17.544   7.497  0.0252  0.1141  0.2627
 1180POPI    C117793   8.895  14.640   5.027  0.1021  0.0840 -0.0072
 1180POPI    C217794   9.173  14.732   4.754  0.0860  0.2571  0.0336
 1180POPI    C317795   8.785  14.745   4.657  0.0919 -0.0302 -0.0369
 1180POPI   PO417796   9.022  14.739   5.246  0.0877 -0.0701  0.0175
 1180POPI   GL117797   8.955  14.762   5.649 -0.0894  0.2029 -0.1471
 1180POPI   GL217798   8.900  14.922   5.958 -0.0421 -0.1618 -0.1922
 1180POPI   C1A17799   9.048  14.466   5.934  0.2363 -0.3002 -0.0912
 1180POPI   D2A17800   9.119  14.468   6.331 -0.4031 -0.2858  0.0256
 1180POPI   C3A17801   9.295  14.863   6.458 -0.0499  0.1215 -0.1391
 1180POPI   C4A17802   9.280  15.036   6.832  0.0320 -0.0243 -0.0768
 1180POPI   C1B17803   8.761  14.922   6.390 -0.3842 -0.0158 -0.0525
 1180POPI   C2B17804   8.830  14.792   6.820  0.2928  0.0641  0.2126
 1180POPI   C3B17805   9.109  14.744   7.186  0.0326 -0.1149 -0.1029
 1180POPI   C4B17806   9.355  14.820   7.638  0.1123 -0.0071 -0.0381
 1181POPI    C117807   5.861   9.698   5.215 -0.2737  0.0102  0.1952
 1181POPI    C217808   5.931   9.964   4.925  0.1966  0.0152  0.3052
 1181POPI    C317809   5.743   9.621   4.840  0.0816  0.1377  0.0532
 1181POPI   PO417810   6.107   9.736   5.326 -0.0394 -0.0551  0.2556
 1181POPI   GL117811   6.096   9.693   5.695 -0.0696  0.2262 -0.1672
 1181POPI   GL217812   6.383   9.634   5.872 -0.4555 -0.1732 -0.2879
 1181POPI   C1A17813   5.858   9.755   6.054 -0.0969  0.3600  0.0253
 1181POPI   D2A17814   5.802   9.955   6.461 -0.1263  0.0442  0.3304
 1181POPI   C3A17815   5.796  10.098   6.876 -0.1734  0.1622  0.0986
 1181POPI   C4A17816   5.834  10.028   7.272 -0.1323  0.3177  0.0864
 1181POPI   C1B17817   6.451   9.612   6.358  0.2087 -0.1388  0.1868
 1181POPI   C2B17818   6.248   9.805   6.679 -0.0932  0.0770  0.1539
 1181POPI   C3B17819   6.311   9.795   7.110  0.0865 -0.1534  0.1866
 1181POPI   C4B17820   6.317   9.911   7.523  0.2399  0.0119 -0.0764
 1182POPI    C117821   1.080   8.332   4.657  0.0856 -0.2621  0.1408
 1182POPI    C217822   0.695   8.330   4.551  0.1650  0.0605 -0.1745
 1182POPI    C317823   0.978   8.381   4.274  0.4229  0.0882  0.0896
 1182POPI   PO417824   1.119   8.230   4.945 -0.0496  0.2097  0.0062
 1182POPI   GL117825   0.994   8.048   5.399  0.1348  0.0063  0.2055
 1182POPI   GL217826   0.824   8.392   5.458  0.0878  0.2052  0.0308
 1182POPI   C1A17827   0.745   7.914   5.829  0.2706 -0.1152  0.2646
 1182POPI   D2A17828   0.356   7.599   5.949  0.2567 -0.0037 -0.0915
 1182POPI   C3A17829   0.334   7.387   6.240  0.1153  0.4925  0.2927
 1182POPI   C4A17830   0.166   7.379   6.586  0.0175 -0.1631 -0.3440
 1182POPI   C1B17831   0.620   8.680   5.676  0.4198 -0.2157  0.2110
 1182POPI   C2B17832   0.451   8.681   6.056 -0.0570 -0.2059  0.1735
 1182POPI   C3B17833   0.346   8.732   6.499  0.2527 -0.0668  0.1567
 1182POPI   C4B17834   0.357   8.829   6.909  0.0975  0.1865  0.2428
 1183POPI    C117835   8.707   9.901   5.360 -0.1009 -0.0062  0.0501
 1183POPI    C217836   8.861   9.583   5.172 -0.0197  0.0518  0.0180
 1183POPI    C317837   8.748   9.904   4.962  0.0084  0.0902  0.0614
 1183POPI   PO417838   8.589   9.723   5.595 -0.0255  0.0569 -0.0295
 1183POPI   GL117839   8.374   9.591   6.033 -0.0716  0.0306 -0.1671
 1183POPI   GL217840   8.117   9.571   6.237 -0.0818  0.1155 -0.0564
 1183POPI   C1A17841   8.513   9.855   6.274 -0.2660 -0.1588  0.0111
 1183POPI   D2A17842   8.530   9.973   6.666  0.1718  0.1690  0.1555
 1183POPI   C3A17843   8.333   9.830   7.045  0.0421  0.1233  0.1329
 1183POPI   C4A17844   8.202   9.723   7.437  0.0618 -0.2759  0.0409
 1183POPI   C1B17845   8.039   9.719   6.625  0.1940 -0.1318  0.2265
 1183POPI   C2B17846   7.842   9.970   6.820 -0.1975 -0.4628  0.0131
 1183POPI   C3B17847   8.014  10.244   7.017 -0.2415  0.2352  0.1833
 1183POPI   C4B17848   7.996  10.185   7.450  0.1119  0.0380  0.1096
 1184POPI    C117849   8.844  13.785   5.344  0.0241 -0.1685 -0.0727
 1184POPI    C217850   8.475  13.938   5.324  0.0209 -0.1803 -0.1043
 1184POPI    C317851   8.610  13.702   5.031  0.0139 -0.2647 -0.0400
 1184POPI   PO417852   8.890  13.764   5.671  0.1876 -0.1210 -0.0766
 1184POPI   GL117853   9.107  13.945   5.946  0.1159 -0.0773  0.1688
 1184POPI   GL217854   9.312  13.736   6.123 -0.0048  0.0701 -0.0218
 1184POPI   C1A17855   8.998  14.017   6.417  0.1164  0.0786  0.2155
 1184POPI   D2A17856   9.101  14.248   6.788 -0.1487  0.2142 -0.0217
 1184POPI   C3A17857   9.044  14.037   7.040 -0.1803 -0.1557  0.2175
 1184POPI   C4A17858   9.111  13.723   7.330 -0.0528 -0.2351  0.0222
 1184POPI   C1B17859   9.144  13.478   6.421  0.0924  0.0950 -0.3415
 1184POPI   C2B17860   9.049  13.519   6.836 -0.0103  0.0192 -0.0284
 1184POPI   C3B17861   8.815  13.351   7.270  0.2464 -0.2862 -0.0241
 1184POPI   C4B17862   8.854  13.249   7.660  0.0428  0.0345 -0.0892
 1185POPI    C117863   3.425  13.414   5.195  0.1207 -0.0134 -0.1288
 1185POPI    C217864   3.409  13.696   5.477 -0.1315 -0.1401 -0.0126
 1185POPI    C317865   3.518  13.792   5.105  0.2043  0.0280  0.1244
 1185POPI   PO417866   3.605  13.247   5.221  0.3120 -0.1321 -0.2619
 1185POPI   GL117867   3.829  13.311   5.554 -0.0550 -0.3750  0.0538
 1185POPI   GL217868   3.849  13.578   5.683  0.0836  0.0206  0.1064
 1185POPI   C1A17869   3.683  13.077   5.900  0.2734 -0.0202 -0.0159
 1185POPI   D2A17870   3.678  12.824   6.240 -0.2679 -0.1864  0.1142
 1185POPI   C3A17871   3.823  12.944   6.653  0.1573 -0.3497 -0.0132
 1185POPI   C4A17872   3.716  13.019   7.082 -0.3447 -0.1561 -0.1486
 1185POPI   C1B17873   3.732  13.570   6.140 -0.0477 -0.2370  0.2085
 1185POPI   C2B17874   3.781  13.443   6.482 -0.0851 -0.2677 -0.0710
 1185POPI   C3B17875   3.767  13.576   6.932 -0.0646 -0.1827  0.0893
 1185POPI   C4B17876   3.897  13.457   7.282 -0.1676  0.2458 -0.4694
 1186POPI    C117877  11.131  14.207   5.355  0.0559 -0.2949  0.1736
 1186POPI    C217878  10.782  14.161   5.545 -0.0134  0.0013  0.1231
 1186POPI    C317879  10.817  14.052   5.162 -0.0650  0.0196  0.1131
 1186POPI   PO417880  11.344  14.061   5.418  0.1343 -0.3209  0.0244
 1186POPI   GL117881  11.532  13.964   5.897  0.1669  0.0809 -0.1887
 1186POPI   GL217882  11.599  13.695   6.006  0.6433 -0.0639 -0.1828
 1186POPI   C1A17883  11.497  14.293   6.217  0.2199 -0.2504  0.0357
 1186POPI   D2A17884  11.434  14.317   6.648  0.1790  0.1022  0.1148
 1186POPI   C3A17885  11.448  14.288   7.070  0.3079  0.0371 -0.2646
 1186POPI   C4A17886  11.585  13.935   7.373  0.0370  0.1959 -0.0227
 1186POPI   C1B17887  11.598  13.773   6.408  0.1398 -0.0362  0.1710
 1186POPI   C2B17888  11.546  13.839   6.827 -0.1184  0.1164 -0.0803
 1186POPI   C3B17889  11.724  13.623   6.990 -0.0546  0.3093 -0.2482
 1186POPI   C4B17890  12.137  13.733   7.193  0.2687 -0.0144  0.0769
 1187POPI    C117891   7.598  16.486   5.138 -0.1173 -0.0549  0.1668
 1187POPI    C217892   7.851  16.726   5.333  0.1109 -0.2303  0.0908
 1187POPI    C317893   7.933  16.611   4.959 -0.3101  0.0828 -0.1057
 1187POPI   PO417894   7.303  16.625   5.208 -0.1225  0.0642 -0.3484
 1187POPI   GL117895   7.351  16.842   5.580  0.2100 -0.1205  0.0256
 1187POPI   GL217896   7.594  16.512   5.668 -0.0969  0.2091 -0.0204
 1187POPI   C1A17897   7.297  17.061   5.893 -0.2876 -0.1700 -0.0273
 1187POPI   D2A17898   7.278  17.187   6.276 -0.0318 -0.4496  0.1990
 1187POPI   C3A17899   6.880  17.230   6.364 -0.0414 -0.0654 -0.1279
 1187POPI   C4A17900   6.534  16.962   6.565  0.1614 -0.2265  0.2108
 1187POPI   C1B17901   7.728  16.568   6.109  0.2264  0.1290  0.0634
 1187POPI   C2B17902   7.797  16.649   6.558 -0.3954 -0.1251 -0.2494
 1187POPI   C3B17903   7.868  16.433   6.931  0.0595  0.1130 -0.1995
 1187POPI   C4B17904   8.264  16.356   7.064 -0.1846 -0.1757 -0.1137
 1188POPI    C117905  14.816   7.299   4.994 -0.0483  0.0498 -0.2135
 1188POPI    C217906  15.051   7.007   5.135 -0.1547 -0.0579 -0.2578
 1188POPI    C317907  15.203   7.287   4.893 -0.0170  0.0139 -0.0906
 1188POPI   PO417908  14.724   7.388   5.273  0.0973  0.0898 -0.1331
 1188POPI   GL117909  14.871   7.470   5.707  0.0427 -0.1201 -0.1931
 1188POPI   GL217910  14.882   7.563   5.974  0.0965  0.0049 -0.1035
 1188POPI   C1A17911  14.943   7.105   6.151  0.2582 -0.0366  0.0177
 1188POPI   D2A17912  15.089   7.221   6.616  0.4942 -0.2762 -0.2112
 1188POPI   C3A17913  15.176   7.047   6.978 -0.0920 -0.2780 -0.0314
 1188POPI   C4A17914  15.370   6.794   7.264 -0.1484  0.2313 -0.2173
 1188POPI   C1B17915  14.789   7.579   6.412 -0.1971  0.2368 -0.0180
 1188POPI   C2B17916  14.780   7.548   6.884  0.2108  0.0001  0.0210
 1188POPI   C3B17917  15.178   7.507   7.194 -0.1357 -0.1922 -0.0049
 1188POPI   C4B17918  15.206   7.253   7.489 -0.0187 -0.0688 -0.2952
 1189POPI    C117919  15.025   5.894   5.844  0.0142  0.0676  0.0128
 1189POPI    C217920  14.651   5.779   5.928 -0.1144  0.3359 -0.1804
 1189POPI    C317921  14.834   5.640   5.601 -0.0148  0.1430 -0.0438
 1189POPI   PO417922  15.011   6.186   5.842 -0.0133 -0.1194  0.0066
 1189POPI   GL117923  14.664   6.253   6.116  0.1272  0.1989  0.0790
 1189POPI   GL217924  14.967   6.310   6.334  0.2285 -0.1815 -0.1715
 1189POPI   C1A17925  14.551   6.219   6.550  0.1384  0.0805 -0.2828
 1189POPI   D2A17926  14.372   6.407   7.000  0.3782 -0.0495  0.0306
 1189POPI   C3A17927  14.274   6.542   7.442  0.1173  0.0477  0.0954
 1189POPI   C4A17928  13.945   6.836   7.702 -0.1252  0.3507 -0.2347
 1189POPI   C1B17929  15.265   6.174   6.585 -0.1226 -0.1146 -0.1853
 1189POPI   C2B17930  15.454   5.758   6.835 -0.0338 -0.1435 -0.0516
 1189POPI   C3B17931  15.532   5.428   7.176 -0.2864 -0.1778  0.0572
 1189POPI   C4B17932  15.701   5.227   7.507  0.1168  0.3688  0.0608
 1190POPI    C117933  14.192   4.254   5.093 -0.2187  0.0101  0.0762
 1190POPI    C217934  14.450   4.066   4.852 -0.0094 -0.0101  0.3124
 1190POPI    C317935  14.423   4.465   4.844  0.0387 -0.0071  0.2963
 1190POPI   PO417936  14.222   4.117   5.319  0.0056  0.1501 -0.0731
 1190POPI   GL117937  14.072   4.192   5.588 -0.1194 -0.0199  0.1715
 1190POPI   GL217938  13.888   3.946   5.788 -0.0413  0.0742 -0.1276
 1190POPI   C1A17939  14.186   4.345   6.042  0.1622  0.3641 -0.0761
 1190POPI   D2A17940  14.465   4.463   6.265 -0.2816  0.3489 -0.0374
 1190POPI   C3A17941  14.315   4.454   6.703 -0.0705 -0.0974  0.2110
 1190POPI   C4A17942  14.510   4.557   7.030 -0.2479  0.1368 -0.0219
 1190POPI   C1B17943  13.872   4.079   6.244  0.0596  0.2449  0.0508
 1190POPI   C2B17944  13.926   4.176   6.660  0.4138  0.0254  0.0266
 1190POPI   C3B17945  14.043   4.367   7.106  0.1693 -0.0166 -0.0839
 1190POPI   C4B17946  14.064   4.582   7.490 -0.1694  0.1394  0.1143
 1191POPI    C117947  16.590  17.266   5.433 -0.4404  0.2292 -0.4653
 1191POPI    C217948  16.423  16.908   5.497  0.2790 -0.0405  0.0353
 1191POPI    C317949  16.560  17.002   5.133  0.0546 -0.2578 -0.1084
 1191POPI   PO417950  16.747  17.349   5.666  0.1551  0.2315  0.0324
 1191POPI   GL117951  16.609  17.656   5.930 -0.0620  0.0017 -0.0153
 1191POPI   GL217952  16.572  17.916   5.749 -0.1200 -0.2189 -0.1856
 1191POPI   C1A17953  16.898  17.547   6.268  0.0108 -0.0560 -0.0699
 1191POPI   D2A17954  17.151  17.558   6.591 -0.0140 -0.2614  0.0412
 1191POPI   C3A17955  16.938  17.638   6.957 -0.0454 -0.2846 -0.1555
 1191POPI   C4A17956  16.990  17.585   7.400 -0.0362  0.2222  0.1605
 1191POPI   C1B17957  16.461  18.182   6.260  0.0305 -0.2438  0.1410
 1191POPI   C2B17958  16.079  18.162   6.393 -0.0723 -0.0983  0.1100
 1191POPI   C3B17959  15.727  18.026   6.168 -0.1702  0.0879 -0.1485
 1191POPI   C4B17960  15.324  17.865   6.237 -0.1700  0.2827  0.1038
 1192POPI    C117961  16.070  11.617   5.311 -0.0155 -0.1593 -0.0325
 1192POPI    C217962  16.219  11.677   4.945  0.0793 -0.1950 -0.0001
 1192POPI    C317963  16.365  11.384   5.174  0.1237 -0.0775  0.1236
 1192POPI   PO417964  16.047  11.885   5.442  0.0803  0.2447  0.1635
 1192POPI   GL117965  15.855  12.017   5.807 -0.0129  0.0766  0.1784
 1192POPI   GL217966  15.694  12.234   5.892  0.0272 -0.0649 -0.0776
 1192POPI   C1A17967  15.564  11.819   6.103  0.1769 -0.1804  0.3611
 1192POPI   D2A17968  15.590  11.775   6.581 -0.0325  0.1101  0.0296
 1192POPI   C3A17969  15.349  11.508   6.791  0.1891 -0.0116 -0.0186
 1192POPI   C4A17970  15.183  11.563   7.219 -0.0570  0.0497 -0.0377
 1192POPI   C1B17971  15.850  12.167   6.272  0.1612  0.0443  0.0315
 1192POPI   C2B17972  15.746  12.223   6.719  0.1353  0.3003 -0.3283
 1192POPI   C3B17973  15.840  12.343   7.195 -0.0711 -0.1606  0.0014
 1192POPI   C4B17974  15.790  12.576   7.562  0.0782 -0.3131 -0.2014
 1193POPI    C117975  10.687   8.224   5.852  0.1405 -0.0464  0.1106
 1193POPI    C217976  11.008   8.056   5.682  0.0642  0.0183 -0.1010
 1193POPI    C317977  10.838   8.377   5.515 -0.0759  0.0200  0.0423
 1193POPI   PO417978  10.758   8.308   6.096  0.3036  0.0826  0.3741
 1193POPI   GL117979  10.999   8.186   6.432  0.2743  0.1071 -0.0411
 1193POPI   GL217980  11.256   7.988   6.616 -0.0458 -0.0209 -0.0458
 1193POPI   C1A17981  10.925   8.270   6.924 -0.0723 -0.2891  0.0535
 1193POPI   D2A17982  10.901   8.320   7.434  0.1515  0.3615  0.0141
 1193POPI   C3A17983  10.626   8.725   7.634 -0.0572  0.2421 -0.2090
 1193POPI   C4A17984  10.375   8.729   7.899  0.1074 -0.0997  0.1269
 1193POPI   C1B17985  11.397   8.411   6.666 -0.2103 -0.3798 -0.0435
 1193POPI   C2B17986  11.486   8.728   6.929  0.0780  0.4001 -0.2483
 1193POPI   C3B17987  11.626   8.814   7.339  0.0314  0.0616  0.0717
 1193POPI   C4B17988  11.588   8.689   7.770  0.1383 -0.1378 -0.1576
 1194POPI    C117989  10.963  17.554   5.420 -0.1846  0.1219 -0.1244
 1194POPI    C217990  11.060  17.375   5.075 -0.0374 -0.1441  0.0512
 1194POPI    C317991  10.748  17.243   5.288 -0.0191 -0.0952  0.1085
 1194POPI   PO417992  11.139  17.734   5.413  0.2156 -0.3540  0.1234
 1194POPI   GL117993  11.419  17.859   5.666 -0.3408  0.0273 -0.0995
 1194POPI   GL217994  11.200  18.054   5.818  0.0480  0.2881  0.0621
 1194POPI   C1A17995  11.289  17.537   5.978  0.0259  0.1819 -0.1513
 1194POPI   D2A17996  11.365  17.281   6.207  0.2505  0.1051  0.0437
 1194POPI   C3A17997  11.297  17.528   6.634 -0.0792  0.1879  0.0979
 1194POPI   C4A17998  11.249  17.581   7.081  0.2974  0.2416  0.1046
 1194POPI   C1B17999  11.321  17.961   6.301 -0.1095  0.0356  0.1077
 1194POPI   C2B18000  11.401  18.060   6.694  0.0561  0.2386  0.0683
 1194POPI   C3B18001  11.461  18.088   7.111  0.2589  0.0531  0.2566
 1194POPI   C4B18002  11.598  17.751   7.398  0.2084  0.0536 -0.1729
 1195POPI    C118003  16.073   4.755   5.610  0.0790  0.0521 -0.0501
 1195POPI    C218004  15.931   4.516   5.323 -0.1174 -0.0012  0.0898
 1195POPI    C318005  16.154   4.833   5.226  0.0059 -0.1460 -0.1070
 1195POPI   PO418006  15.960   4.595   5.839  0.1969 -0.0602  0.0374
 1195POPI   GL118007  15.937   4.552   6.250 -0.1402 -0.1605  0.4621
 1195POPI   GL218008  16.005   4.872   6.221 -0.2058  0.2861  0.1827
 1195POPI   C1A18009  15.780   4.498   6.721 -0.1316 -0.0467  0.3878
 1195POPI   D2A18010  15.580   4.471   7.024 -0.2673 -0.0064 -0.6338
 1195POPI   C3A18011  15.428   4.839   7.262  0.2379 -0.0265 -0.1291
 1195POPI   C4A18012  15.101   5.006   7.515 -0.1160 -0.0581  0.1657
 1195POPI   C1B18013  16.217   4.736   6.642 -0.1285  0.0002  0.1894
 1195POPI   C2B18014  16.407   4.706   7.038  0.0316  0.2243 -0.0422
 1195POPI   C3B18015  16.459   4.812   7.426 -0.1407  0.1584 -0.2091
 1195POPI   C4B18016  16.551   4.905   7.933 -0.0405 -0.0794 -0.0001
 1196POPI    C118017  13.543  17.050   5.310  0.0277  0.2214 -0.0508
 1196POPI    C218018  13.399  17.028   4.938 -0.1322 -0.2326  0.0312
 1196POPI    C318019  13.755  16.867   5.024  0.0037  0.0622  0.0318
 1196POPI   PO418020  13.565  17.255   5.423 -0.2533 -0.3053 -0.0733
 1196POPI   GL118021  13.384  17.479   5.768 -0.2385 -0.2526  0.2504
 1196POPI   GL218022  13.495  17.757   5.668 -0.0372  0.2165 -0.1083
 1196POPI   C1A18023  13.385  17.685   6.224  0.2989  0.1117  0.0884
 1196POPI   D2A18024  13.627  17.790   6.484  0.0317 -0.1090 -0.0243
 1196POPI   C3A18025  13.542  17.743   6.975  0.1106 -0.1513  0.1013
 1196POPI   C4A18026  13.184  17.698   7.217  0.4101  0.1065  0.0520
 1196POPI   C1B18027  13.725  17.875   5.940  0.0598  0.0406  0.0398
 1196POPI   C2B18028  13.912  18.189   6.178 -0.0690 -0.1643 -0.0526
 1196POPI   C3B18029  14.062  18.186   6.578 -0.0306  0.0986 -0.0447
 1196POPI   C4B18030  13.892  18.265   7.060  0.2806  0.0435 -0.1227
 1197POPI    C118031   5.255   6.570   5.230  0.0335  0.0365  0.0172
 1197POPI    C218032   5.598   6.771   5.185  0.1509 -0.1536  0.0529
 1197POPI    C318033   5.580   6.382   5.092 -0.0684 -0.1337  0.0064
 1197POPI   PO418034   5.175   6.631   5.522  0.1665  0.0327 -0.1426
 1197POPI   GL118035   5.123   6.690   5.991  0.0094  0.0196  0.0371
 1197POPI   GL218036   5.385   6.513   5.918  0.5300  0.2522 -0.0172
 1197POPI   C1A18037   4.986   6.758   6.396 -0.0948 -0.1961  0.0722
 1197POPI   D2A18038   4.558   6.871   6.604 -0.0152 -0.2358  0.1357
 1197POPI   C3A18039   4.598   7.328   6.880 -0.4160  0.0019 -0.0081
 1197POPI   C4A18040   4.857   7.565   7.138  0.0883 -0.1450 -0.0291
 1197POPI   C1B18041   5.550   6.327   6.251  0.1388  0.0141  0.0149
 1197POPI   C2B18042   5.582   6.256   6.526  0.0924 -0.0218  0.0890
 1197POPI   C3B18043   5.606   6.171   6.948 -0.3825 -0.1187  0.1849
 1197POPI   C4B18044   5.657   5.875   7.259  0.4953  0.0688 -0.1515
 1198DPPI    C118045   5.505   2.431   5.455  0.0137  0.0065 -0.1095
 1198DPPI    C218046   5.566   2.132   5.197  0.2502 -0.0033 -0.0448
 1198DPPI    C318047   5.542   2.509   5.064 -0.1357 -0.0555 -0.1367
 1198DPPI   PO418048   5.728   2.377   5.596  0.0996 -0.0272  0.0520
 1198DPPI   GL118049   5.704   2.099   5.912  0.1262  0.0144  0.3517
 1198DPPI   GL218050   5.748   1.878   5.915  0.0005 -0.0876 -0.1031
 1198DPPI   C1A18051   5.714   1.998   6.355  0.1180  0.2509 -0.2217
 1198DPPI   C2A18052   5.739   1.837   6.729 -0.0026 -0.1594 -0.1323
 1198DPPI   C3A18053   5.628   1.906   7.240  0.1435 -0.0157  0.2338
 1198DPPI   C4A18054   5.420   2.145   7.619 -0.0803 -0.0418  0.0028
 1198DPPI   C1B18055   5.343   1.765   6.192  0.0314 -0.0870  0.1659
 1198DPPI   C2B18056   5.425   1.408   6.497 -0.0263  0.2143 -0.0398
 1198DPPI   C3B18057   5.511   1.418   6.955  0.0575  0.2394  0.2178
 1198DPPI   C4B18058   5.470   1.143   7.326  0.2218  0.0849  0.2311
 1199DPPI    C118059   4.547  13.806   5.105  0.1382  0.1447  0.1116
 1199DPPI    C218060   4.681  14.132   4.915  0.0012  0.1008 -0.0627
 1199DPPI    C318061   4.412  13.893   4.738 -0.0230 -0.0174  0.1309
 1199DPPI   PO418062   4.640  13.866   5.356 -0.1363  0.0619 -0.3711
 1199DPPI   GL118063   4.592  14.081   5.713 -0.2445  0.1744 -0.1637
 1199DPPI   GL218064   4.881  14.162   5.680 -0.1265 -0.0326 -0.0344
 1199DPPI   C1A18065   4.463  14.098   6.108  0.1506  0.0123 -0.1669
 1199DPPI   C2A18066   4.364  14.151   6.624  0.0733  0.3454  0.1618
 1199DPPI   C3A18067   4.421  14.161   7.070 -0.1301  0.0789  0.1291
 1199DPPI   C4A18068   4.509  14.341   7.446  0.0543  0.0233  0.1386
 1199DPPI   C1B18069   4.992  14.172   6.074 -0.0937 -0.1235  0.0967
 1199DPPI   C2B18070   4.850  14.262   6.426 -0.3426 -0.1557 -0.1165
 1199DPPI   C3B18071   4.827  14.451   6.839  0.0766  0.1689  0.1257
 1199DPPI   C4B18072   4.964  14.352   7.178 -0.0559  0.0426 -0.1497
 1200DPPI    C118073   9.590   6.206   5.871  0.1764 -0.0502 -0.0527
 1200DPPI    C218074   9.502   6.515   6.110 -0.1355 -0.3007  0.1635
 1200DPPI    C318075   9.412   6.532   5.721  0.1947  0.0295  0.0964
 1200DPPI   PO418076   9.378   6.013   6.020  0.2091 -0.1218  0.0620
 1200DPPI   GL118077   9.366   5.916   6.361 -0.1087  0.1219  0.0773
 1200DPPI   GL218078   9.175   5.887   6.629  0.0686  0.2129  0.2051
 1200DPPI   C1A18079   9.572   5.700   6.716  0.1894  0.0070 -0.0331
 1200DPPI   C2A18080   9.637   5.370   6.925  0.2255  0.1722  0.4516
 1200DPPI   C3A18081   9.582   5.179   7.294  0.2404 -0.3018 -0.2352
 1200DPPI   C4A18082   9.295   5.195   7.639 -0.1173  0.1470  0.1041
 1200DPPI   C1B18083   9.117   5.782   7.074  0.0730 -0.0296  0.0129
 1200DPPI   C2B18084   9.063   5.676   7.494 -0.0887  0.0746 -0.0342
 1200DPPI   C3B18085   8.843   5.768   7.867 -0.2311 -0.2407 -0.1665
 1200DPPI   C4B18086   8.582   5.828   8.173  0.4327  0.1076  0.0460
 1201DPPI    C118087  12.750   9.943   5.393  0.1070  0.0350  0.1337
 1201DPPI    C218088  12.768   9.620   5.628 -0.0834 -0.0127  0.0843
 1201DPPI    C318089  12.715   9.578   5.234  0.2698  0.0657  0.0252
 1201DPPI   PO418090  12.616  10.074   5.542 -0.0210  0.3121 -0.0454
 1201DPPI   GL118091  12.878  10.199   5.838 -0.2020  0.0647  0.2337
 1201DPPI   GL218092  13.104  10.017   5.789 -0.0979 -0.0404 -0.0858
 1201DPPI   C1A18093  12.966  10.282   6.235 -0.0318  0.0312 -0.1531
 1201DPPI   C2A18094  13.129  10.295   6.576 -0.0363  0.0502  0.0657
 1201DPPI   C3A18095  13.383  10.194   6.914  0.0319  0.0141  0.0847
 1201DPPI   C4A18096  13.690  10.067   7.178  0.2790  0.2905  0.0914
 1201DPPI   C1B18097  13.402   9.957   6.199  0.3063 -0.1366  0.2996
 1201DPPI   C2B18098  13.606   9.908   6.575  0.1617  0.2989 -0.0827
 1201DPPI   C3B18099  13.594   9.664   6.941  0.0565 -0.2083 -0.0095
 1201DPPI   C4B18100  13.842   9.649   7.367 -0.0433  0.0830 -0.0294
 1202DPPI    C118101   1.871   8.619   4.980 -0.1445  0.0882 -0.0303
 1202DPPI    C218102   1.597   8.460   4.736  0.0489 -0.1250 -0.1115
 1202DPPI    C318103   1.919   8.642   4.584  0.1005 -0.1359 -0.0156
 1202DPPI   PO418104   1.707   8.730   5.173  0.0490 -0.2498 -0.0554
 1202DPPI   GL118105   1.903   8.849   5.488 -0.1459  0.1735 -0.1254
 1202DPPI   GL218106   1.875   8.566   5.736 -0.0303 -0.0385  0.1296
 1202DPPI   C1A18107   1.742   9.123   5.668  0.0646 -0.2256 -0.3689
 1202DPPI   C2A18108   1.958   9.413   5.924  0.2299  0.0150 -0.0484
 1202DPPI   C3A18109   1.995   9.475   6.422 -0.2341 -0.2163 -0.0318
 1202DPPI   C4A18110   1.817   9.683   6.851  0.1425 -0.3099 -0.1919
 1202DPPI   C1B18111   1.905   8.545   6.227  0.3220  0.1431  0.2876
 1202DPPI   C2B18112   1.715   8.473   6.747 -0.3028  0.1503 -0.1177
 1202DPPI   C3B18113   1.817   8.317   7.131 -0.1495  0.2267 -0.1077
 1202DPPI   C4B18114   1.927   8.476   7.568  0.1357  0.2522 -0.0247
 1203DPPI    C118115  15.941  16.421   5.228  0.2077 -0.0145  0.1465
 1203DPPI    C218116  16.309  16.518   5.103  0.0540  0.2866 -0.0880
 1203DPPI    C318117  16.164  16.151   5.036  0.3355  0.1428  0.0715
 1203DPPI   PO418118  15.943  16.581   5.486  0.1154  0.0703  0.1510
 1203DPPI   GL118119  16.001  16.578   5.925 -0.1458 -0.2347 -0.1546
 1203DPPI   GL218120  16.159  16.800   5.997  0.0612 -0.2274 -0.0307
 1203DPPI   C1A18121  16.053  16.338   6.312 -0.0312  0.0358 -0.2828
 1203DPPI   C2A18122  15.958  16.134   6.752  0.1977 -0.0575  0.0792
 1203DPPI   C3A18123  16.071  16.144   7.230 -0.0069  0.0590 -0.0819
 1203DPPI   C4A18124  15.982  16.071   7.667 -0.2182 -0.1332 -0.2226
 1203DPPI   C1B18125  15.921  16.820   6.423  0.1856 -0.0085  0.0459
 1203DPPI   C2B18126  15.956  16.633   6.867 -0.1576  0.1545  0.2003
 1203DPPI   C3B18127  16.000  16.611   7.266  0.2405  0.1824  0.0363
 1203DPPI   C4B18128  15.930  16.638   7.770 -0.0025  0.4390  0.0090
 1204DPPI    C118129   9.912  14.548   5.283  0.1309 -0.0520  0.0034
 1204DPPI    C218130   9.848  14.857   5.036 -0.0858 -0.0629  0.0438
 1204DPPI    C318131  10.178  14.633   4.996 -0.0244  0.0534 -0.1109
 1204DPPI   PO418132   9.797  14.620   5.446  0.3656 -0.1511 -0.3329
 1204DPPI   GL118133   9.920  14.628   5.854  0.3175 -0.1648 -0.1894
 1204DPPI   GL218134   9.646  14.661   5.912 -0.0298  0.1877 -0.1237
 1204DPPI   C1A18135  10.172  14.676   6.210  0.1686  0.2245 -0.0187
 1204DPPI   C2A18136  10.140  14.698   6.723  0.1952 -0.1127 -0.3610
 1204DPPI   C3A18137   9.954  14.691   7.040 -0.0787  0.2805 -0.2585
 1204DPPI   C4A18138   9.974  14.705   7.365 -0.0858 -0.2162 -0.1513
 1204DPPI   C1B18139   9.688  14.588   6.335 -0.0886 -0.3646 -0.2842
 1204DPPI   C2B18140   9.557  14.605   6.767 -0.0826 -0.1499 -0.0415
 1204DPPI   C3B18141   9.547  14.383   7.195 -0.2483  0.0725 -0.1778
 1204DPPI   C4B18142   9.598  14.382   7.658  0.0326 -0.4285 -0.1657
 1205DPPI    C118143  17.772   5.782   5.587 -0.1938  0.0155  0.1307
 1205DPPI    C218144  17.908   5.848   5.217 -0.3270  0.0462  0.0865
 1205DPPI    C318145  17.922   5.479   5.372  0.1470  0.1150  0.2232
 1205DPPI   PO418146  17.847   5.992   5.759 -0.0149 -0.0873 -0.0884
 1205DPPI   GL118147  17.703   6.212   6.112 -0.2917 -0.2024  0.0220
 1205DPPI   GL218148  17.828   6.444   6.102 -0.0544 -0.1103 -0.0198
 1205DPPI   C1A18149  17.864   5.852   6.373 -0.0481 -0.0423 -0.1311
 1205DPPI   C2A18150  18.007   5.558   6.739 -0.1518 -0.1986 -0.0920
 1205DPPI   C3A18151  18.136   5.400   7.084 -0.2701 -0.2569  0.2346
 1205DPPI   C4A18152  18.161   5.547   7.426  0.0249 -0.3282 -0.3151
 1205DPPI   C1B18153  18.003   6.438   6.459  0.2089  0.1923  0.2554
 1205DPPI   C2B18154  18.016   6.494   6.944 -0.0798  0.1094  0.2331
 1205DPPI   C3B18155  18.361   6.323   7.285 -0.1219  0.0461  0.0373
 1205DPPI   C4B18156  18.464   6.550   7.701  0.1118  0.2572  0.1158
 1206DPPI    C118157   5.858   0.360   4.823  0.0715  0.1050  0.0092
 1206DPPI    C218158   5.494   0.396   4.987  0.1299 -0.2435  0.2244
 1206DPPI    C318159   5.560   0.120   4.704  0.1789 -0.0451  0.0400
 1206DPPI   PO418160   6.008   0.416   5.018  0.0702 -0.2225  0.1125
 1206DPPI   GL118161   6.138   0.317   5.458  0.0592  0.0560  0.0582
 1206DPPI   GL218162   6.211   0.521   5.664  0.1453 -0.1092  0.0627
 1206DPPI   C1A18163   6.257   0.126   5.931  0.0736 -0.0214 -0.0017
 1206DPPI   C2A18164   6.415   0.097   6.294 -0.1358 -0.3124 -0.0843
 1206DPPI   C3A18165   6.636  -0.117   6.699 -0.0590 -0.2573  0.4210
 1206DPPI   C4A18166   6.806  -0.253   7.063 -0.3033 -0.0182 -0.3257
 1206DPPI   C1B18167   6.026   0.470   6.140 -0.0916 -0.3081 -0.1218
 1206DPPI   C2B18168   6.128   0.544   6.545 -0.0299  0.4438  0.0380
 1206DPPI   C3B18169   6.081   0.471   6.982 -0.4519 -0.3072  0.2852
 1206DPPI   C4B18170   6.117   0.492   7.391 -0.1939 -0.2355 -0.1915
 1207DPPI    C118171   5.942   7.041   5.414 -0.1816 -0.0321 -0.0801
 1207DPPI    C218172   6.257   7.235   5.261 -0.0634 -0.2201 -0.0775
 1207DPPI    C318173   6.031   7.003   5.026 -0.2935  0.0345 -0.1129
 1207DPPI   PO418174   6.064   6.829   5.640  0.1986  0.0488  0.0249
 1207DPPI   GL118175   5.958   6.926   6.012 -0.1389 -0.2370 -0.1499
 1207DPPI   GL218176   5.899   6.576   6.031  0.0849 -0.0488  0.2710
 1207DPPI   C1A18177   5.522   6.873   6.224 -0.3572  0.1467 -0.1044
 1207DPPI   C2A18178   5.393   6.749   6.696  0.0199 -0.0410  0.1028
 1207DPPI   C3A18179   5.288   6.666   7.222 -0.1388  0.1420  0.0669
 1207DPPI   C4A18180   5.391   6.486   7.677 -0.1666 -0.0353 -0.3216
 1207DPPI   C1B18181   5.884   6.736   6.521 -0.1596  0.2980 -0.0426
 1207DPPI   C2B18182   5.801   6.632   6.944  0.0946  0.2100 -0.0127
 1207DPPI   C3B18183   5.807   6.499   7.389 -0.0875  0.0365  0.3910
 1207DPPI   C4B18184   5.948   6.463   7.771 -0.0437 -0.4621 -0.3746
 1208DPPI    C118185  13.378   0.974   4.840 -0.0717  0.0190 -0.0652
 1208DPPI    C218186  13.012   0.927   4.995  0.0150  0.0409  0.1495
 1208DPPI    C318187  13.188   0.624   4.803 -0.0387 -0.0309  0.2133
 1208DPPI   PO418188  13.360   1.279   5.015 -0.1823  0.0229 -0.0047
 1208DPPI   GL118189  13.395   1.256   5.497  0.2679 -0.0330 -0.3720
 1208DPPI   GL218190  13.181   0.995   5.467  0.2122  0.0705 -0.1976
 1208DPPI   C1A18191  13.480   1.354   5.954 -0.0288 -0.1435  0.1346
 1208DPPI   C2A18192  13.553   1.496   6.303 -0.2004 -0.1739  0.1162
 1208DPPI   C3A18193  13.506   1.544   6.672 -0.1610 -0.1258  0.2763
 1208DPPI   C4A18194  13.651   1.587   7.068  0.1949 -0.0353 -0.1257
 1208DPPI   C1B18195  12.979   1.149   5.865 -0.0308  0.4778 -0.1261
 1208DPPI   C2B18196  13.084   1.283   6.346  0.0528  0.0938  0.2858
 1208DPPI   C3B18197  13.028   1.366   6.735  0.1126  0.0838  0.2105
 1208DPPI   C4B18198  12.751   1.432   7.036  0.1203 -0.0181  0.0149
 1209DPPI    C118199   5.405   3.955   4.748  0.1028  0.2727  0.0809
 1209DPPI    C218200   5.671   4.193   4.568 -0.1000  0.3291 -0.1486
 1209DPPI    C318201   5.279   4.249   4.508 -0.1559  0.0685 -0.0387
 1209DPPI   PO418202   5.421   3.952   4.981  0.0125 -0.1363 -0.1449
 1209DPPI   GL118203   5.577   3.937   5.397 -0.3233  0.0052 -0.2467
 1209DPPI   GL218204   5.620   4.065   5.648 -0.0825 -0.1150 -0.0382
 1209DPPI   C1A18205   5.176   4.028   5.800 -0.3136 -0.0417 -0.3327
 1209DPPI   C2A18206   5.026   4.134   6.232  0.0884  0.2347 -0.0195
 1209DPPI   C3A18207   4.916   4.310   6.579  0.1453 -0.1390  0.2457
 1209DPPI   C4A18208   4.813   4.322   6.984 -0.2752  0.0321 -0.0225
 1209DPPI   C1B18209   5.627   4.183   5.990  0.1297 -0.0603 -0.3740
 1209DPPI   C2B18210   5.468   4.140   6.494  0.0540  0.0587 -0.3733
 1209DPPI   C3B18211   5.343   4.283   7.022  0.2067 -0.1009 -0.0117
 1209DPPI   C4B18212   5.655   4.234   7.369  0.2411  0.2217  0.3033
 1210DPPI    C118213  16.323  14.878   5.323  0.0184  0.0900  0.1042
 1210DPPI    C218214  16.151  15.087   5.028 -0.0100  0.0161  0.0680
 1210DPPI    C318215  16.516  15.186   5.158  0.1039 -0.1002 -0.1583
 1210DPPI   PO418216  16.095  14.773   5.399 -0.3552  0.1257  0.3891
 1210DPPI   GL118217  16.140  14.397   5.690  0.1088 -0.3022 -0.2808
 1210DPPI   GL218218  16.054  14.080   5.669  0.1021  0.1202  0.1644
 1210DPPI   C1A18219  16.446  14.561   5.997  0.2214  0.0944 -0.0844
 1210DPPI   C2A18220  16.499  14.775   6.414  0.2753 -0.3184 -0.0140
 1210DPPI   C3A18221  16.443  14.685   6.794 -0.2816 -0.1995  0.0652
 1210DPPI   C4A18222  16.404  14.689   7.192 -0.1072 -0.0381  0.1989
 1210DPPI   C1B18223  15.739  14.229   5.989 -0.1895  0.1867 -0.2014
 1210DPPI   C2B18224  15.835  14.595   6.363 -0.0181  0.0754 -0.0663
 1210DPPI   C3B18225  15.962  14.581   6.776 -0.0743 -0.0564 -0.1157
 1210DPPI   C4B18226  15.914  14.620   7.234 -0.2443 -0.0256  0.3695
 1211DPPI    C118227   2.373   6.107   5.207 -0.0934  0.1371 -0.0761
 1211DPPI    C218228   2.379   6.031   4.814  0.1364 -0.0227 -0.0439
 1211DPPI    C318229   2.319   6.404   4.945 -0.0521  0.0131 -0.2272
 1211DPPI   PO418230   2.657   5.987   5.270  0.0457 -0.1362  0.4544
 1211DPPI   GL118231   2.797   5.784   5.612 -0.1565 -0.4302  0.0513
 1211DPPI   GL218232   3.121   5.665   5.720 -0.0864  0.1335 -0.2562
 1211DPPI   C1A18233   2.594   5.737   6.032  0.1070 -0.1218 -0.0433
 1211DPPI   C2A18234   2.520   5.842   6.523 -0.0798  0.1488 -0.3393
 1211DPPI   C3A18235   2.412   5.773   7.023 -0.1639 -0.3102 -0.0806
 1211DPPI   C4A18236   2.562   5.738   7.379  0.2393  0.1365  0.1517
 1211DPPI   C1B18237   3.256   5.660   6.211 -0.2136 -0.3697  0.0610
 1211DPPI   C2B18238   3.005   5.838   6.537  0.1974  0.1350  0.1268
 1211DPPI   C3B18239   2.972   5.827   6.987 -0.2022 -0.0088  0.2349
 1211DPPI   C4B18240   3.035   5.662   7.415 -0.0616 -0.0109 -0.1869
 1212DPPI    C118241  11.902  15.968   5.093 -0.2020  0.1235  0.2347
 1212DPPI    C218242  11.732  15.748   4.806 -0.2856  0.2594  0.1786
 1212DPPI    C318243  12.075  15.940   4.734 -0.1629  0.0727  0.2575
 1212DPPI   PO418244  11.949  15.759   5.400 -0.4215 -0.1514 -0.0273
 1212DPPI   GL118245  11.851  15.522   5.613  0.4075  0.0298 -0.1799
 1212DPPI   GL218246  11.716  15.233   5.631 -0.2265  0.3127 -0.1939
 1212DPPI   C1A18247  12.093  15.678   6.029 -0.0516 -0.2670 -0.0819
 1212DPPI   C2A18248  11.881  15.588   6.357 -0.1042 -0.0340 -0.0966
 1212DPPI   C3A18249  11.996  15.606   6.734 -0.2684 -0.0064  0.0639
 1212DPPI   C4A18250  12.332  15.496   6.966 -0.2738 -0.1025 -0.2925
 1212DPPI   C1B18251  11.570  15.297   6.076 -0.2349  0.2462 -0.0179
 1212DPPI   C2B18252  11.474  15.284   6.524 -0.3785 -0.0847 -0.0967
 1212DPPI   C3B18253  11.680  15.231   6.914 -0.2356 -0.1207  0.0443
 1212DPPI   C4B18254  11.885  15.394   7.258 -0.3230 -0.2535 -0.1609
 1213DPPI    C118255  10.370   8.612   5.665 -0.0465 -0.1314  0.0339
 1213DPPI    C218256  10.027   8.434   5.563 -0.1466  0.0834 -0.0092
 1213DPPI    C318257  10.364   8.347   5.365 -0.2495  0.1511 -0.2177
 1213DPPI   PO418258  10.281   8.672   5.984 -0.1192  0.1374 -0.1065
 1213DPPI   GL118259  10.305   8.596   6.488 -0.1150  0.0259 -0.1386
 1213DPPI   GL218260  10.017   8.254   6.480 -0.1680  0.0828  0.0860
 1213DPPI   C1A18261  10.440   8.226   6.840  0.1020  0.0468  0.0229
 1213DPPI   C2A18262  10.458   8.146   7.273  0.1368  0.1357 -0.1069
 1213DPPI   C3A18263  10.497   8.245   7.773  0.5295 -0.5212 -0.0526
 1213DPPI   C4A18264  10.739   8.417   8.149 -0.0572 -0.4386  0.1125
 1213DPPI   C1B18265   9.992   8.496   6.857  0.1973  0.1358  0.0270
 1213DPPI   C2B18266   9.839   8.641   7.118  0.0165  0.1390  0.3630
 1213DPPI   C3B18267   9.739   8.837   7.525  0.0815  0.1246 -0.0094
 1213DPPI   C4B18268   9.797   8.903   7.931  0.0102  0.1520 -0.2176
 1214DPPI    C118269  18.374   6.018   5.369 -0.0144  0.0433  0.1176
 1214DPPI    C218270  18.524   5.768   5.095 -0.3487 -0.1932  0.1439
 1214DPPI    C318271  18.322   6.094   4.979  0.1354  0.1053  0.1089
 1214DPPI   PO418272  18.291   5.797   5.562  0.2656  0.0242 -0.0684
 1214DPPI   GL118273  18.232   5.721   6.004  0.3322  0.0281  0.1389
 1214DPPI   GL218274  18.335   5.497   6.178 -0.1854  0.5453 -0.1053
 1214DPPI   C1A18275  18.396   6.033   6.227 -0.0015  0.2039  0.0792
 1214DPPI   C2A18276  18.298   6.077   6.672 -0.0361 -0.1369 -0.0485
 1214DPPI   C3A18277  18.010   6.007   7.002  0.1834  0.0098  0.0859
 1214DPPI   C4A18278  17.759   5.688   7.098 -0.1469  0.0748  0.0377
 1214DPPI   C1B18279  18.480   5.604   6.493 -0.1126  0.4278 -0.6591
 1214DPPI   C2B18280  18.520   5.707   7.006 -0.0048 -0.0893 -0.0586
 1214DPPI   C3B18281  18.664   5.785   7.408 -0.1299  0.1325 -0.2758
 1214DPPI   C4B18282  18.592   5.674   7.854 -0.0200  0.0584 -0.1860
 1215DPPI    C118283   4.000  13.774   5.270 -0.0246  0.1880  0.1046
 1215DPPI    C218284   4.172  13.416   5.220  0.3188  0.3181  0.3208
 1215DPPI    C318285   4.045  13.623   4.902 -0.0684 -0.0795  0.2065
 1215DPPI   PO418286   4.162  13.882   5.498  0.2357  0.1691  0.0179
 1215DPPI   GL118287   4.371  13.626   5.804  0.2414 -0.1727  0.0623
 1215DPPI   GL218288   4.637  13.476   5.729 -0.2280  0.0002 -0.1013
 1215DPPI   C1A18289   4.236  13.519   6.254 -0.0330  0.2416 -0.1153
 1215DPPI   C2A18290   4.227  13.660   6.591 -0.2131 -0.5417 -0.0234
 1215DPPI   C3A18291   4.251  13.676   7.032  0.1725 -0.3437 -0.2216
 1215DPPI   C4A18292   4.260  13.821   7.400  0.2733  0.0104 -0.1722
 1215DPPI   C1B18293   4.828  13.687   6.085  0.2323 -0.0160  0.0441
 1215DPPI   C2B18294   4.733  13.748   6.491 -0.1435 -0.2605  0.0688
 1215DPPI   C3B18295   4.840  13.929   6.850 -0.0868  0.3342  0.0528
 1215DPPI   C4B18296   4.742  13.914   7.278 -0.1554  0.1396 -0.1153
 1216DPPI    C118297  10.784   0.106   4.962  0.1601  0.0683  0.0886
 1216DPPI    C218298  10.522   0.173   4.667  0.0784 -0.2505  0.0850
 1216DPPI    C318299  10.895   0.315   4.640  0.0305 -0.1585 -0.1063
 1216DPPI   PO418300  10.653   0.187   5.193  0.0558  0.2043  0.3078
 1216DPPI   GL118301  10.486   0.177   5.620 -0.2775  0.2489 -0.1694
 1216DPPI   GL218302  10.805  -0.008   5.743  0.1438  0.1802  0.1372
 1216DPPI   C1A18303  10.271   0.341   5.976 -0.1050 -0.0945  0.2237
 1216DPPI   C2A18304  10.000   0.464   6.361  0.2775  0.1298 -0.4535
 1216DPPI   C3A18305   9.845   0.424   6.786 -0.0852  0.2107 -0.2421
 1216DPPI   C4A18306   9.777   0.670   7.034  0.1522 -0.1907  0.0176
 1216DPPI   C1B18307  10.774   0.281   6.072 -0.0290  0.1520  0.1232
 1216DPPI   C2B18308  10.542   0.526   6.338 -0.1875  0.1451  0.1832
 1216DPPI   C3B18309  10.276   0.813   6.467 -0.1316  0.0123  0.0606
 1216DPPI   C4B18310  10.076   1.051   6.772  0.2779 -0.2498 -0.3543
 1217DPPI    C118311   4.806   4.431   5.201  0.0402  0.0239  0.1685
 1217DPPI    C218312   5.063   4.140   5.299  0.0186 -0.0479  0.0153
 1217DPPI    C318313   4.968   4.203   4.915 -0.2498 -0.0709  0.0756
 1217DPPI   PO418314   4.903   4.627   5.344 -0.3428  0.2283  0.1038
 1217DPPI   GL118315   4.926   4.474   5.749 -0.1887  0.0549 -0.1938
 1217DPPI   GL218316   4.725   4.172   5.670 -0.1670  0.1616 -0.0147
 1217DPPI   C1A18317   4.660   4.437   6.146 -0.0896  0.0203  0.0077
 1217DPPI   C2A18318   4.359   4.446   6.565 -0.0509 -0.1219 -0.5195
 1217DPPI   C3A18319   3.960   4.560   6.738 -0.0827  0.1572  0.2409
 1217DPPI   C4A18320   3.815   4.588   7.099  0.0680  0.1088  0.0094
 1217DPPI   C1B18321   4.620   3.907   6.004  0.1156 -0.0208 -0.0385
 1217DPPI   C2B18322   4.598   3.998   6.404  0.4386  0.0985 -0.1210
 1217DPPI   C3B18323   4.521   3.936   6.883 -0.0843 -0.3638 -0.0332
 1217DPPI   C4B18324   4.295   4.139   7.210 -0.0406  0.0182  0.0862
 1218DPPI    C118325   6.596   5.775   5.229  0.0311  0.0491 -0.1203
 1218DPPI    C218326   6.289   5.518   5.221  0.0551  0.0187 -0.0718
 1218DPPI    C318327   6.271   5.857   5.010 -0.1499  0.1738  0.1879
 1218DPPI   PO418328   6.551   5.807   5.565 -0.0161 -0.0219 -0.2120
 1218DPPI   GL118329   6.752   5.736   5.974 -0.1737 -0.0358  0.3232
 1218DPPI   GL218330   7.058   5.708   6.111 -0.2862 -0.1533  0.0210
 1218DPPI   C1A18331   6.741   5.483   6.396  0.1862  0.0302  0.1024
 1218DPPI   C2A18332   6.772   5.500   6.807 -0.2148 -0.0584  0.1611
 1218DPPI   C3A18333   6.741   5.527   7.208 -0.4129 -0.1562 -0.2591
 1218DPPI   C4A18334   6.770   5.312   7.616 -0.1322  0.0968  0.1216
 1218DPPI   C1B18335   7.021   5.894   6.523 -0.1190 -0.0373  0.0924
 1218DPPI   C2B18336   7.092   5.814   6.986 -0.2438 -0.2836  0.0513
 1218DPPI   C3B18337   7.038   5.883   7.399  0.1026  0.2080 -0.3950
 1218DPPI   C4B18338   6.920   5.874   7.711 -0.2354  0.0849  0.0288
 1219DPPI    C118339  16.990   5.383   5.282  0.0665  0.1593  0.1187
 1219DPPI    C218340  16.649   5.494   5.104  0.0350  0.0245  0.0933
 1219DPPI    C318341  17.001   5.572   4.929  0.0055 -0.0738 -0.0104
 1219DPPI   PO418342  16.958   5.125   5.403 -0.1470  0.0779  0.1207
 1219DPPI   GL118343  16.949   4.972   5.745  0.0512  0.0546 -0.0250
 1219DPPI   GL218344  16.874   5.205   5.901 -0.0212  0.2631  0.0580
 1219DPPI   C1A18345  17.062   4.807   6.133  0.1315  0.1749  0.0944
 1219DPPI   C2A18346  16.930   4.705   6.509  0.2548 -0.1704 -0.0419
 1219DPPI   C3A18347  16.674   4.465   6.783 -0.0755  0.0756  0.1617
 1219DPPI   C4A18348  16.566   4.304   7.246  0.0059 -0.2874  0.2219
 1219DPPI   C1B18349  17.005   5.196   6.399  0.0993  0.0004  0.1373
 1219DPPI   C2B18350  17.053   5.219   6.870 -0.0778 -0.0050  0.0184
 1219DPPI   C3B18351  17.281   5.097   7.245 -0.0874 -0.1095 -0.5076
 1219DPPI   C4B18352  17.329   5.163   7.691 -0.1714  0.0024  0.0248
 1220DPPI    C118353   3.238   5.272   5.301 -0.0318 -0.0069  0.0648
 1220DPPI    C218354   3.610   5.127   5.270 -0.0432 -0.0909  0.3027
 1220DPPI    C318355   3.461   5.358   4.980  0.1387 -0.1831  0.1336
 1220DPPI   PO418356   3.210   5.088   5.630  0.2085 -0.1029  0.1915
 1220DPPI   GL118357   3.135   4.777   5.770 -0.2026  0.1057 -0.0318
 1220DPPI   GL218358   3.378   4.653   6.017  0.2332 -0.3947  0.1383
 1220DPPI   C1A18359   3.017   5.004   6.196  0.0202  0.3457 -0.1295
 1220DPPI   C2A18360   2.762   5.346   6.401 -0.0479  0.0208  0.0754
 1220DPPI   C3A18361   2.667   5.431   6.795 -0.1043 -0.0421 -0.1642
 1220DPPI   C4A18362   2.637   5.313   7.165 -0.2479 -0.1491 -0.0172
 1220DPPI   C1B18363   3.347   4.768   6.499  0.0662 -0.2337 -0.0319
 1220DPPI   C2B18364   3.505   4.984   6.840  0.1173 -0.2257  0.0118
 1220DPPI   C3B18365   3.645   5.063   7.258  0.1787  0.0527  0.1511
 1220DPPI   C4B18366   3.632   4.869   7.556  0.2725 -0.0293 -0.1229
 1221DPPI    C118367  11.801   4.497   5.055 -0.0231  0.1398  0.0799
 1221DPPI    C218368  11.854   4.126   5.195  0.0927  0.1748  0.1302
 1221DPPI    C318369  11.853   4.193   4.801 -0.0619  0.1016  0.1176
 1221DPPI   PO418370  11.645   4.589   5.291 -0.1012  0.1219 -0.0608
 1221DPPI   GL118371  11.502   4.414   5.640 -0.3490  0.2611  0.0054
 1221DPPI   GL218372  11.519   4.051   5.640  0.1273 -0.0217 -0.0112
 1221DPPI   C1A18373  11.581   4.333   6.073  0.0088  0.1924 -0.0508
 1221DPPI   C2A18374  11.716   4.295   6.514  0.0316  0.1014 -0.0097
 1221DPPI   C3A18375  11.660   4.228   6.963  0.2018  0.0557 -0.0237
 1221DPPI   C4A18376  11.656   4.164   7.361  0.2929 -0.1933  0.2027
 1221DPPI   C1B18377  11.628   3.789   6.043 -0.0575 -0.3044  0.3338
 1221DPPI   C2B18378  11.845   3.736   6.366  0.0006  0.1713  0.1011
 1221DPPI   C3B18379  11.902   3.745   6.950 -0.0203 -0.0533  0.1374
 1221DPPI   C4B18380  11.871   3.761   7.477 -0.2582  0.2218 -0.0100
 1222DPPI    C118381   9.572   2.238   5.708 -0.2813 -0.0859 -0.2021
 1222DPPI    C218382   9.926   2.142   5.550 -0.0986 -0.0886  0.1964
 1222DPPI    C318383   9.647   1.860   5.603 -0.0387 -0.1507  0.1828
 1222DPPI   PO418384   9.510   2.511   5.624  0.0181 -0.2261  0.1363
 1222DPPI   GL118385   9.443   2.879   5.777 -0.0011 -0.1167 -0.0823
 1222DPPI   GL218386   9.187   3.076   5.866  0.1626 -0.0238  0.5234
 1222DPPI   C1A18387   9.730   2.942   6.124  0.2622 -0.1015 -0.0812
 1222DPPI   C2A18388   9.822   2.808   6.547 -0.1363  0.1265 -0.3479
 1222DPPI   C3A18389   9.982   2.501   6.843 -0.1939 -0.2238  0.3214
 1222DPPI   C4A18390  10.236   2.257   7.220  0.0408 -0.0091  0.0673
 1222DPPI   C1B18391   9.293   3.010   6.282  0.5157  0.1146  0.0972
 1222DPPI   C2B18392   9.349   2.858   6.638 -0.2518 -0.1514 -0.2096
 1222DPPI   C3B18393   9.594   2.745   7.053  0.6587 -0.0646 -0.3394
 1222DPPI   C4B18394   9.718   2.406   7.323  0.2713 -0.1478  0.0673
 1223DPPI    C118395   2.716  18.375   5.080  0.0586  0.2749 -0.2468
 1223DPPI    C218396   2.676  18.684   4.829  0.2555  0.4690 -0.0443
 1223DPPI    C318397   2.943  18.396   4.751 -0.0205  0.2757 -0.3017
 1223DPPI   PO418398   2.607  18.492   5.309 -0.2525  0.0220 -0.0087
 1223DPPI   GL118399   2.469  18.487   5.749 -0.1120 -0.1279  0.2944
 1223DPPI   GL218400   2.646  18.221   5.848  0.2143 -0.2955 -0.4555
 1223DPPI   C1A18401   2.373  18.659   6.243 -0.3064 -0.1313  0.0136
 1223DPPI   C2A18402   2.386  18.763   6.641 -0.1149 -0.2542 -0.2554
 1223DPPI   C3A18403   2.262  18.831   7.088 -0.2452  0.4544 -0.2507
 1223DPPI   C4A18404   2.280  18.862   7.520 -0.0101 -0.0001  0.0903
 1223DPPI   C1B18405   2.835  18.395   6.198  0.1655 -0.0545  0.1089
 1223DPPI   C2B18406   2.737  18.391   6.628  0.1950  0.2335 -0.2079
 1223DPPI   C3B18407   2.562  18.429   6.995 -0.0977 -0.1622  0.0025
 1223DPPI   C4B18408   2.658  18.533   7.326 -0.0285  0.0620  0.1572
 1224DPPI    C118409   4.955  16.181   4.943  0.0943 -0.3207 -0.1468
 1224DPPI    C218410   4.835  15.894   4.692 -0.1431 -0.1712 -0.2068
 1224DPPI    C318411   4.749  16.277   4.614 -0.0977 -0.1112  0.0313
 1224DPPI   PO418412   4.941  16.059   5.229 -0.1338  0.0217  0.1689
 1224DPPI   GL118413   4.999  16.120   5.667 -0.1494 -0.2340  0.1910
 1224DPPI   GL218414   5.270  16.321   5.846 -0.0650  0.1968 -0.2742
 1224DPPI   C1A18415   4.847  15.860   5.958 -0.1483  0.2068  0.2340
 1224DPPI   C2A18416   5.026  15.647   6.282 -0.0624 -0.2727  0.1190
 1224DPPI   C3A18417   5.143  15.431   6.630 -0.0995  0.0024  0.0696
 1224DPPI   C4A18418   5.280  15.395   7.085  0.1208 -0.3190  0.0829
 1224DPPI   C1B18419   5.424  16.392   6.249 -0.1085 -0.0285 -0.1625
 1224DPPI   C2B18420   5.178  16.242   6.519  0.0064  0.0631  0.0546
 1224DPPI   C3B18421   5.365  16.385   6.891  0.1019 -0.1418 -0.2120
 1224DPPI   C4B18422   5.493  16.342   7.294  0.1938  0.0259  0.1259
 1225DPPI    C118423   1.876  14.639   5.275 -0.0837  0.1823 -0.1959
 1225DPPI    C218424   1.958  14.504   4.907  0.1884 -0.0357 -0.0597
 1225DPPI    C318425   2.197  14.776   5.079  0.0539  0.0763 -0.0476
 1225DPPI   PO418426   1.571  14.653   5.329  0.3400  0.0759  0.2202
 1225DPPI   GL118427   1.460  14.455   5.720 -0.1078  0.2150 -0.0947
 1225DPPI   GL218428   1.791  14.374   5.674 -0.3773  0.0264 -0.0628
 1225DPPI   C1A18429   1.526  14.544   6.158 -0.2511  0.1384 -0.1159
 1225DPPI   C2A18430   1.546  14.657   6.568  0.1934 -0.0652 -0.1348
 1225DPPI   C3A18431   1.519  14.653   7.063  0.0924 -0.2523  0.0424
 1225DPPI   C4A18432   1.779  14.776   7.358 -0.1319  0.2174  0.1103
 1225DPPI   C1B18433   1.734  14.086   6.057  0.2422 -0.0773 -0.0915
 1225DPPI   C2B18434   1.557  14.093   6.583 -0.2361  0.1730  0.2316
 1225DPPI   C3B18435   1.577  14.160   6.985  0.2400 -0.0369  0.0664
 1225DPPI   C4B18436   1.553  14.294   7.385 -0.1310 -0.1175  0.1948
 1226DPPI    C118437   2.675   2.399   5.312  0.0815 -0.0128 -0.0972
 1226DPPI    C218438   2.718   2.026   5.448 -0.0367  0.0036 -0.0130
 1226DPPI    C318439   2.901   2.329   5.635 -0.2511  0.0341  0.1509
 1226DPPI   PO418440   2.333   2.388   5.319  0.3035  0.0237 -0.1629
 1226DPPI   GL118441   2.293   2.566   5.728  0.3868 -0.0634  0.2526
 1226DPPI   GL218442   2.545   2.726   5.690  0.0238 -0.1560 -0.1775
 1226DPPI   C1A18443   2.216   2.549   6.100  0.2133 -0.0725  0.0293
 1226DPPI   C2A18444   1.985   2.669   6.492 -0.0428 -0.0685  0.0607
 1226DPPI   C3A18445   1.790   2.652   6.922  0.1082  0.0685  0.3572
 1226DPPI   C4A18446   1.927   2.471   7.370 -0.0564  0.0101  0.0560
 1226DPPI   C1B18447   2.737   2.602   6.028  0.3060 -0.0227 -0.1410
 1226DPPI   C2B18448   2.601   2.513   6.459 -0.0869  0.2866 -0.1307
 1226DPPI   C3B18449   2.699   2.533   6.974 -0.1530  0.1773  0.1746
 1226DPPI   C4B18450   2.847   2.441   7.383  0.1628 -0.0616 -0.0288
 1227DPPI    C118451   4.551   6.433   5.161  0.0271  0.0988  0.0599
 1227DPPI    C218452   4.906   6.357   4.993  0.0064  0.1819 -0.0223
 1227DPPI    C318453   4.612   6.087   4.969  0.1163  0.0394  0.1933
 1227DPPI   PO418454   4.642   6.512   5.465  0.0747 -0.1845 -0.1619
 1227DPPI   GL118455   4.577   6.522   5.914 -0.0239 -0.0097 -0.1950
 1227DPPI   GL218456   4.266   6.393   5.822  0.1834 -0.1883 -0.1336
 1227DPPI   C1A18457   4.647   6.432   6.306  0.2399 -0.1822  0.3132
 1227DPPI   C2A18458   4.552   6.330   6.677 -0.1284  0.3568 -0.0583
 1227DPPI   C3A18459   4.515   6.437   7.138 -0.1029 -0.0347 -0.0473
 1227DPPI   C4A18460   4.475   6.621   7.583 -0.4116 -0.1373 -0.0308
 1227DPPI   C1B18461   4.153   6.566   6.349  0.3330 -0.0846  0.0856
 1227DPPI   C2B18462   4.174   6.672   6.816 -0.1400 -0.2474 -0.1726
 1227DPPI   C3B18463   4.071   6.767   7.290 -0.3137  0.1682 -0.0134
 1227DPPI   C4B18464   3.699   6.703   7.530 -0.1786 -0.0139  0.0383
 1228PYPI    C118465  10.486   6.659   5.879 -0.0132  0.1564  0.1041
 1228PYPI    C218466  10.543   6.317   5.679  0.1894  0.1068  0.2433
 1228PYPI    C318467  10.307   6.602   5.526  0.1482 -0.0290  0.0506
 1228PYPI   PO418468  10.754   6.838   5.896 -0.0274  0.4371 -0.0330
 1228PYPI   GL118469  11.026   6.919   6.279 -0.1851  0.0023  0.2527
 1228PYPI   GL218470  10.677   6.866   6.382  0.0092  0.1704  0.0097
 1228PYPI   C1A18471  11.361   7.030   6.669  0.3058 -0.4643  0.0874
 1228PYPI   C2A18472  11.321   7.011   7.146  0.3458 -0.0848 -0.2310
 1228PYPI   D3A18473  11.057   6.937   7.538  0.2877 -0.0047  0.4301
 1228PYPI   C4A18474  11.275   6.935   7.878 -0.0807 -0.1917 -0.1928
 1228PYPI   C1B18475  10.682   6.995   6.764 -0.0544 -0.4196 -0.1167
 1228PYPI   C2B18476  10.460   7.349   6.991 -0.2317 -0.1855  0.0382
 1228PYPI   C3B18477  10.626   7.664   7.278  0.0922 -0.1318 -0.0885
 1228PYPI   C4B18478  10.818   7.562   7.734 -0.2339 -0.0905 -0.0914
 1229PYPI    C118479   6.868   4.509   5.726 -0.2132  0.0613 -0.0382
 1229PYPI    C218480   6.528   4.618   5.546 -0.2385  0.1175  0.0433
 1229PYPI    C318481   6.848   4.520   5.326 -0.2163  0.3527 -0.0320
 1229PYPI   PO418482   6.870   4.699   5.908  0.1090 -0.1047  0.1916
 1229PYPI   GL118483   6.581   4.998   5.938 -0.0593  0.0731  0.0416
 1229PYPI   GL218484   6.762   5.187   5.989 -0.2249  0.2201 -0.1018
 1229PYPI   C1A18485   6.253   4.810   6.296  0.0256 -0.0117 -0.0185
 1229PYPI   C2A18486   6.323   4.642   6.709  0.1386  0.2001  0.2606
 1229PYPI   D3A18487   6.375   4.657   7.163 -0.2059  0.1891  0.0813
 1229PYPI   C4A18488   6.591   4.905   7.407  0.0706 -0.1500  0.1098
 1229PYPI   C1B18489   6.781   4.985   6.439  0.1397  0.1369 -0.1675
 1229PYPI   C2B18490   7.096   4.758   6.642  0.2297 -0.2631  0.0203
 1229PYPI   C3B18491   7.304   4.549   6.932  0.1764  0.1223 -0.2001
 1229PYPI   C4B18492   7.411   4.502   7.292 -0.1408  0.3776  0.1330
 1230PYPI    C118493   8.627  18.092   5.433 -0.0480  0.0615  0.1703
 1230PYPI    C218494   8.683  17.902   5.085 -0.0843 -0.2154  0.3128
 1230PYPI    C318495   8.740  18.297   5.109  0.2698 -0.2479  0.0789
 1230PYPI   PO418496   8.765  18.022   5.563 -0.3044 -0.0244  0.1454
 1230PYPI   GL118497   8.785  18.181   5.890 -0.3285 -0.3168 -0.0046
 1230PYPI   GL218498   8.480  18.387   5.793  0.1518  0.0499  0.0404
 1230PYPI   C1A18499   8.972  18.375   6.335 -0.3106  0.0302 -0.0414
 1230PYPI   C2A18500   9.086  18.429   6.676  0.1939 -0.1135  0.2021
 1230PYPI   D3A18501   9.480  18.500   6.910 -0.0812 -0.1071  0.0335
 1230PYPI   C4A18502   9.580  18.357   7.333  0.0437  0.1183 -0.1673
 1230PYPI   C1B18503   8.452  18.327   6.250  0.0550 -0.1073 -0.0276
 1230PYPI   C2B18504   8.544  18.204   6.598 -0.0360  0.0998  0.0864
 1230PYPI   C3B18505   8.559  18.272   6.974 -0.0210  0.2796  0.0105
 1230PYPI   C4B18506   8.564  18.155   7.396  0.0181  0.0684 -0.0056
 1231PYPI    C118507  17.910  10.362   5.283  0.3234  0.0910  0.0396
 1231PYPI    C218508  17.782  10.619   5.006  0.1993 -0.0003  0.0111
 1231PYPI    C318509  18.173  10.587   5.083  0.2397 -0.0150 -0.1933
 1231PYPI   PO418510  17.849  10.440   5.496  0.1928  0.2601 -0.1227
 1231PYPI   GL118511  17.665  10.226   5.837 -0.2415 -0.2250 -0.0178
 1231PYPI   GL218512  17.395  10.024   5.936 -0.0119  0.0611  0.0150
 1231PYPI   C1A18513  17.957  10.398   6.309 -0.2276  0.1358  0.2063
 1231PYPI   C2A18514  17.995  10.616   6.792 -0.1050 -0.1979  0.0567
 1231PYPI   D3A18515  17.908  10.697   7.229 -0.0719  0.1662  0.0531
 1231PYPI   C4A18516  17.689  10.975   7.279  0.1421 -0.0350 -0.3623
 1231PYPI   C1B18517  17.460  10.305   6.313 -0.1209  0.0674  0.0772
 1231PYPI   C2B18518  17.401  10.531   6.646  0.0494 -0.1864 -0.1976
 1231PYPI   C3B18519  17.425  10.512   7.133 -0.1161 -0.0076  0.0843
 1231PYPI   C4B18520  17.313  10.753   7.542 -0.0891 -0.0502  0.0841
 1232PYPI    C118521   0.761  18.131   5.092  0.1151 -0.0417 -0.0447
 1232PYPI    C218522   0.363  18.139   5.055  0.1234 -0.1844 -0.1757
 1232PYPI    C318523   0.594  18.283   4.762  0.1652  0.2156  0.0459
 1232PYPI   PO418524   0.798  17.830   5.192 -0.3994  0.1864  0.0528
 1232PYPI   GL118525   0.858  17.583   5.617  0.1178  0.3910  0.0645
 1232PYPI   GL218526   0.600  17.580   5.824 -0.0167  0.0588  0.0943
 1232PYPI   C1A18527   1.084  17.542   6.009 -0.0675  0.0022 -0.0423
 1232PYPI   C2A18528   1.273  17.705   6.264  0.0088 -0.0320 -0.0393
 1232PYPI   D3A18529   1.146  17.770   6.724 -0.2275 -0.1117  0.1304
 1232PYPI   C4A18530   1.070  17.620   7.138 -0.1276  0.0361 -0.1204
 1232PYPI   C1B18531   0.644  17.557   6.261 -0.2910  0.1502  0.0508
 1232PYPI   C2B18532   0.678  17.563   6.658 -0.2257 -0.0342  0.2588
 1232PYPI   C3B18533   0.600  17.362   7.088  0.0480  0.2166 -0.0501
 1232PYPI   C4B18534   0.391  17.319   7.552  0.0648  0.0317  0.1257
 1233PYPI    C118535   6.638  15.379   4.882  0.0446  0.1063  0.1649
 1233PYPI    C218536   6.665  15.762   4.770  0.2934  0.0424 -0.0042
 1233PYPI    C318537   6.951  15.600   4.998  0.3270 -0.1143 -0.1563
 1233PYPI   PO418538   6.423  15.358   5.016  0.0286 -0.0539 -0.0229
 1233PYPI   GL118539   6.495  15.428   5.396 -0.1798  0.2638 -0.0100
 1233PYPI   GL218540   6.450  15.702   5.494 -0.1002  0.0370  0.4248
 1233PYPI   C1A18541   6.762  15.179   5.655  0.1289 -0.4914 -0.1349
 1233PYPI   C2A18542   6.795  14.818   5.761 -0.0222 -0.0570 -0.0436
 1233PYPI   D3A18543   6.887  14.473   5.685  0.2076 -0.3136 -0.0858
 1233PYPI   C4A18544   7.070  14.119   5.926  0.1044 -0.3431 -0.0232
 1233PYPI   C1B18545   6.611  15.555   5.942 -0.0155  0.3148  0.1726
 1233PYPI   C2B18546   6.718  15.617   6.325  0.3075 -0.0755  0.0161
 1233PYPI   C3B18547   6.772  15.726   6.805 -0.0461  0.3003  0.1048
 1233PYPI   C4B18548   6.622  15.544   7.216  0.0263 -0.0286  0.1927
 1234PYPI    C118549   7.868  11.890   5.230  0.0966  0.3354  0.0945
 1234PYPI    C218550   7.933  11.632   4.932  0.0806 -0.1551  0.5023
 1234PYPI    C318551   7.671  11.930   4.885  0.1250 -0.1862  0.0106
 1234PYPI   PO418552   7.749  11.767   5.453  0.0965  0.2286 -0.2643
 1234PYPI   GL118553   7.523  11.896   5.743  0.0220 -0.0995 -0.1041
 1234PYPI   GL218554   7.900  11.878   5.899  0.0957 -0.0348 -0.0233
 1234PYPI   C1A18555   7.420  11.982   6.163  0.0787 -0.2180 -0.0496
 1234PYPI   C2A18556   7.497  12.103   6.550  0.3368 -0.0473  0.0162
 1234PYPI   D3A18557   7.574  12.190   6.955 -0.1754  0.0557 -0.0286
 1234PYPI   C4A18558   7.891  12.149   7.088 -0.1421 -0.0011  0.1851
 1234PYPI   C1B18559   7.922  11.758   6.348 -0.2266  0.0079  0.0426
 1234PYPI   C2B18560   7.906  11.790   6.765 -0.0689  0.1920  0.0778
 1234PYPI   C3B18561   7.911  11.622   7.189  0.2125  0.0882  0.1844
 1234PYPI   C4B18562   7.842  11.491   7.638  0.3583  0.1948 -0.0808
 1235PYPI    C118563  12.342   0.721   5.339  0.0921 -0.2937  0.2122
 1235PYPI    C218564  12.243   0.591   4.974 -0.1531  0.1706  0.1060
 1235PYPI    C318565  12.477   0.913   5.015  0.0429 -0.0002  0.3621
 1235PYPI   PO418566  12.204   0.572   5.491 -0.0016  0.0529 -0.1529
 1235PYPI   GL118567  12.381   0.278   5.742 -0.3407 -0.1785 -0.0967
 1235PYPI   GL218568  12.554   0.568   5.982 -0.0859 -0.3721 -0.0597
 1235PYPI   C1A18569  12.414   0.104   6.159  0.2878  0.0361  0.1693
 1235PYPI   C2A18570  12.219   0.156   6.469  0.0468  0.2130  0.1421
 1235PYPI   D3A18571  12.171   0.367   6.877 -0.0042 -0.0228 -0.0023
 1235PYPI   C4A18572  12.323   0.551   7.160 -0.0635  0.0666  0.1030
 1235PYPI   C1B18573  12.507   0.560   6.443  0.0713  0.0161 -0.0759
 1235PYPI   C2B18574  12.669   0.414   6.865  0.1459 -0.1384  0.0978
 1235PYPI   C3B18575  12.826   0.336   7.333  0.0202 -0.0234 -0.0998
 1235PYPI   C4B18576  12.950   0.055   7.745 -0.1540 -0.0764 -0.2629
 1236PYPI    C118577   8.416   4.126   5.430 -0.1616  0.0602  0.0945
 1236PYPI    C218578   8.234   4.205   5.082 -0.1095  0.1212  0.0810
 1236PYPI    C318579   8.613   4.320   5.141 -0.0566 -0.0538  0.0887
 1236PYPI   PO418580   8.231   4.232   5.575  0.1359  0.1796  0.0219
 1236PYPI   GL118581   8.209   4.367   6.005 -0.0173 -0.0737  0.4433
 1236PYPI   GL218582   7.978   4.139   6.091 -0.2908  0.0459  0.0421
 1236PYPI   C1A18583   8.183   4.508   6.426  0.0785  0.2117 -0.2129
 1236PYPI   C2A18584   8.072   4.538   6.798  0.1428 -0.2263  0.1729
 1236PYPI   D3A18585   7.921   4.434   7.243  0.1831 -0.0377  0.2230
 1236PYPI   C4A18586   7.686   4.743   7.603  0.1152  0.1384  0.2046
 1236PYPI   C1B18587   8.070   3.965   6.444  0.1806 -0.4180 -0.1102
 1236PYPI   C2B18588   8.154   3.914   6.841 -0.1223  0.0255  0.0097
 1236PYPI   C3B18589   8.096   3.974   7.353 -0.0476 -0.0479 -0.0685
 1236PYPI   C4B18590   8.044   4.017   7.766 -0.0236 -0.0615 -0.4375
 1237PYPI    C118591   1.915   4.774   5.225 -0.2181 -0.2693 -0.1107
 1237PYPI    C218592   1.645   5.060   5.294 -0.1097 -0.2015  0.0361
 1237PYPI    C318593   1.682   4.905   4.928 -0.0158  0.1320 -0.0995
 1237PYPI   PO418594   1.911   4.647   5.446  0.1535  0.1817 -0.1556
 1237PYPI   GL118595   1.915   4.391   5.887  0.1969 -0.2513 -0.0089
 1237PYPI   GL218596   2.232   4.552   5.807  0.1126 -0.0774  0.3009
 1237PYPI   C1A18597   2.023   4.337   6.237  0.2439  0.0510 -0.0247
 1237PYPI   C2A18598   1.882   4.254   6.678  0.1387 -0.0700  0.1279
 1237PYPI   D3A18599   1.773   4.147   7.072  0.0020  0.0867 -0.0482
 1237PYPI   C4A18600   1.983   3.934   7.561 -0.2935  0.0940 -0.0606
 1237PYPI   C1B18601   2.504   4.858   5.965 -0.0736 -0.1038  0.2830
 1237PYPI   C2B18602   2.401   5.014   6.420  0.0093 -0.1323  0.0232
 1237PYPI   C3B18603   2.476   4.919   6.892 -0.0680  0.1221 -0.1884
 1237PYPI   C4B18604   2.813   4.716   7.089  0.1316 -0.1588 -0.4836
 1238PYPI    C118605   0.322  12.431   4.937 -0.1922  0.0491 -0.0750
 1238PYPI    C218606  -0.041  12.424   4.769 -0.0959 -0.0787 -0.2811
 1238PYPI    C318607   0.251  12.642   4.605 -0.0430 -0.0816 -0.1913
 1238PYPI   PO418608   0.299  12.443   5.138  0.1653 -0.1227  0.0317
 1238PYPI   GL118609   0.255  12.104   5.590  0.3175 -0.0125 -0.1721
 1238PYPI   GL218610   0.295  12.385   5.700 -0.0254  0.0242  0.2820
 1238PYPI   C1A18611  -0.163  12.241   5.764  0.0135  0.0810  0.0015
 1238PYPI   C2A18612  -0.279  12.282   6.253 -0.0604 -0.0196 -0.0988
 1238PYPI   D3A18613  -0.494  12.502   6.509 -0.2197  0.0805 -0.1448
 1238PYPI   C4A18614  -0.389  12.524   6.992 -0.1142  0.0600  0.0654
 1238PYPI   C1B18615   0.203  12.307   6.155 -0.3594  0.0617 -0.1504
 1238PYPI   C2B18616   0.100  12.316   6.586 -0.0949 -0.2220 -0.0148
 1238PYPI   C3B18617   0.064  12.304   7.044 -0.1585 -0.0593  0.0186
 1238PYPI   C4B18618   0.134  12.219   7.536  0.0640 -0.0307 -0.3233
 1239PYPI    C118619  16.813   6.907   5.008  0.1278  0.2242  0.0263
 1239PYPI    C218620  16.419   6.958   4.962  0.0847 -0.0268  0.0984
 1239PYPI    C318621  16.667   7.031   4.657 -0.0349 -0.0424 -0.0033
 1239PYPI   PO418622  16.882   7.028   5.339  0.3751  0.2078  0.2366
 1239PYPI   GL118623  16.912   7.237   5.737 -0.1128  0.0879 -0.0463
 1239PYPI   GL218624  16.615   7.109   5.873 -0.0765  0.0774 -0.0845
 1239PYPI   C1A18625  16.868   7.422   6.144 -0.0636 -0.1796  0.0179
 1239PYPI   C2A18626  16.934   7.425   6.570  0.0978 -0.1219 -0.1053
 1239PYPI   D3A18627  17.087   7.533   6.930 -0.0707 -0.2789  0.0625
 1239PYPI   C4A18628  17.051   7.551   7.423  0.2203 -0.1412  0.2453
 1239PYPI   C1B18629  16.611   6.996   6.376  0.0004  0.5133  0.1363
 1239PYPI   C2B18630  16.609   7.102   6.804  0.3002  0.0428 -0.0195
 1239PYPI   C3B18631  16.876   7.156   7.163  0.0950  0.0526  0.0498
 1239PYPI   C4B18632  17.059   7.090   7.653  0.1531  0.3110 -0.3925
 1240PYPI    C118633   1.163   9.064   4.924  0.1964 -0.1193 -0.0070
 1240PYPI    C218634   1.030   8.806   4.648  0.1637 -0.1002 -0.0093
 1240PYPI    C318635   1.212   9.144   4.535 -0.0511  0.0164 -0.0129
 1240PYPI   PO418636   0.969   9.113   5.096 -0.2786  0.1053 -0.0613
 1240PYPI   GL118637   0.970   9.257   5.500 -0.0034  0.0145  0.2550
 1240PYPI   GL218638   0.768   9.213   5.692 -0.0072  0.0164 -0.0830
 1240PYPI   C1A18639   1.221   9.204   5.880 -0.1710  0.2996  0.2975
 1240PYPI   C2A18640   1.267   9.114   6.244  0.1544 -0.0524 -0.0018
 1240PYPI   D3A18641   1.126   9.076   6.542  0.0982  0.1003 -0.2518
 1240PYPI   C4A18642   1.108   9.323   6.941 -0.1763  0.0985  0.0436
 1240PYPI   C1B18643   0.780   9.147   6.168  0.2449  0.2225 -0.0067
 1240PYPI   C2B18644   0.641   9.141   6.516  0.1785 -0.2414  0.1377
 1240PYPI   C3B18645   0.619   9.309   6.849  0.0235  0.3159 -0.1224
 1240PYPI   C4B18646   0.719   9.190   7.236 -0.0816 -0.3591  0.0843
 1241PYPI    C118647  13.098   5.347   5.276 -0.2549 -0.0368 -0.4503
 1241PYPI    C218648  13.201   5.015   5.078 -0.1716 -0.1106 -0.2851
 1241PYPI    C318649  13.402   5.355   5.015  0.0008 -0.1882 -0.1642
 1241PYPI   PO418650  12.986   5.265   5.486 -0.1005  0.2147  0.0929
 1241PYPI   GL118651  12.952   4.796   5.652 -0.0011 -0.0162  0.3214
 1241PYPI   GL218652  13.283   4.825   5.526  0.2141 -0.2536 -0.1630
 1241PYPI   C1A18653  12.814   4.944   6.026 -0.1531  0.3293  0.1224
 1241PYPI   C2A18654  12.789   4.973   6.435  0.3728 -0.0067 -0.3301
 1241PYPI   D3A18655  12.849   4.944   6.900  0.4234  0.2420  0.1757
 1241PYPI   C4A18656  12.721   5.130   7.252  0.1684 -0.0439  0.0318
 1241PYPI   C1B18657  13.400   4.837   5.901  0.2722  0.2784  0.1642
 1241PYPI   C2B18658  13.254   4.950   6.285  0.0813 -0.2604 -0.3234
 1241PYPI   C3B18659  13.354   4.892   6.679 -0.0400 -0.0382 -0.0153
 1241PYPI   C4B18660  13.242   4.785   7.071  0.0934  0.2772 -0.3222
 1242PYPI    C118661   9.164   7.697   5.918  0.2252  0.2435 -0.0354
 1242PYPI    C218662   9.364   7.416   5.715  0.0691  0.0640  0.0561
 1242PYPI    C318663   9.462   7.498   6.094 -0.0636 -0.0617  0.1184
 1242PYPI   PO418664   8.897   7.675   5.960 -0.0709 -0.0492  0.2071
 1242PYPI   GL118665   8.538   7.868   6.127  0.1418  0.1677  0.0018
 1242PYPI   GL218666   8.559   7.535   6.311  0.1431  0.0304 -0.0895
 1242PYPI   C1A18667   8.483   8.164   6.392 -0.1114 -0.0888 -0.1416
 1242PYPI   C2A18668   8.445   8.176   6.832  0.3100  0.1953 -0.3536
 1242PYPI   D3A18669   8.277   8.170   7.300 -0.0536  0.1739 -0.3303
 1242PYPI   C4A18670   8.440   8.170   7.696  0.0186 -0.0834 -0.0574
 1242PYPI   C1B18671   8.720   7.796   6.602  0.0297 -0.2432  0.0284
 1242PYPI   C2B18672   8.782   7.854   7.103  0.0640 -0.0631  0.0707
 1242PYPI   C3B18673   8.789   7.862   7.516 -0.4056 -0.0566  0.0611
 1242PYPI   C4B18674   8.895   7.985   7.836  0.1214 -0.1819  0.0701
 1243PYPI    C118675   5.544   7.415   5.544 -0.2284 -0.0879 -0.2646
 1243PYPI    C218676   5.850   7.563   5.332  0.0865 -0.2187  0.0874
 1243PYPI    C318677   5.569   7.344   5.151  0.0637  0.1073 -0.2852
 1243PYPI   PO418678   5.478   7.552   5.681 -0.0582 -0.1398  0.2887
 1243PYPI   GL118679   5.863   7.828   6.031  0.0029  0.0436  0.1321
 1243PYPI   GL218680   5.762   7.398   6.044 -0.1670  0.0258  0.0070
 1243PYPI   C1A18681   6.055   7.675   6.351 -0.0432 -0.1726  0.1262
 1243PYPI   C2A18682   6.128   7.622   6.708  0.1147  0.0544  0.0799
 1243PYPI   D3A18683   6.099   7.492   7.143  0.2641  0.1525 -0.0304
 1243PYPI   C4A18684   5.850   7.446   7.406  0.1543  0.1575  0.0855
 1243PYPI   C1B18685   5.704   7.268   6.493  0.1062  0.4958 -0.0759
 1243PYPI   C2B18686   5.631   7.121   6.887 -0.0153  0.0539  0.0063
 1243PYPI   C3B18687   5.649   6.949   7.288 -0.1518 -0.0046 -0.0609
 1243PYPI   C4B18688   5.650   6.915   7.725  0.0579  0.3302  0.0111
 1244PYPI    C118689  14.319   5.683   5.342 -0.0980  0.1077 -0.2725
 1244PYPI    C218690  14.650   5.718   5.120  0.1758 -0.0421  0.1015
 1244PYPI    C318691  14.513   5.356   5.219 -0.1443  0.0173 -0.1079
 1244PYPI   PO418692  14.430   5.905   5.533  0.1452  0.1309 -0.1537
 1244PYPI   GL118693  14.162   5.948   5.918  0.2567 -0.0356  0.2374
 1244PYPI   GL218694  14.067   5.570   5.806 -0.0445  0.0669 -0.0215
 1244PYPI   C1A18695  14.282   5.898   6.291  0.0265  0.0623  0.0683
 1244PYPI   C2A18696  14.297   5.841   6.781 -0.1380 -0.2373 -0.0358
 1244PYPI   D3A18697  14.103   5.801   7.077  0.2024  0.2485  0.0634
 1244PYPI   C4A18698  14.344   5.943   7.340 -0.0362 -0.0920  0.0972
 1244PYPI   C1B18699  14.240   5.409   6.165 -0.0345 -0.0174 -0.0307
 1244PYPI   C2B18700  14.098   5.417   6.567 -0.1696  0.0658  0.1374
 1244PYPI   C3B18701  14.002   5.353   6.965 -0.1639 -0.2450 -0.0669
 1244PYPI   C4B18702  13.795   5.294   7.402 -0.2367 -0.0413 -0.1102
 1245PYPI    C118703  10.644   9.347   6.055  0.1900  0.1482 -0.1363
 1245PYPI    C218704  10.662   9.386   5.657  0.0387  0.0826 -0.1502
 1245PYPI    C318705  10.350   9.201   5.826 -0.0790  0.4303  0.0226
 1245PYPI   PO418706  10.688   9.528   6.181  0.4369 -0.3047  0.1321
 1245PYPI   GL118707  11.040   9.503   6.365  0.0048 -0.1128  0.1204
 1245PYPI   GL218708  10.938   9.291   6.578  0.0347 -0.0367  0.1315
 1245PYPI   C1A18709  11.074   9.734   6.675  0.1877 -0.2099  0.0021
 1245PYPI   C2A18710  11.003   9.598   7.099  0.0032  0.0542 -0.1008
 1245PYPI   D3A18711  10.949   9.548   7.530  0.1731 -0.0312 -0.0560
 1245PYPI   C4A18712  11.190   9.894   7.755  0.2017  0.0400  0.1677
 1245PYPI   C1B18713  10.781   9.149   6.910 -0.0337 -0.4499  0.2327
 1245PYPI   C2B18714  10.708   9.101   7.295  0.1596  0.1237 -0.1733
 1245PYPI   C3B18715  10.650   9.208   7.785  0.1007  0.1509  0.1456
 1245PYPI   C4B18716  10.702   9.040   8.216  0.3051 -0.2882  0.3688
 1246PYPI    C118717   6.801  11.682   5.168 -0.2149 -0.2296  0.1229
 1246PYPI    C218718   6.429  11.737   5.032 -0.1294  0.0856  0.0070
 1246PYPI    C318719   6.739  11.762   4.780 -0.0223 -0.0873  0.1199
 1246PYPI   PO418720   6.758  11.551   5.428 -0.1355  0.0512  0.1919
 1246PYPI   GL118721   6.473  11.570   5.799 -0.0327 -0.3196  0.0304
 1246PYPI   GL218722   6.402  11.909   6.006 -0.1587 -0.1917  0.0670
 1246PYPI   C1A18723   6.575  11.335   6.310  0.0806  0.2450 -0.1271
 1246PYPI   C2A18724   6.580  11.483   6.697 -0.0588 -0.0807  0.0958
 1246PYPI   D3A18725   6.660  11.246   7.027 -0.0012 -0.4217 -0.1170
 1246PYPI   C4A18726   6.975  11.600   7.177  0.2119 -0.0287 -0.1184
 1246PYPI   C1B18727   6.411  11.932   6.474 -0.2439  0.3241 -0.1504
 1246PYPI   C2B18728   6.448  11.920   6.935  0.1884  0.0537 -0.3572
 1246PYPI   C3B18729   6.535  11.912   7.318 -0.1581 -0.2341 -0.1783
 1246PYPI   C4B18730   6.684  11.733   7.680  0.0704 -0.0461 -0.1105
 1247PYPI    C118731  10.250   1.051   5.174 -0.1097  0.3446  0.1434
 1247PYPI    C218732  10.452   1.373   5.298  0.0773  0.3043 -0.0507
 1247PYPI    C318733  10.619   1.121   5.036  0.0303 -0.0849  0.2833
 1247PYPI   PO418734  10.117   1.024   5.467 -0.2468  0.1394  0.1942
 1247PYPI   GL118735  10.282   1.348   5.785 -0.1912  0.0081 -0.1103
 1247PYPI   GL218736  10.590   1.377   5.864 -0.1779 -0.3724  0.0956
 1247PYPI   C1A18737  10.213   1.664   6.123 -0.0058 -0.2417 -0.3869
 1247PYPI   C2A18738  10.165   1.856   6.588 -0.0048 -0.2617 -0.1957
 1247PYPI   D3A18739   9.922   1.949   6.982  0.0630 -0.1984 -0.1243
 1247PYPI   C4A18740   9.662   1.802   7.324 -0.1818 -0.0752  0.1589
 1247PYPI   C1B18741  10.465   1.253   6.271 -0.1018  0.2091 -0.0480
 1247PYPI   C2B18742  10.411   1.422   6.667  0.1701 -0.2019  0.1977
 1247PYPI   C3B18743  10.191   1.563   7.088 -0.1267 -0.3421  0.2249
 1247PYPI   C4B18744  10.145   1.752   7.478 -0.1053  0.1339  0.0883
 1248ERGO   ROH18745  10.613  14.328   6.032 -0.0720  0.2560  0.0622
 1248ERGO    R118746  10.514  14.318   6.297 -0.0244  0.1023  0.0744
 1248ERGO    R218747  10.508  14.084   6.445  0.0882  0.0351 -0.0275
 1248ERGO    R318748  10.645  14.233   6.626  0.0620  0.0076  0.0161
 1248ERGO    R418749  10.467  14.065   6.787  0.3384 -0.3211 -0.0111
 1248ERGO    R518750  10.484  14.282   6.796  0.1254 -0.3085  0.1746
 1248ERGO    C118751  10.572  14.194   7.157  0.4594 -0.5542  0.0392
 1248ERGO    C218752  10.660  14.088   7.467 -0.1544 -0.1322  0.0391
 1249ERGO   ROH18753   0.932   0.250   5.904 -0.0870 -0.0356 -0.0443
 1249ERGO    R118754   1.043   0.228   6.163 -0.1526 -0.3047 -0.0386
 1249ERGO    R218755   0.991   0.410   6.364  0.2333 -0.2025 -0.0353
 1249ERGO    R318756   0.917   0.188   6.502 -0.2681 -0.0592 -0.0476
 1249ERGO    R418757   0.981   0.387   6.708  0.6533 -0.3115 -0.0241
 1249ERGO    R518758   1.064   0.186   6.692  0.0198 -0.5897 -0.2454
 1249ERGO    C118759   0.907   0.166   7.039  0.4273 -0.2404 -0.0292
 1249ERGO    C218760   0.964   0.221   7.316  0.1097  0.0777  0.1873
 1250ERGO   ROH18761   9.692   6.699   6.549 -0.0195  0.1935  0.0564
 1250ERGO    R118762   9.676   6.764   6.824 -0.1026  0.0308  0.0914
 1250ERGO    R218763   9.492   6.649   6.994 -0.0183 -0.2226  0.0118
 1250ERGO    R318764   9.713   6.588   7.140  0.0205 -0.1104  0.0012
 1250ERGO    R418765   9.495   6.604   7.337  0.0169 -0.1929  0.0153
 1250ERGO    R518766   9.685   6.711   7.344 -0.0274 -0.1032 -0.0059
 1250ERGO    C118767   9.705   6.520   7.674  0.0740 -0.0703  0.0075
 1250ERGO    C218768   9.648   6.516   7.944 -0.0955 -0.0535 -0.3430
 1251ERGO   ROH18769  11.441   9.199   6.499 -0.0250  0.0446  0.0256
 1251ERGO    R118770  11.395   9.315   6.753 -0.0947  0.0754 -0.0023
 1251ERGO    R218771  11.241   9.192   6.947 -0.0228  0.0318  0.0197
 1251ERGO    R318772  11.462   9.228   7.100 -0.0482  0.1971  0.0213
 1251ERGO    R418773  11.240   9.225   7.291 -0.0402 -0.2362  0.0480
 1251ERGO    R518774  11.392   9.380   7.271 -0.2331 -0.0190  0.1484
 1251ERGO    C118775  11.448   9.278   7.635 -0.0742 -0.2372  0.0660
 1251ERGO    C218776  11.496   9.241   7.989 -0.1663 -0.1788  0.1173
 1252ERGO   ROH18777  16.313  10.587   6.073 -0.0996 -0.0333  0.0876
 1252ERGO    R118778  16.221  10.597   6.341 -0.0002  0.0537  0.1196
 1252ERGO    R218779  16.383  10.673   6.551  0.0905  0.0868  0.0424
 1252ERGO    R318780  16.184  10.852   6.598  0.1353  0.1306  0.0626
 1252ERGO    R418781  16.361  10.874   6.831 -0.0708 -0.2173  0.2537
 1252ERGO    R518782  16.146  10.837   6.835 -0.0906 -0.1182  0.0133
 1252ERGO    C118783  16.162  11.159   7.039 -0.1227 -0.3533  0.3957
 1252ERGO    C218784  16.226  11.451   7.079 -0.1282 -0.1498 -0.3893
 1253ERGO   ROH18785  12.114   2.153   5.707  0.0865  0.1746 -0.0043
 1253ERGO    R118786  12.261   2.314   5.888  0.1217  0.1420 -0.0039
 1253ERGO    R218787  12.142   2.442   6.103  0.1395  0.2117 -0.0370
 1253ERGO    R318788  12.335   2.312   6.244  0.0720  0.1582  0.0070
 1253ERGO    R418789  12.187   2.463   6.445  0.0644  0.1976 -0.0257
 1253ERGO    R518790  12.402   2.467   6.412  0.0743  0.1400  0.0241
 1253ERGO    C118791  12.394   2.353   6.776 -0.0428  0.1393  0.0221
 1253ERGO    C218792  12.425   2.251   7.084 -0.2000  0.0190  0.0397
 1254ERGO   ROH18793   0.609  12.764   6.000  0.0322  0.1635  0.0961
 1254ERGO    R118794   0.473  12.731   6.246  0.0256  0.0725  0.0796
 1254ERGO    R218795   0.540  12.534   6.429  0.0829  0.0679  0.0485
 1254ERGO    R318796   0.557  12.744   6.600 -0.0081  0.0441  0.0896
 1254ERGO    R418797   0.555  12.507   6.773  0.2762 -0.0049  0.0363
 1254ERGO    R518798   0.423  12.680   6.787  0.1358 -0.1161  0.1431
 1254ERGO    C118799   0.581  12.689   7.134  0.3033 -0.0696  0.0678
 1254ERGO    C218800   0.666  12.483   7.311  0.1849 -0.2703  0.0008
 1255ERGO   ROH18801   7.622  12.423   5.916  0.0653  0.0703 -0.1385
 1255ERGO    R118802   7.679  12.402   6.193 -0.0092  0.0449 -0.1245
 1255ERGO    R218803   7.877  12.237   6.292 -0.1535 -0.1032 -0.0699
 1255ERGO    R318804   7.963  12.466   6.410 -0.0036 -0.1591 -0.0705
 1255ERGO    R418805   8.034  12.253   6.599 -0.2845 -0.1849  0.0017
 1255ERGO    R518806   7.918  12.433   6.643 -0.1434 -0.0744 -0.0865
 1255ERGO    C118807   8.206  12.477   6.890 -0.2202 -0.2847  0.0429
 1255ERGO    C218808   8.313  12.627   7.242 -0.0597  0.0780 -0.1328
 1256ERGO   ROH18809   8.693   6.696   6.442 -0.1099  0.1025  0.0477
 1256ERGO    R118810   8.717   6.574   6.697  0.0060 -0.0391 -0.0300
 1256ERGO    R218811   8.943   6.436   6.775  0.1539  0.1591 -0.1080
 1256ERGO    R318812   8.935   6.607   6.986 -0.0497  0.0131  0.0074
 1256ERGO    R418813   9.052   6.362   7.095  0.1431  0.0356 -0.1318
 1256ERGO    R518814   8.880   6.469   7.173  0.0251 -0.1676 -0.0982
 1256ERGO    C118815   9.108   6.480   7.479 -0.0546 -0.1734 -0.0373
 1256ERGO    C218816   9.159   6.650   7.732  0.2486 -0.1620  0.0159
 1257ERGO   ROH18817   6.966  11.749   5.831  0.1080 -0.0412  0.1031
 1257ERGO    R118818   6.875  11.800   6.094  0.1356 -0.2501  0.1549
 1257ERGO    R218819   6.980  11.672   6.315  0.5403 -0.0385  0.0924
 1257ERGO    R318820   7.019  11.926   6.403  0.0366  0.0540  0.0811
 1257ERGO    R418821   7.008  11.765   6.647  0.4985  0.0058  0.0839
 1257ERGO    R518822   6.888  11.942   6.603  0.0904 -0.2390  0.1454
 1257ERGO    C118823   7.061  12.058   6.922  0.0013  0.1184  0.0684
 1257ERGO    C218824   7.043  12.104   7.221 -0.1407 -0.0604 -0.1397
 1258ERGO   ROH18825  12.112  14.093   5.939  0.2095  0.0759 -0.2986
 1258ERGO    R118826  11.990  14.087   6.194  0.0766  0.1027 -0.3612
 1258ERGO    R218827  12.085  13.931   6.401 -0.1763 -0.0593 -0.3611
 1258ERGO    R318828  12.086  14.168   6.535 -0.0181 -0.1089 -0.2849
 1258ERGO    R418829  12.052  13.966   6.744 -0.1080 -0.1441 -0.3456
 1258ERGO    R518830  11.925  14.139   6.709 -0.0052 -0.0645 -0.2718
 1258ERGO    C118831  12.033  14.208   7.068  0.0804 -0.2400 -0.2651
 1258ERGO    C218832  12.144  14.230   7.350 -0.1690 -0.1013  0.2130
 1259ERGO   ROH18833  12.206  15.112   5.797 -0.0852  0.2424 -0.0851
 1259ERGO    R118834  12.195  15.201   6.065 -0.2349  0.2033 -0.0774
 1259ERGO    R218835  12.005  15.111   6.244 -0.2392  0.0594 -0.1541
 1259ERGO    R318836  12.223  15.051   6.395 -0.2514  0.1814 -0.0858
 1259ERGO    R418837  12.009  15.098   6.590 -0.3638 -0.0267 -0.1549
 1259ERGO    R518838  12.205  15.194   6.586 -0.4315  0.1198 -0.0546
 1259ERGO    C118839  12.216  15.034   6.933 -0.4480  0.0378 -0.0913
 1259ERGO    C218840  12.296  15.056   7.316  0.2739 -0.1236 -0.1727
 1260ERGO   ROH18841  13.403  14.679   6.273 -0.0470  0.0042  0.1373
 1260ERGO    R118842  13.571  14.640   6.498 -0.0175  0.2202  0.1560
 1260ERGO    R218843  13.519  14.752   6.745 -0.2664  0.0467  0.1871
 1260ERGO    R318844  13.539  14.495   6.830  0.1678  0.0441  0.0992
 1260ERGO    R418845  13.496  14.652   7.075 -0.4337 -0.1312  0.1234
 1260ERGO    R518846  13.658  14.511   7.037 -0.0920  0.2123  0.2416
 1260ERGO    C118847  13.502  14.353   7.347 -0.1237 -0.2372  0.0038
 1260ERGO    C218848  13.520  14.248   7.720  0.1708 -0.0430 -0.0818
 1261ERGO   ROH18849  15.589   9.381   5.856  0.0005  0.0402  0.0059
 1261ERGO    R118850  15.607   9.540   6.089 -0.0564  0.0182  0.0255
 1261ERGO    R218851  15.461   9.487   6.317 -0.0080 -0.0860  0.0340
 1261ERGO    R318852  15.705   9.492   6.436  0.0025  0.0197  0.0085
 1261ERGO    R418853  15.519   9.590   6.642 -0.0433 -0.2493  0.0936
 1261ERGO    R518854  15.701   9.690   6.572 -0.1266 -0.0701  0.1356
 1261ERGO    C118855  15.783   9.656   6.943 -0.0540 -0.2452  0.1045
 1261ERGO    C218856  15.874   9.700   7.248 -0.3460 -0.0022  0.0052
 1262ERGO   ROH18857  17.242  12.676   5.728 -0.5088  0.0802  0.0021
 1262ERGO    R118858  17.322  12.773   5.982 -0.2130  0.0451 -0.0745
 1262ERGO    R218859  17.152  12.780   6.199 -0.0365  0.2423  0.0603
 1262ERGO    R318860  17.352  12.641   6.319 -0.0712  0.0693 -0.0770
 1262ERGO    R418861  17.248  12.817   6.529 -0.0897 -0.1829  0.1302
 1262ERGO    R518862  17.456  12.800   6.465 -0.0801 -0.1226  0.1445
 1262ERGO    C118863  17.492  12.708   6.834 -0.1534 -0.5930  0.0420
 1262ERGO    C218864  17.537  12.677   7.246  0.1065 -0.0291 -0.0389
 1263ERGO   ROH18865   8.578   4.801   6.095 -0.2856  0.1546  0.0894
 1263ERGO    R118866   8.675   4.724   6.350 -0.1919  0.0601  0.0246
 1263ERGO    R218867   8.754   4.907   6.540 -0.1489 -0.0123  0.0709
 1263ERGO    R318868   8.577   4.772   6.697 -0.0792 -0.0956  0.0806
 1263ERGO    R418869   8.723   4.946   6.882 -0.1129 -0.0587  0.0805
 1263ERGO    R518870   8.697   4.730   6.900 -0.0315 -0.0740  0.0602
 1263ERGO    C118871   8.539   4.842   7.228 -0.0265 -0.1641  0.0952
 1263ERGO    C218872   8.487   4.938   7.593  0.1036 -0.1444 -0.0845
 1264ERGO   ROH18873   1.532  11.317   5.894 -0.1608  0.1249  0.0197
 1264ERGO    R118874   1.678  11.315   6.137 -0.0310  0.1665 -0.0565
 1264ERGO    R218875   1.691  11.535   6.304 -0.2004  0.1000  0.0535
 1264ERGO    R318876   1.604  11.358   6.491  0.0987 -0.1056  0.0046
 1264ERGO    R418877   1.745  11.564   6.644 -0.4905  0.2443  0.0901
 1264ERGO    R518878   1.781  11.349   6.652  0.0201  0.3241  0.1209
 1264ERGO    C118879   1.695  11.415   7.017 -0.3787  0.1353  0.0657
 1264ERGO    C218880   1.795  11.432   7.413 -0.2264  0.1314 -0.0506
 1265ERGO   ROH18881   4.149  14.392   5.668  0.1120  0.2524  0.0610
 1265ERGO    R118882   4.101  14.514   5.919  0.0560  0.1185  0.1161
 1265ERGO    R218883   3.900  14.430   6.089 -0.0110  0.0563  0.0066
 1265ERGO    R318884   4.104  14.411   6.268 -0.0697 -0.0801  0.0604
 1265ERGO    R418885   3.869  14.476   6.430 -0.0492  0.2082 -0.0168
 1265ERGO    R518886   4.059  14.583   6.428  0.0583  0.0235 -0.0114
 1265ERGO    C118887   4.042  14.485   6.796 -0.1265  0.1686  0.0201
 1265ERGO    C218888   4.032  14.536   7.095 -0.2960  0.2355 -0.0533
 1266ERGO   ROH18889  14.100  15.265   6.034  0.0117  0.0816  0.1308
 1266ERGO    R118890  14.201  15.191   6.288  0.2095  0.1596  0.0763
 1266ERGO    R218891  14.347  15.364   6.446 -0.1988  0.4239  0.1745
 1266ERGO    R318892  14.158  15.302   6.632 -0.0483 -0.1600  0.1531
 1266ERGO    R418893  14.365  15.446   6.781 -0.3899  0.2861  0.2212
 1266ERGO    R518894  14.283  15.250   6.829  0.1005  0.0398  0.1162
 1266ERGO    C118895  14.198  15.436   7.151 -0.3600 -0.3423  0.2282
 1266ERGO    C218896  14.273  15.492   7.438  0.1807  0.1140  0.2595
 1267ERGO   ROH18897  10.373   9.228   6.495  0.2231 -0.0934  0.0772
 1267ERGO    R118898  10.222   9.231   6.735  0.0961 -0.1955 -0.0008
 1267ERGO    R218899  10.219   9.018   6.912  0.3839 -0.0855  0.1384
 1267ERGO    R318900  10.291   9.209   7.091 -0.0397  0.1688  0.0529
 1267ERGO    R418901  10.133   9.017   7.246  0.4348 -0.1680  0.1516
 1267ERGO    R518902  10.100   9.232   7.234 -0.0859 -0.2364  0.0713
 1267ERGO    C118903  10.150   9.195   7.610  0.0668  0.0227  0.0791
 1267ERGO    C218904  10.184   9.225   7.979 -0.2121 -0.0186 -0.0995
 1268ERGO   ROH18905   1.024   9.719   5.717 -0.0482  0.0657  0.0600
 1268ERGO    R118906   0.886   9.635   5.950 -0.1305  0.2524  0.0802
 1268ERGO    R218907   1.016   9.534   6.172 -0.2416 -0.0932 -0.0067
 1268ERGO    R318908   0.879   9.730   6.301  0.1938  0.1408  0.1201
 1268ERGO    R418909   0.977   9.554   6.515 -0.2641 -0.2831  0.0025
 1268ERGO    R518910   0.771   9.616   6.482 -0.1206  0.2421  0.0035
 1268ERGO    C118911   0.826   9.749   6.836  0.1315 -0.1739  0.1269
 1268ERGO    C218912   0.820   9.829   7.197 -0.2252  0.0538 -0.1676
 1269ERGO   ROH18913   2.781  17.825   6.098 -0.2423  0.0642 -0.0045
 1269ERGO    R118914   2.621  17.867   6.327 -0.2066 -0.0113  0.0346
 1269ERGO    R218915   2.631  17.702   6.549 -0.0502  0.0127  0.0457
 1269ERGO    R318916   2.677  17.935   6.680 -0.1529  0.0512  0.0144
 1269ERGO    R418917   2.579  17.753   6.887 -0.1050  0.0432  0.0326
 1269ERGO    R518918   2.500  17.950   6.840 -0.1762  0.0070 -0.0061
 1269ERGO    C118919   2.592  18.002   7.207 -0.2333  0.0970 -0.0042
 1269ERGO    C218920   2.904  18.099   7.465 -0.1303 -0.2066  0.0179
 1270ERGO   ROH18921  15.599  13.294   6.169  0.1716  0.3383  0.1746
 1270ERGO    R118922  15.689  13.155   6.399  0.1640  0.1185  0.0467
 1270ERGO    R218923  15.866  13.265   6.580  0.1560 -0.0520  0.1605
 1270ERGO    R318924  15.672  13.200   6.759  0.1494 -0.2260  0.0930
 1270ERGO    R418925  15.923  13.115   6.886  0.2056  0.1518  0.2529
 1270ERGO    R518926  15.745  12.992   6.853  0.3765 -0.0949  0.2170
 1270ERGO    C118927  15.774  12.967   7.233  0.2283  0.1071  0.2432
 1270ERGO    C218928  15.747  13.089   7.663 -0.0284  0.0372 -0.0777
 1271ERGO   ROH18929  12.096   0.731   5.921 -0.1313  0.0717 -0.0553
 1271ERGO    R118930  12.130   0.846   6.177 -0.1352  0.1560 -0.0921
 1271ERGO    R218931  11.919   0.942   6.327 -0.1621  0.0294 -0.0440
 1271ERGO    R318932  12.019   0.775   6.517  0.0282  0.1457 -0.0404
 1271ERGO    R418933  11.821   0.939   6.659 -0.1537 -0.0725 -0.0426
 1271ERGO    R518934  12.030   0.910   6.715 -0.1196  0.1631 -0.0446
 1271ERGO    C118935  11.859   0.780   7.030  0.0301 -0.0227 -0.0382
 1271ERGO    C218936  11.657   0.740   7.257 -0.2103 -0.3318  0.0402
 1272ERGO   ROH18937   9.103  17.596   5.839 -0.1354  0.0221 -0.0733
 1272ERGO    R118938   9.030  17.468   6.080  0.0337 -0.1234 -0.0980
 1272ERGO    R218939   9.215  17.353   6.250  0.1918  0.1188 -0.1068
 1272ERGO    R318940   9.098  17.514   6.435 -0.0559 -0.0795 -0.0854
 1272ERGO    R418941   9.262  17.329   6.592  0.3113  0.2015 -0.1161
 1272ERGO    R518942   9.049  17.369   6.619  0.2381 -0.1698 -0.0713
 1272ERGO    C118943   9.178  17.467   6.964  0.1485  0.0635 -0.1013
 1272ERGO    C218944   9.067  17.466   7.214  0.1001  0.0332 -0.0640
 1273ERGO   ROH18945   4.999   1.634   5.806 -0.0844  0.3751  0.0381
 1273ERGO    R118946   4.879   1.648   6.062  0.0225  0.2814  0.0935
 1273ERGO    R218947   4.796   1.424   6.199 -0.0806  0.2436 -0.0325
 1273ERGO    R318948   4.954   1.525   6.396  0.0639 -0.0029 -0.0175
 1273ERGO    R418949   4.796   1.317   6.528 -0.2665  0.2270 -0.0364
 1273ERGO    R518950   4.815   1.525   6.591  0.0460  0.2009 -0.0269
 1273ERGO    C118951   4.944   1.349   6.904 -0.2392 -0.0141 -0.0246
 1273ERGO    C218952   4.862   1.204   7.319 -0.1726 -0.2217  0.0326
 1274ERGO   ROH18953   1.745   2.344   5.871  0.1914  0.0352  0.0608
 1274ERGO    R118954   1.597   2.488   6.064  0.3056  0.1487  0.0646
 1274ERGO    R218955   1.366   2.388   6.180  0.1415  0.3889 -0.0492
 1274ERGO    R318956   1.499   2.441   6.411  0.1329  0.1395  0.0158
 1274ERGO    R418957   1.225   2.379   6.495  0.0931  0.1854 -0.0752
 1274ERGO    R518958   1.339   2.557   6.546  0.1630  0.0963  0.0907
 1274ERGO    C118959   1.266   2.423   6.896  0.0568 -0.1673 -0.0294
 1274ERGO    C218960   1.296   2.417   7.281  0.2108 -0.0466  0.2930
 1275ERGO   ROH18961   3.745   3.754   5.891 -0.1073  0.1566  0.1236
 1275ERGO    R118962   3.809   3.663   6.151  0.0063  0.1332  0.0887
 1275ERGO    R218963   3.704   3.779   6.379  0.0481  0.0676  0.1457
 1275ERGO    R318964   3.629   3.523   6.434  0.1397  0.0369  0.1260
 1275ERGO    R418965   3.719   3.632   6.691  0.0703  0.0535  0.1374
 1275ERGO    R518966   3.789   3.448   6.596  0.1485  0.0872  0.1371
 1275ERGO    C118967   3.658   3.306   6.925  0.1694  0.0165  0.1142
 1275ERGO    C218968   3.401   3.153   7.145 -0.1488 -0.0233 -0.1188
 1276ERGO   ROH18969   2.713   0.527   5.660 -0.0048  0.1094 -0.0136
 1276ERGO    R118970   2.792   0.462   5.924  0.0724  0.0484 -0.0500
 1276ERGO    R218971   2.939   0.635   6.081  0.0237  0.0601 -0.0105
 1276ERGO    R318972   2.735   0.597   6.257  0.0699 -0.0975  0.0084
 1276ERGO    R418973   2.974   0.633   6.425  0.0308  0.2581 -0.0097
 1276ERGO    R518974   2.833   0.466   6.433  0.2251  0.0965  0.0677
 1276ERGO    C118975   2.803   0.595   6.790  0.0783  0.2255  0.0085
 1276ERGO    C218976   2.766   0.633   7.085  0.0829 -0.0955  0.1357
 1277ERGO   ROH18977  13.347   3.753   5.651 -0.0030 -0.1534  0.1163
 1277ERGO    R118978  13.415   3.874   5.897  0.1704 -0.2485  0.1173
 1277ERGO    R218979  13.237   4.030   6.041  0.4250  0.1180  0.0536
 1277ERGO    R318980  13.298   3.857   6.241  0.0451  0.0175  0.0898
 1277ERGO    R418981  13.179   4.088   6.377  0.3108  0.1918  0.0215
 1277ERGO    R518982  13.372   3.997   6.421  0.1496 -0.1001  0.1372
 1277ERGO    C118983  13.203   3.960   6.760 -0.1123  0.1404  0.0368
 1277ERGO    C218984  13.158   3.984   7.062 -0.3513 -0.3078  0.1101
 1278ERGO   ROH18985  13.302   7.426   6.293  0.1039  0.1820  0.0872
 1278ERGO    R118986  13.282   7.273   6.531  0.1390  0.1442  0.0664
 1278ERGO    R218987  13.425   7.333   6.759 -0.0129  0.2581  0.1352
 1278ERGO    R318988  13.180   7.332   6.875 -0.0650  0.0266  0.0275
 1278ERGO    R418989  13.368   7.312   7.099 -0.1437  0.2044  0.1098
 1278ERGO    R518990  13.201   7.178   7.057 -0.0003  0.0462  0.0359
 1278ERGO    C118991  13.103   7.298   7.406 -0.2687 -0.0442 -0.0060
 1278ERGO    C218992  13.176   7.358   7.733  0.2682  0.2353  0.0428
 1279ERGO   ROH18993   2.268  13.478   5.820  0.0036  0.0083 -0.1610
 1279ERGO    R118994   2.237  13.473   6.102  0.0012  0.0242 -0.1606
 1279ERGO    R218995   2.400  13.322   6.266 -0.0585 -0.0405 -0.1572
 1279ERGO    R318996   2.440  13.560   6.391  0.0373 -0.0536 -0.1629
 1279ERGO    R418997   2.344  13.380   6.602 -0.2774  0.0583 -0.2091
 1279ERGO    R518998   2.261  13.574   6.550 -0.0768  0.1186 -0.3060
 1279ERGO    C118999   2.349  13.637   6.915 -0.3148  0.1035 -0.2446
 1279ERGO    C219000   2.389  13.555   7.251 -0.3096 -0.4166 -0.1182
 1280ERGO   ROH19001   2.851  14.912   5.662 -0.0481 -0.2153  0.0425
 1280ERGO    R119002   2.743  14.985   5.914 -0.0197 -0.1343  0.0317
 1280ERGO    R219003   2.504  14.885   6.008 -0.0595 -0.0267  0.0483
 1280ERGO    R319004   2.655  14.815   6.223 -0.0858 -0.0523  0.0580
 1280ERGO    R419005   2.401  14.909   6.337 -0.1078 -0.0878  0.0376
 1280ERGO    R519006   2.601  14.979   6.389 -0.1201 -0.0836  0.0777
 1280ERGO    C119007   2.483  14.857   6.730 -0.1607 -0.1476  0.0406
 1280ERGO    C219008   2.394  14.775   6.900 -0.0504  0.0656  0.1658
 1281ERGO   ROH19009   0.857   4.140   6.077  0.0688 -0.1513  0.0093
 1281ERGO    R119010   0.968   4.194   6.332  0.0933  0.0445 -0.0409
 1281ERGO    R219011   0.821   4.305   6.538  0.0569  0.0106 -0.0501
 1281ERGO    R319012   0.907   4.086   6.674  0.2706  0.1362  0.0210
 1281ERGO    R419013   0.807   4.269   6.881 -0.2227 -0.0201 -0.0625
 1281ERGO    R519014   1.004   4.176   6.874 -0.0614  0.2870  0.1231
 1281ERGO    C119015   0.880   4.043   7.209 -0.1849  0.0799 -0.0030
 1281ERGO    C219016   0.888   4.049   7.558 -0.0291 -0.3045  0.0245
 1282ERGO   ROH19017   4.773  17.467   5.823 -0.3651 -0.0168  0.0100
 1282ERGO    R119018   4.765  17.313   6.061 -0.1337  0.0302  0.0515
 1282ERGO    R219019   4.989  17.270   6.218 -0.0134  0.2118 -0.0565
 1282ERGO    R319020   4.830  17.370   6.414  0.0250  0.1565  0.0016
 1282ERGO    R419021   5.035  17.217   6.556 -0.2154 -0.2491 -0.0955
 1282ERGO    R519022   4.819  17.195   6.577 -0.2450 -0.0270 -0.2108
 1282ERGO    C119023   4.913  17.278   6.937 -0.2970 -0.5692 -0.0637
 1282ERGO    C219024   4.986  17.257   7.291 -0.0399 -0.3949 -0.0034
 1283ERGO   ROH19025  18.313  10.336   5.932 -0.1252 -0.2192 -0.0788
 1283ERGO    R119026  18.426  10.208   6.158  0.0124 -0.0019 -0.0221
 1283ERGO    R219027  18.468  10.339   6.397 -0.2532  0.1138 -0.0368
 1283ERGO    R319028  18.323  10.133   6.499  0.0340 -0.0935 -0.0355
 1283ERGO    R419029  18.430  10.271   6.734 -0.2718  0.1499 -0.0313
 1283ERGO    R519030  18.450  10.059   6.688  0.0848  0.1612  0.0342
 1283ERGO    C119031  18.273  10.038   7.025 -0.0127 -0.0236 -0.0268
 1283ERGO    C219032  18.339   9.954   7.344  0.0857 -0.4427 -0.0668
 1284ERGO   ROH19033  11.868   0.302   5.982 -0.0456  0.1456 -0.1460
 1284ERGO    R119034  11.854   0.420   6.239 -0.1475  0.2460 -0.1952
 1284ERGO    R219035  11.615   0.455   6.374 -0.1814  0.0612 -0.1912
 1284ERGO    R319036  11.743   0.318   6.571 -0.0212  0.2729 -0.1461
 1284ERGO    R419037  11.524   0.455   6.707 -0.1781  0.0510 -0.1914
 1284ERGO    R519038  11.735   0.463   6.760 -0.1921  0.3163 -0.1916
 1284ERGO    C119039  11.591   0.327   7.086 -0.0258  0.2438 -0.1491
 1284ERGO    C219040  11.471   0.183   7.396  0.1908 -0.0641  0.0486
 1285ERGO   ROH19041  15.304   4.048   5.857  0.1448 -0.0636 -0.1783
 1285ERGO    R119042  15.342   3.798   5.984  0.0500 -0.0502 -0.1187
 1285ERGO    R219043  15.594   3.688   6.025  0.0197 -0.0961 -0.0059
 1285ERGO    R319044  15.510   3.677   6.283 -0.0810 -0.0260 -0.0367
 1285ERGO    R419045  15.766   3.535   6.282 -0.0789 -0.0067  0.1127
 1285ERGO    R519046  15.577   3.460   6.358 -0.0988  0.0059  0.0578
 1285ERGO    C119047  15.789   3.435   6.674 -0.2307  0.1112  0.1529
 1285ERGO    C219048  15.886   3.354   7.008 -0.0876 -0.1726 -0.0996
 1286ERGO   ROH19049  18.100  18.149   5.591  0.0560  0.0087 -0.0431
 1286ERGO    R119050  18.163  18.093   5.861 -0.0634 -0.0428 -0.0251
 1286ERGO    R219051  18.373  18.215   5.993 -0.0164 -0.1923  0.0417
 1286ERGO    R319052  18.179  18.281   6.172 -0.0257 -0.0621 -0.0157
 1286ERGO    R419053  18.428  18.289   6.327 -0.0514 -0.0927  0.0257
 1286ERGO    R519054  18.248  18.177   6.376 -0.0984 -0.0130  0.0339
 1286ERGO    C119055  18.278  18.393   6.689 -0.0802  0.0877 -0.0375
 1286ERGO    C219056  18.335  18.300   7.014 -0.1496  0.0730  0.1404
 1287ERGO   ROH19057   0.144  12.786   5.927  0.2886 -0.1205  0.1525
 1287ERGO    R119058   0.052  12.910   6.164  0.1036 -0.0582  0.0480
 1287ERGO    R219059  -0.106  12.779   6.350  0.1083 -0.0624  0.0390
 1287ERGO    R319060   0.089  12.857   6.522 -0.0227  0.1519  0.0960
 1287ERGO    R419061  -0.119  12.743   6.693  0.1443 -0.3202  0.0163
 1287ERGO    R519062  -0.030  12.940   6.713 -0.1817 -0.1703  0.1506
 1287ERGO    C119063   0.056  12.795   7.055  0.0423 -0.2691  0.0564
 1287ERGO    C219064   0.121  12.683   7.393 -0.0705 -0.1588 -0.2006
 1288ERGO   ROH19065   8.844   9.298   6.083  0.0468 -0.1388  0.0408
 1288ERGO    R119066   8.786   9.414   6.334 -0.0344 -0.1328  0.0205
 1288ERGO    R219067   8.533   9.410   6.445 -0.0628 -0.1777 -0.0335
 1288ERGO    R319068   8.663   9.300   6.657 -0.0834 -0.1383 -0.0016
 1288ERGO    R419069   8.420   9.419   6.772 -0.0811 -0.1112 -0.0424
 1288ERGO    R519070   8.626   9.454   6.836 -0.0892 -0.1058 -0.0352
 1288ERGO    C119071   8.477   9.320   7.160 -0.1111 -0.0355 -0.0174
 1288ERGO    C219072   8.277   9.181   7.328 -0.0323  0.1527  0.0395
 1289ERGO   ROH19073   5.080   0.051   5.882 -0.3679 -0.0716 -0.1310
 1289ERGO    R119074   4.995  -0.026   6.141 -0.0612 -0.2983 -0.0926
 1289ERGO    R219075   5.155  -0.172   6.313  0.3723  0.0402 -0.1887
 1289ERGO    R319076   5.104   0.034   6.483 -0.0119 -0.0840 -0.1448
 1289ERGO    R419077   5.199  -0.184   6.655  0.4635  0.0737 -0.1986
 1289ERGO    R519078   5.013  -0.072   6.678  0.2357 -0.3018 -0.1438
 1289ERGO    C119079   5.176   0.001   7.015  0.1559 -0.0234 -0.1631
 1289ERGO    C219080   5.289   0.169   7.334  0.1662 -0.0613  0.1965
 1290ERGO   ROH19081  12.120   3.718   5.397 -0.0481 -0.1183 -0.1104
 1290ERGO    R119082  12.182   3.918   5.587  0.0012 -0.1768 -0.0621
 1290ERGO    R219083  11.996   4.012   5.769 -0.0345 -0.0407 -0.1547
 1290ERGO    R319084  12.187   3.945   5.950 -0.1856 -0.2119 -0.0585
 1290ERGO    R419085  12.053   4.178   6.067  0.2903  0.2069 -0.3481
 1290ERGO    R519086  12.267   4.155   6.033  0.2446 -0.2742 -0.3062
 1290ERGO    C119087  12.264   4.212   6.410  0.3376  0.1904 -0.3706
 1290ERGO    C219088  12.170   4.224   6.751 -0.0198  0.0464 -0.1836
 1291ERGO   ROH19089   8.699   0.481   5.826 -0.1336  0.4331 -0.1023
 1291ERGO    R119090   8.721   0.381   6.090 -0.0540  0.3066 -0.1564
 1291ERGO    R219091   8.851   0.518   6.291 -0.1024  0.2675 -0.1012
 1291ERGO    R319092   8.615   0.485   6.422 -0.0707  0.0798 -0.0878
 1291ERGO    R419093   8.814   0.517   6.635 -0.0900  0.3516 -0.0991
 1291ERGO    R519094   8.671   0.353   6.614  0.0672  0.1991 -0.0415
 1291ERGO    C119095   8.571   0.485   6.958 -0.0529  0.2243 -0.0853
 1291ERGO    C219096   8.426   0.321   7.269 -0.0732  0.0156 -0.2372
 1292ERGO   ROH19097  10.385   6.437   6.426 -0.0387 -0.1111 -0.1852
 1292ERGO    R119098  10.532   6.396   6.664 -0.1206 -0.0423 -0.1224
 1292ERGO    R219099  10.419   6.423   6.916 -0.1862  0.1077 -0.1695
 1292ERGO    R319100  10.515   6.171   6.950 -0.2674  0.0955 -0.0192
 1292ERGO    R419101  10.600   6.315   7.190 -0.2662  0.2051 -0.0777
 1292ERGO    R519102  10.728   6.201   7.056 -0.2745  0.0927  0.0018
 1292ERGO    C119103  10.794   6.016   7.382 -0.3890  0.2504  0.1168
 1292ERGO    C219104  10.772   6.058   7.690 -0.2662 -0.1158  0.2626
 1293ERGO   ROH19105  17.670  15.674   5.837 -0.0106 -0.1449  0.0966
 1293ERGO    R119106  17.659  15.805   6.088 -0.1528 -0.0265  0.0298
 1293ERGO    R219107  17.420  15.865   6.214 -0.2219 -0.3435  0.0601
 1293ERGO    R319108  17.532  15.729   6.421  0.0589 -0.0571  0.1047
 1293ERGO    R419109  17.277  15.827   6.526  0.0037 -0.2723  0.1738
 1293ERGO    R519110  17.474  15.857   6.615  0.0242  0.0255  0.0397
 1293ERGO    C119111  17.299  15.678   6.902  0.3986  0.0379  0.2819
 1293ERGO    C219112  17.378  15.541   7.218  0.3125  0.0515 -0.0388
 1294ERGO   ROH19113  12.528  12.995   6.191  0.2439  0.1339 -0.0691
 1294ERGO    R119114  12.641  12.981   6.450  0.1950  0.0056 -0.0546
 1294ERGO    R219115  12.610  13.181   6.638  0.3195 -0.0020 -0.0256
 1294ERGO    R319116  12.518  12.977   6.793  0.1431  0.0420 -0.0736
 1294ERGO    R419117  12.650  13.159   6.980  0.0160  0.0383  0.0158
 1294ERGO    R519118  12.689  12.946   6.957 -0.0083  0.0300  0.0816
 1294ERGO    C119119  12.588  12.956   7.325 -0.3264  0.1032 -0.0052
 1294ERGO    C219120  12.542  12.967   7.653  0.1376 -0.2370 -0.0182
 1295ERGO   ROH19121   7.531  14.001   5.926  0.0480 -0.0051  0.0566
 1295ERGO    R119122   7.562  14.209   6.117  0.2974  0.0066  0.0080
 1295ERGO    R219123   7.373  14.261   6.312  0.1767  0.5109 -0.2257
 1295ERGO    R319124   7.585  14.233   6.479 -0.0666  0.0880  0.0294
 1295ERGO    R419125   7.390  14.389   6.632  0.1160  0.6455 -0.2766
 1295ERGO    R519126   7.598  14.443   6.594  0.3008  0.1307 -0.0755
 1295ERGO    C119127   7.599  14.438   6.976 -0.1477  0.3268 -0.0666
 1295ERGO    C219128   7.768  14.474   7.259 -0.1793 -0.2040 -0.0419
 1296ERGO   ROH19129  18.296   3.754   5.638  0.3469  0.1261 -0.1153
 1296ERGO    R119130  18.328   3.827   5.909  0.1867  0.0961 -0.0869
 1296ERGO    R219131  18.166   3.728   6.111  0.1419 -0.0199 -0.1757
 1296ERGO    R319132  18.403   3.656   6.222  0.1288  0.0786 -0.0834
 1296ERGO    R419133  18.220   3.681   6.449 -0.0011 -0.1393 -0.1686
 1296ERGO    R519134  18.413   3.779   6.427 -0.0525 -0.0096 -0.0226
 1296ERGO    C119135  18.474   3.586   6.750 -0.0968 -0.1162 -0.0777
 1296ERGO    C219136  18.509   3.580   7.102  0.3168  0.2708  0.0927
 1297ERGO   ROH19137  16.154   6.231   6.178  0.1590 -0.2596 -0.0882
 1297ERGO    R119138  16.142   6.169   6.454  0.0278 -0.3107 -0.1059
 1297ERGO    R219139  16.309   5.983   6.572  0.1744 -0.1076 -0.0044
 1297ERGO    R319140  16.367   6.190   6.739 -0.2178 -0.0605  0.0757
 1297ERGO    R419141  16.476   5.953   6.873  0.3557  0.0881 -0.0823
 1297ERGO    R519142  16.339   6.098   6.959  0.0578 -0.2490  0.0419
 1297ERGO    C119143  16.628   6.129   7.205  0.0933  0.2464 -0.0525
 1297ERGO    C219144  16.770   6.254   7.584 -0.1511  0.1303  0.0417
 1298ERGO   ROH19145  16.722  10.536   5.609  0.0421  0.2483 -0.0230
 1298ERGO    R119146  16.758  10.463   5.880 -0.0512  0.1098 -0.0475
 1298ERGO    R219147  16.962  10.565   6.036 -0.0211 -0.0756  0.0349
 1298ERGO    R319148  16.758  10.631   6.203 -0.0133 -0.0290  0.0265
 1298ERGO    R419149  17.000  10.671   6.363 -0.0054 -0.0324  0.0194
 1298ERGO    R519150  16.827  10.550   6.417 -0.0196 -0.0064  0.0383
 1298ERGO    C119151  16.830  10.795   6.710  0.0111  0.0366  0.0025
 1298ERGO    C219152  17.120  10.864   6.966 -0.0531 -0.0251 -0.0004
 1299ERGO   ROH19153   7.558   9.695   6.432 -0.0885  0.0077 -0.0128
 1299ERGO    R119154   7.405   9.758   6.663 -0.0237 -0.0017  0.0341
 1299ERGO    R219155   7.263   9.568   6.804 -0.1097  0.0138 -0.0191
 1299ERGO    R319156   7.406   9.664   7.014 -0.0220 -0.1452 -0.0059
 1299ERGO    R419157   7.169   9.542   7.135 -0.2028  0.2003 -0.0305
 1299ERGO    R519158   7.240   9.745   7.166  0.0643  0.1046 -0.0500
 1299ERGO    C119159   7.248   9.617   7.526 -0.1746  0.1596 -0.0245
 1299ERGO    C219160   7.093   9.637   7.889 -0.3250 -0.0070  0.1395
 1300ERGO   ROH19161   8.043   7.765   6.226  0.0371  0.2259  0.1127
 1300ERGO    R119162   8.111   7.799   6.499  0.0485  0.0507  0.1321
 1300ERGO    R219163   8.024   7.627   6.696  0.0816 -0.0914  0.0191
 1300ERGO    R319164   8.289   7.609   6.753  0.0868 -0.0979 -0.0028
 1300ERGO    R419165   8.156   7.579   7.012  0.1084  0.0871  0.0369
 1300ERGO    R519166   8.313   7.722   6.963  0.1276  0.0340 -0.0741
 1300ERGO    C119167   8.482   7.535   7.249  0.1289  0.1849  0.0267
 1300ERGO    C219168   8.573   7.338   7.473  0.2150 -0.2374  0.1512
 1301ERGO   ROH19169   7.171   4.142   5.834  0.1310  0.0295 -0.0803
 1301ERGO    R119170   7.270   4.148   6.099  0.0573 -0.0555 -0.0512
 1301ERGO    R219171   7.140   4.282   6.303  0.0287 -0.0791 -0.0586
 1301ERGO    R319172   7.155   4.040   6.426 -0.0562 -0.1109 -0.1079
 1301ERGO    R419173   7.088   4.228   6.641 -0.0762 -0.1390 -0.0830
 1301ERGO    R519174   7.254   4.087   6.639 -0.1028 -0.1757 -0.0686
 1301ERGO    C119175   7.072   3.970   6.953 -0.2169 -0.2037 -0.1435
 1301ERGO    C219176   7.122   3.976   7.234 -0.2281 -0.1130  0.0944
 1302ERGO   ROH19177  16.514   2.591   5.613  0.1423 -0.1778 -0.0518
 1302ERGO    R119178  16.575   2.774   5.820  0.1491 -0.1893 -0.0438
 1302ERGO    R219179  16.454   2.765   6.068  0.0601 -0.1215 -0.0845
 1302ERGO    R319180  16.711   2.757   6.157  0.0270 -0.2234  0.0039
 1302ERGO    R419181  16.562   2.891   6.371  0.0307 -0.0426 -0.1062
 1302ERGO    R519182  16.741   2.965   6.271  0.1055 -0.1874 -0.0819
 1302ERGO    C119183  16.866   2.956   6.631 -0.0172 -0.0923 -0.0358
 1302ERGO    C219184  16.757   2.758   6.894 -0.2986 -0.0579  0.2610
 1303ERGO   ROH19185   1.912   4.886   5.904  0.0730 -0.0909 -0.0246
 1303ERGO    R119186   1.999   4.906   6.172  0.0980 -0.1083 -0.0313
 1303ERGO    R219187   1.836   5.000   6.374  0.1721  0.0437 -0.0405
 1303ERGO    R319188   1.902   4.765   6.493  0.0071  0.0149 -0.0037
 1303ERGO    R419189   1.783   4.926   6.708  0.1154  0.1303 -0.0300
 1303ERGO    R519190   1.978   4.828   6.712  0.0478 -0.0047 -0.0124
 1303ERGO    C119191   1.814   4.662   7.014 -0.0726  0.1538  0.0107
 1303ERGO    C219192   1.653   4.596   7.323 -0.0283  0.3056  0.2246
 1304ERGO   ROH19193   1.383   1.111   5.711 -0.0100  0.0447  0.0077
 1304ERGO    R119194   1.284   1.210   5.957 -0.0025  0.1741 -0.0400
 1304ERGO    R219195   1.353   1.100   6.201 -0.2897  0.0554 -0.0042
 1304ERGO    R319196   1.424   1.356   6.259  0.0491 -0.0450  0.0422
 1304ERGO    R419197   1.337   1.242   6.515 -0.1565  0.0457  0.0070
 1304ERGO    R519198   1.263   1.426   6.424  0.1132  0.1575  0.0171
 1304ERGO    C119199   1.394   1.564   6.754  0.2393 -0.0543  0.0572
 1304ERGO    C219200   1.610   1.556   7.038 -0.0519 -0.2143 -0.0557
 1305ERGO   ROH19201   9.567   4.084   5.631 -0.3946 -0.0345  0.0036
 1305ERGO    R119202   9.740   4.003   5.839 -0.2011 -0.1102 -0.1829
 1305ERGO    R219203   9.722   4.104   6.095  0.1417 -0.0775 -0.1660
 1305ERGO    R319204   9.707   3.842   6.163  0.0753 -0.0639 -0.1290
 1305ERGO    R419205   9.832   3.971   6.395  0.0530 -0.0542 -0.1232
 1305ERGO    R519206   9.909   3.800   6.285  0.0413 -0.0862 -0.0807
 1305ERGO    C119207   9.881   3.647   6.633 -0.0612 -0.0279 -0.0635
 1305ERGO    C219208   9.858   3.635   6.920 -0.3103  0.1876  0.3406
 1306ERGO   ROH19209  17.956  16.729   5.726 -0.2169  0.1655  0.1042
 1306ERGO    R119210  17.915  16.642   5.992  0.0518  0.0623  0.1144
 1306ERGO    R219211  18.046  16.754   6.207 -0.1172  0.3393  0.0735
 1306ERGO    R319212  17.794  16.788   6.303 -0.1710 -0.2054  0.1586
 1306ERGO    R419213  17.968  16.830   6.536 -0.1470  0.3567  0.0629
 1306ERGO    R519214  17.800  16.691   6.522  0.1651 -0.0659  0.2205
 1306ERGO    C119215  17.686  16.905   6.816 -0.2147 -0.1443  0.1366
 1306ERGO    C219216  17.746  16.970   7.100 -0.0316  0.1461  0.1882
 1307ERGO   ROH19217   7.394  13.592   6.071  0.0990 -0.0708  0.0111
 1307ERGO    R119218   7.436  13.776   6.282 -0.0412 -0.0341  0.0083
 1307ERGO    R219219   7.235  13.852   6.455 -0.1097 -0.1584 -0.0119
 1307ERGO    R319220   7.413  13.773   6.645 -0.0731 -0.0372  0.0054
 1307ERGO    R419221   7.217  13.935   6.790 -0.0690  0.0054 -0.0490
 1307ERGO    R519222   7.433  13.962   6.790 -0.0764  0.0355 -0.0919
 1307ERGO    C119223   7.373  13.909   7.163 -0.0109  0.2147 -0.0545
 1307ERGO    C219224   7.420  14.128   7.421  0.0024 -0.0801 -0.1476
 1308ERGO   ROH19225   5.300   7.858   6.045  0.2684  0.2691 -0.1358
 1308ERGO    R119226   5.327   7.698   6.277 -0.1816  0.1564 -0.1508
 1308ERGO    R219227   5.528   7.739   6.462 -0.0753 -0.4042 -0.1291
 1308ERGO    R319228   5.320   7.751   6.637 -0.0706  0.1374 -0.1448
 1308ERGO    R419229   5.559   7.738   6.807 -0.0956 -0.3680 -0.1269
 1308ERGO    R519230   5.385   7.607   6.817 -0.4137  0.0329 -0.0952
 1308ERGO    C119231   5.382   7.750   7.171 -0.1030  0.1614 -0.1404
 1308ERGO    C219232   5.263   7.782   7.412  0.0903  0.0733 -0.2094
 1309ERGO   ROH19233  12.174   1.767   5.937 -0.0544  0.0187 -0.1345
 1309ERGO    R119234  12.145   1.906   6.182 -0.0257 -0.0057 -0.1162
 1309ERGO    R219235  11.968   1.825   6.379 -0.0755  0.0291 -0.1402
 1309ERGO    R319236  12.190   1.830   6.535 -0.0841 -0.0768 -0.1250
 1309ERGO    R419237  11.966   1.817   6.724 -0.0947  0.0532 -0.1404
 1309ERGO    R519238  12.127   1.965   6.723 -0.0211 -0.0342 -0.1388
 1309ERGO    C119239  12.173   1.818   7.073 -0.1142 -0.0322 -0.1262
 1309ERGO    C219240  12.149   1.914   7.438  0.0848  0.1476 -0.0637
 1310ERGO   ROH19241  11.669  16.300   5.917  0.1854 -0.0178 -0.0871
 1310ERGO    R119242  11.692  16.191   6.178  0.0732 -0.0105 -0.0737
 1310ERGO    R219243  11.936  16.124   6.290  0.0203 -0.0592  0.0115
 1310ERGO    R319244  11.851  16.286   6.491 -0.0112 -0.0311 -0.0241
 1310ERGO    R419245  12.048  16.110   6.616 -0.0028  0.0103  0.0227
 1310ERGO    R519246  11.844  16.144   6.683 -0.0118  0.0023  0.0011
 1310ERGO    C119247  12.034  16.254   6.995 -0.0457  0.0771 -0.0041
 1310ERGO    C219248  12.215  16.386   7.215 -0.1672 -0.1500  0.0997
 1311ERGO   ROH19249   3.730  17.228   5.774 -0.1207 -0.2287 -0.0863
 1311ERGO    R119250   3.746  17.400   5.998 -0.0189 -0.0863 -0.2015
 1311ERGO    R219251   3.592  17.365   6.224 -0.1116  0.2136 -0.2147
 1311ERGO    R319252   3.833  17.370   6.350 -0.1384  0.0770 -0.1562
 1311ERGO    R419253   3.638  17.431   6.560 -0.1582  0.1822 -0.2021
 1311ERGO    R519254   3.814  17.549   6.508 -0.0784  0.0861 -0.1579
 1311ERGO    C119255   3.891  17.473   6.874 -0.2104  0.0359 -0.1398
 1311ERGO    C219256   4.099  17.518   7.178 -0.1648  0.1753  0.0374
 1312ERGO   ROH19257  13.064  14.248   6.200 -0.0559 -0.1071 -0.1217
 1312ERGO    R119258  13.086  14.446   6.401  0.1946 -0.1513 -0.1042
 1312ERGO    R219259  12.884  14.496   6.583  0.2395  0.1196 -0.1386
 1312ERGO    R319260  13.082  14.454   6.764  0.1519 -0.1682 -0.1011
 1312ERGO    R419261  12.870  14.586   6.917  0.2346  0.0231 -0.1115
 1312ERGO    R519262  13.078  14.649   6.904  0.3221 -0.1987 -0.0357
 1312ERGO    C119263  13.048  14.600   7.281  0.1496 -0.3033 -0.0605
 1312ERGO    C219264  13.181  14.620   7.683 -0.0614 -0.1721  0.2590
 1313ERGO   ROH19265  13.478  18.243   5.593  0.1496 -0.1221  0.2075
 1313ERGO    R119266  13.573  18.338   5.842  0.0319  0.1163  0.1651
 1313ERGO    R219267  13.649  18.601   5.882 -0.1216  0.1928 -0.0080
 1313ERGO    R319268  13.470  18.587   6.087 -0.1715  0.2447 -0.0489
 1313ERGO    R419269  13.633  18.824   6.146 -0.0591  0.1370  0.0435
 1313ERGO    R519270  13.595  18.656   6.279 -0.1792  0.1300 -0.0060
 1313ERGO    C119271  13.456  18.940   6.491 -0.0695  0.1533  0.0351
 1313ERGO    C219272  13.370  19.019   6.724  0.1120 -0.1790 -0.0891
 1314ERGO   ROH19273  15.728   5.249   6.423  0.1153  0.0269 -0.0738
 1314ERGO    R119274  15.849   5.099   6.630  0.0513 -0.0344 -0.0799
 1314ERGO    R219275  15.942   5.215   6.863  0.2099 -0.0655 -0.1247
 1314ERGO    R319276  15.781   5.030   6.981  0.0899  0.0850 -0.0489
 1314ERGO    R419277  16.030   5.022   7.136  0.1587 -0.1518 -0.1689
 1314ERGO    R519278  15.930   4.853   7.042 -0.0481 -0.0577 -0.1220
 1314ERGO    C119279  15.931   4.737   7.406  0.0162 -0.0607 -0.1234
 1314ERGO    C219280  16.086   4.760   7.779  0.1754  0.2743 -0.2495
 1315ERGO   ROH19281  12.734  10.709   6.079 -0.1049  0.1034  0.1341
 1315ERGO    R119282  12.663  10.739   6.352 -0.0325 -0.0111  0.1658
 1315ERGO    R219283  12.670  10.528   6.531  0.0729 -0.0734  0.0888
 1315ERGO    R319284  12.827  10.699   6.674  0.0724 -0.0846  0.1038
 1315ERGO    R419285  12.678  10.548   6.876  0.1088 -0.1342  0.0919
 1315ERGO    R519286  12.691  10.765   6.859  0.0867 -0.1303  0.1304
 1315ERGO    C119287  12.830  10.719   7.211  0.1294 -0.1801  0.1079
 1315ERGO    C219288  12.833  10.680   7.482 -0.2028 -0.1492  0.1050
 1316ERGO   ROH19289   8.468  14.029   6.203  0.1260  0.0037  0.1231
 1316ERGO    R119290   8.413  13.955   6.471 -0.0798  0.3681  0.1899
 1316ERGO    R219291   8.594  13.815   6.626 -0.5020 -0.1617  0.2418
 1316ERGO    R319292   8.556  14.022   6.799  0.2385  0.1154  0.1061
 1316ERGO    R419293   8.588  13.786   6.971 -0.4054  0.1424  0.2714
 1316ERGO    R519294   8.423  13.929   6.975  0.0327  0.6732  0.2604
 1316ERGO    C119295   8.550  13.963   7.333  0.3460  0.5798  0.1612
 1316ERGO    C219296   8.653  13.718   7.655 -0.2583  0.0330 -0.0475
 1317ERGO   ROH19297  11.049  15.112   5.938 -0.0893 -0.0554 -0.0333
 1317ERGO    R119298  11.071  15.184   6.211 -0.1159  0.0872 -0.0686
 1317ERGO    R219299  10.852  15.198   6.380 -0.1010 -0.0579 -0.0449
 1317ERGO    R319300  10.998  15.027   6.532  0.0932  0.1566  0.0161
 1317ERGO    R419301  10.850  15.189   6.725 -0.4187 -0.1952 -0.0460
 1317ERGO    R519302  11.065  15.158   6.721 -0.3371  0.2225  0.1395
 1317ERGO    C119303  10.986  15.024   7.069 -0.4213 -0.0739  0.0107
 1317ERGO    C219304  10.855  14.985   7.405  0.3323  0.1757  0.2192
 1318ERGO   ROH19305   0.345  11.331   5.975  0.0418  0.0935  0.0381
 1318ERGO    R119306   0.288  11.440   6.230  0.0309  0.0620  0.0494
 1318ERGO    R219307   0.165  11.295   6.431  0.0657  0.0217  0.0428
 1318ERGO    R319308   0.383  11.370   6.575  0.0577  0.0509  0.0396
 1318ERGO    R419309   0.171  11.336   6.774  0.0609  0.0471  0.0399
 1318ERGO    R519310   0.295  11.512   6.746  0.0452  0.0552  0.0286
 1318ERGO    C119311   0.378  11.430   7.109  0.0507  0.0893  0.0350
 1318ERGO    C219312   0.216  11.286   7.290 -0.3918 -0.0079  0.4203
 1319ERGO   ROH19313  18.114  13.013   5.760 -0.0893  0.1142 -0.1215
 1319ERGO    R119314  18.074  12.745   5.841  0.0794  0.0546 -0.2304
 1319ERGO    R219315  17.866  12.669   6.008  0.3291 -0.0873  0.0229
 1319ERGO    R319316  17.812  12.494   5.807  0.0742  0.0277 -0.0128
 1319ERGO    R419317  17.630  12.418   6.023  0.2419 -0.0001  0.1224
 1319ERGO    R519318  17.769  12.287   5.919  0.0954 -0.0083 -0.0695
 1319ERGO    C119319  17.441  12.107   5.844 -0.0484  0.1588  0.1470
 1319ERGO    C219320  17.103  12.260   5.877  0.0105 -0.0251  0.2182
 1320ERGO   ROH19321  14.473   7.157   6.308 -0.1798  0.1755  0.1830
 1320ERGO    R119322  14.484   7.195   6.589 -0.1066  0.0842  0.1930
 1320ERGO    R219323  14.424   6.994   6.769 -0.1538  0.0530  0.1426
 1320ERGO    R319324  14.670   7.053   6.868 -0.1081 -0.0803  0.1115
 1320ERGO    R419325  14.532   6.916   7.087 -0.0886 -0.1675  0.0685
 1320ERGO    R519326  14.629   7.111   7.097 -0.0272 -0.2021  0.1574
 1320ERGO    C119327  14.826   6.926   7.366 -0.0078 -0.4210 -0.0037
 1320ERGO    C219328  14.908   6.870   7.625  0.0179 -0.2386  0.0660
 1321ERGO   ROH19329  12.286   6.838   6.151  0.1447  0.0060  0.1165
 1321ERGO    R119330  12.158   6.647   6.317  0.0829 -0.0343  0.0225
 1321ERGO    R219331  12.293   6.505   6.513  0.0140 -0.0972  0.0224
 1321ERGO    R319332  12.097   6.604   6.673 -0.0299 -0.1345 -0.0075
 1321ERGO    R419333  12.230   6.401   6.836 -0.1261 -0.2356 -0.0475
 1321ERGO    R519334  12.017   6.415   6.794 -0.1101 -0.1785 -0.1242
 1321ERGO    C119335  12.010   6.435   7.175 -0.2489 -0.3513 -0.1163
 1321ERGO    C219336  11.986   6.510   7.500  0.0205  0.2282 -0.1895
 1322ERGO   ROH19337   9.171  11.310   6.022  0.0809  0.2102  0.0703
 1322ERGO    R119338   9.223  11.425   6.275 -0.0197  0.1334  0.1262
 1322ERGO    R219339   9.241  11.274   6.506 -0.0556  0.0576  0.0762
 1322ERGO    R319340   9.482  11.396   6.529 -0.0889  0.1032  0.1949
 1322ERGO    R419341   9.446  11.254   6.783 -0.0729 -0.1240  0.0776
 1322ERGO    R519342   9.492  11.465   6.759 -0.1266 -0.0865  0.2580
 1322ERGO    C119343   9.792  11.357   6.967 -0.1143 -0.1868  0.1897
 1322ERGO    C219344   9.999  11.196   7.214  0.0363 -0.2080  0.0615
 1323ERGO   ROH19345  10.204   6.901   6.262 -0.0343 -0.0274  0.0500
 1323ERGO    R119346  10.079   6.882   6.515  0.0346 -0.2101  0.0712
 1323ERGO    R219347  10.182   6.728   6.720  0.3533  0.0165  0.0873
 1323ERGO    R319348  10.166   6.961   6.860 -0.0597  0.0219  0.0437
 1323ERGO    R419349  10.148   6.750   7.063  0.4236  0.0166  0.0947
 1323ERGO    R519350  10.008   6.915   7.034  0.0827 -0.2589  0.1055
 1323ERGO    C119351  10.113   6.981   7.394  0.0768  0.0217  0.0580
 1323ERGO    C219352  10.081   6.772   7.744 -0.2572 -0.0857 -0.3137
 1324ERGO   ROH19353  14.725   2.191   5.604 -0.1706 -0.1325  0.0007
 1324ERGO    R119354  14.564   2.192   5.837 -0.3591 -0.2971 -0.1276
 1324ERGO    R219355  14.498   1.961   5.972  0.0772 -0.3357  0.0128
 1324ERGO    R319356  14.603   2.093   6.185 -0.3996  0.1016 -0.0015
 1324ERGO    R419357  14.441   1.879   6.303  0.5024 -0.6658  0.0143
 1324ERGO    R519358  14.427   2.092   6.348 -0.3924 -0.6784  0.0510
 1324ERGO    C119359  14.506   1.955   6.696  0.3023 -0.4475  0.0018
 1324ERGO    C219360  14.482   2.009   7.092 -0.0956  0.0008  0.2641
 1325ERGO   ROH19361   9.166   6.748   6.544  0.2861 -0.0244  0.3530
 1325ERGO    R119362   9.071   6.958   6.709  0.1609  0.0358  0.2063
 1325ERGO    R219363   8.849   7.108   6.645  0.0720 -0.1435  0.0998
 1325ERGO    R319364   8.766   7.032   6.893  0.1162 -0.0161  0.1553
 1325ERGO    R419365   8.544   7.191   6.786  0.1110 -0.0353  0.1222
 1325ERGO    R519366   8.646   7.222   6.976  0.1580  0.0432  0.0892
 1325ERGO    C119367   8.289   7.169   7.100  0.1750  0.1473  0.1874
 1325ERGO    C219368   8.082   7.229   7.481 -0.0603 -0.3273  0.1089
 1326ERGO   ROH19369   5.741   0.828   5.843  0.1576 -0.1880 -0.0193
 1326ERGO    R119370   5.649   0.900   6.101  0.0550  0.0353 -0.1133
 1326ERGO    R219371   5.621   0.716   6.306 -0.2350  0.1661 -0.0194
 1326ERGO    R319372   5.781   0.890   6.440 -0.1627  0.1041 -0.0276
 1326ERGO    R419373   5.639   0.743   6.650 -0.0069 -0.0043 -0.0160
 1326ERGO    R519374   5.649   0.960   6.627 -0.0371 -0.0004  0.0932
 1326ERGO    C119375   5.799   0.922   6.976  0.1938 -0.1617 -0.0219
 1326ERGO    C219376   5.939   0.905   7.196 -0.0604 -0.1081 -0.1187
 1327ERGO   ROH19377  11.681  11.191   6.224 -0.0186 -0.0356 -0.1186
 1327ERGO    R119378  11.697  11.101   6.492  0.0122  0.0381 -0.0957
 1327ERGO    R219379  11.924  11.135   6.647  0.0005  0.1548 -0.1050
 1327ERGO    R319380  11.749  11.252   6.819 -0.0390  0.1391 -0.1337
 1327ERGO    R419381  11.954  11.133   6.991 -0.1311  0.0377 -0.0926
 1327ERGO    R519382  11.739  11.102   7.005 -0.1441  0.0812 -0.1848
 1327ERGO    C119383  11.807  11.243   7.353 -0.2449 -0.0452 -0.1124
 1327ERGO    C219384  12.102  11.229   7.521  0.0508  0.0639 -0.1548
 1328ERGO   ROH19385   2.234   1.278   5.822  0.0688  0.0640 -0.2338
 1328ERGO    R119386   2.374   1.314   6.065  0.0526 -0.1962 -0.1823
 1328ERGO    R219387   2.364   1.550   6.209  0.5075 -0.1343 -0.2349
 1328ERGO    R319388   2.289   1.385   6.411  0.0558  0.0601 -0.2323
 1328ERGO    R419389   2.479   1.572   6.534  0.2613 -0.2055 -0.1410
 1328ERGO    R519390   2.488   1.354   6.540 -0.1023 -0.2245 -0.0461
 1328ERGO    C119391   2.475   1.430   6.913 -0.3060 -0.0645 -0.0838
 1328ERGO    C219392   2.597   1.390   7.187  0.2049 -0.0549 -0.3180
 1329ERGO   ROH19393   2.899  10.338   5.818 -0.0088  0.0918 -0.0959
 1329ERGO    R119394   3.009  10.291   6.074  0.0322  0.1190 -0.1084
 1329ERGO    R219395   3.075  10.496   6.247 -0.0772  0.1343 -0.0823
 1329ERGO    R319396   2.914  10.359   6.419  0.0096  0.0157 -0.0940
 1329ERGO    R419397   3.110  10.494   6.591  0.0538 -0.0512 -0.0945
 1329ERGO    R519398   3.063  10.282   6.590  0.0861 -0.0571 -0.1932
 1329ERGO    C119399   2.978  10.366   6.953  0.2116 -0.2706 -0.1125
 1329ERGO    C219400   3.017  10.361   7.230  0.1371 -0.3266 -0.0699
 1330ERGO   ROH19401   0.350   5.200   6.219 -0.0991  0.0441  0.0835
 1330ERGO    R119402   0.258   5.064   6.450 -0.0396 -0.0286  0.0649
 1330ERGO    R219403   0.411   5.041   6.680 -0.1054  0.1832  0.1359
 1330ERGO    R319404   0.191   5.149   6.798 -0.2845 -0.0502  0.0234
 1330ERGO    R419405   0.366   5.073   7.021 -0.1055  0.5726  0.1037
 1330ERGO    R519406   0.157   5.016   6.994 -0.0083  0.1542  0.2145
 1330ERGO    C119407   0.133   5.193   7.330 -0.2737  0.5803 -0.0205
 1330ERGO    C219408   0.022   5.273   7.693 -0.0417 -0.2358  0.1774
 1331ERGO   ROH19409   3.230   0.286   6.112 -0.0388 -0.0169  0.0294
 1331ERGO    R119410   3.252   0.194   6.379 -0.0660  0.0727  0.0617
 1331ERGO    R219411   3.392   0.332   6.572 -0.1056  0.1461  0.0310
 1331ERGO    R319412   3.157   0.316   6.708 -0.1191  0.1699  0.0128
 1331ERGO    R419413   3.364   0.277   6.913 -0.1335 -0.1557 -0.0164
 1331ERGO    R519414   3.195   0.145   6.872 -0.2234 -0.0145 -0.1442
 1331ERGO    C119415   3.128   0.230   7.238 -0.1624 -0.3090 -0.0610
 1331ERGO    C219416   3.153   0.244   7.646  0.4161 -0.0405  0.1153
 1332ERGO   ROH19417  17.593  14.786   6.145 -0.0749 -0.0922  0.0364
 1332ERGO    R119418  17.637  14.827   6.421 -0.1129 -0.0115  0.0315
 1332ERGO    R219419  17.450  14.760   6.614 -0.0904 -0.0724  0.0359
 1332ERGO    R319420  17.657  14.619   6.719 -0.0205  0.0588  0.0742
 1332ERGO    R419421  17.499  14.704   6.951 -0.0141  0.1123  0.0562
 1332ERGO    R519422  17.712  14.736   6.921 -0.0326  0.1784  0.0072
 1332ERGO    C119423  17.722  14.539   7.247  0.0960  0.3431  0.1039
 1332ERGO    C219424  17.668  14.495   7.507  0.1419 -0.0422  0.0072
 1333ERGO   ROH19425  11.626   3.020   5.618 -0.0711 -0.1859 -0.0066
 1333ERGO    R119426  11.598   2.909   5.877 -0.0315 -0.2258 -0.0182
 1333ERGO    R219427  11.815   2.821   6.026 -0.0151 -0.3650 -0.1105
 1333ERGO    R319428  11.713   2.990   6.213  0.1331 -0.3472 -0.0463
 1333ERGO    R419429  11.829   2.769   6.367  0.0104 -0.4500 -0.1248
 1333ERGO    R519430  11.625   2.845   6.382  0.0704 -0.3223 -0.0657
 1333ERGO    C119431  11.742   2.897   6.742  0.1643 -0.4829 -0.0728
 1333ERGO    C219432  11.717   2.855   7.126 -0.2900 -0.2566 -0.0696
 1334ERGO   ROH19433   5.052   9.650   5.756 -0.1307 -0.0857  0.0039
 1334ERGO    R119434   5.112   9.517   5.999 -0.1143 -0.0462  0.0213
 1334ERGO    R219435   5.355   9.545   6.128 -0.0889 -0.0608 -0.0231
 1334ERGO    R319436   5.199   9.615   6.339 -0.0436  0.0087 -0.0124
 1334ERGO    R419437   5.470   9.601   6.449 -0.0234  0.0313 -0.0625
 1334ERGO    R519438   5.294   9.498   6.525 -0.0117  0.0612  0.0038
 1334ERGO    C119439   5.391   9.701   6.834  0.0572  0.1501 -0.0753
 1334ERGO    C219440   5.389   9.712   7.235  0.3317  0.0938 -0.1061
 1335ERGO   ROH19441   5.882  16.129   5.905  0.0554 -0.1452  0.0197
 1335ERGO    R119442   5.810  16.089   6.176  0.0627 -0.0570  0.0342
 1335ERGO    R219443   5.965  15.942   6.351  0.0604 -0.0054  0.0727
 1335ERGO    R319444   5.951  16.168   6.502  0.0736  0.0398  0.0078
 1335ERGO    R419445   5.931  15.948   6.695 -0.2503  0.0834  0.0444
 1335ERGO    R519446   5.792  16.115   6.674 -0.1246  0.1773 -0.1222
 1335ERGO    C119447   5.898  16.163   7.037 -0.4188  0.1776 -0.0330
 1335ERGO    C219448   6.028  16.056   7.334 -0.0013  0.1078 -0.3029
 1336ERGO   ROH19449  12.826  17.272   5.850 -0.2255  0.1990  0.1343
 1336ERGO    R119450  12.973  17.107   6.027 -0.1944  0.0811  0.0009
 1336ERGO    R219451  13.210  17.188   6.144 -0.0966 -0.0499 -0.0934
 1336ERGO    R319452  13.081  17.121   6.374 -0.0054 -0.0765 -0.0507
 1336ERGO    R419453  13.350  17.199   6.460  0.0137 -0.0647 -0.1421
 1336ERGO    R519454  13.248  17.012   6.506  0.0473 -0.0722 -0.1187
 1336ERGO    C119455  13.311  17.142   6.860  0.1635 -0.0981 -0.1303
 1336ERGO    C219456  13.521  17.277   7.130 -0.1734  0.2632  0.0448
 1337ERGO   ROH19457  16.784  12.636   5.938  0.1619 -0.0695  0.0842
 1337ERGO    R119458  16.738  12.747   6.194  0.0560 -0.0956  0.0778
 1337ERGO    R219459  16.515  12.686   6.346  0.0751 -0.2430  0.0524
 1337ERGO    R319460  16.700  12.621   6.533  0.0974 -0.1183  0.0737
 1337ERGO    R419461  16.461  12.692   6.687  0.1056 -0.0575  0.0543
 1337ERGO    R519462  16.661  12.775   6.712  0.0978 -0.0231 -0.0092
 1337ERGO    C119463  16.604  12.635   7.062  0.1441  0.1677  0.0754
 1337ERGO    C219464  16.709  12.437   7.242 -0.0850  0.1360 -0.2912
 1338ERGO   ROH19465  13.567   5.721   5.932 -0.0024  0.0732 -0.0499
 1338ERGO    R119466  13.646   5.655   6.195 -0.0597 -0.0061 -0.0513
 1338ERGO    R219467  13.733   5.844   6.377  0.0604 -0.0786 -0.0257
 1338ERGO    R319468  13.537   5.737   6.533 -0.0232  0.0369 -0.0510
 1338ERGO    R419469  13.747   5.820   6.721  0.0238 -0.1479 -0.0296
 1338ERGO    R519470  13.657   5.622   6.706 -0.1177 -0.0776 -0.0649
 1338ERGO    C119471  13.573   5.705   7.068 -0.0759 -0.0798 -0.0556
 1338ERGO    C219472  13.441   5.709   7.266  0.0777 -0.0140  0.1583
 1339ERGO   ROH19473   7.688  14.989   5.612 -0.2233  0.1526 -0.0484
 1339ERGO    R119474   7.757  15.086   5.869 -0.1610  0.0448 -0.0236
 1339ERGO    R219475   7.738  15.353   5.937  0.0680  0.0512  0.0243
 1339ERGO    R319476   7.586  15.257   6.141 -0.0369  0.1457 -0.0082
 1339ERGO    R419477   7.728  15.487   6.255  0.0808  0.0603  0.0207
 1339ERGO    R519478   7.724  15.284   6.335 -0.0619  0.0623  0.0221
 1339ERGO    C119479   7.580  15.476   6.632 -0.0101  0.1542 -0.0118
 1339ERGO    C219480   7.728  15.554   6.942  0.3866  0.2278 -0.0917
 1340ERGO   ROH19481  14.557   4.024   5.703 -0.0207 -0.0780  0.2730
 1340ERGO    R119482  14.727   4.096   5.917 -0.0791 -0.0558  0.3154
 1340ERGO    R219483  14.671   4.031   6.180 -0.0554 -0.2054  0.2977
 1340ERGO    R319484  14.919   3.921   6.172  0.0131 -0.0448  0.2488
 1340ERGO    R419485  14.824   3.870   6.445  0.1085 -0.1396  0.2418
 1340ERGO    R519486  15.011   3.966   6.389  0.0268 -0.0192  0.2263
 1340ERGO    C119487  15.146   3.672   6.591  0.2681  0.0495  0.1633
 1340ERGO    C219488  15.365   3.628   6.867  0.3103  0.0491 -0.1420
 1341ERGO   ROH19489   5.234  10.765   5.707 -0.2651 -0.0281  0.0677
 1341ERGO    R119490   5.418  10.632   5.875 -0.1494 -0.0251 -0.0541
 1341ERGO    R219491   5.560  10.763   6.073  0.0100 -0.0149 -0.1714
 1341ERGO    R319492   5.453  10.571   6.232  0.1105  0.0115 -0.0714
 1341ERGO    R419493   5.631  10.723   6.409  0.0045  0.2171 -0.1411
 1341ERGO    R519494   5.633  10.507   6.377  0.1353  0.1997 -0.0183
 1341ERGO    C119495   5.572  10.519   6.754  0.0957  0.3768 -0.0297
 1341ERGO    C219496   5.564  10.586   7.079 -0.1340  0.1314 -0.0384
 1342ERGO   ROH19497   9.917   8.906   6.429 -0.1119 -0.1127  0.0331
 1342ERGO    R119498   9.779   9.084   6.600 -0.0950 -0.0790  0.0134
 1342ERGO    R219499   9.616   8.997   6.806 -0.0808 -0.0401  0.0472
 1342ERGO    R319500   9.775   9.159   6.957 -0.0610 -0.0166 -0.0004
 1342ERGO    R419501   9.530   9.126   7.115 -0.0662  0.0823 -0.0002
 1342ERGO    R519502   9.623   9.315   7.057 -0.0332  0.0431 -0.0585
 1342ERGO    C119503   9.629   9.353   7.436 -0.0391  0.1755 -0.0726
 1342ERGO    C219504   9.657   9.336   7.810  0.0672 -0.0503  0.3386
 1343ERGO   ROH19505  16.021  13.228   5.904 -0.1657  0.0609  0.1481
 1343ERGO    R119506  15.950  13.043   6.105 -0.0538  0.1390  0.2601
 1343ERGO    R219507  16.108  12.826   6.171 -0.1637 -0.0063  0.0334
 1343ERGO    R319508  16.088  12.930   6.422  0.2988  0.0176  0.0711
 1343ERGO    R419509  16.085  12.639   6.461 -0.3075 -0.0096  0.0214
 1343ERGO    R519510  15.938  12.782   6.536  0.0630  0.3218  0.1832
 1343ERGO    C119511  16.053  12.628   6.865  0.0430  0.0109  0.0499
 1343ERGO    C219512  16.191  12.720   7.258  0.0140 -0.4026  0.1117
 1344ERGO   ROH19513  18.178   6.798   5.995  0.0600 -0.0748 -0.1279
 1344ERGO    R119514  18.311   6.885   6.229 -0.1424  0.1924 -0.1062
 1344ERGO    R219515  18.190   7.046   6.418 -0.4693  0.0236 -0.1574
 1344ERGO    R319516  18.266   6.848   6.588 -0.1735  0.1703 -0.1137
 1344ERGO    R419517  18.175   7.065   6.763 -0.6225  0.0221 -0.1640
 1344ERGO    R519518  18.368   6.963   6.772 -0.4420  0.3659 -0.0871
 1344ERGO    C119519  18.238   6.890   7.124 -0.4342  0.1591 -0.1269
 1344ERGO    C219520  18.197   6.828   7.407  0.1183 -0.1167 -0.2072
 1345ERGO   ROH19521   4.336   9.186   5.860  0.0985 -0.0837 -0.0814
 1345ERGO    R119522   4.290   9.093   6.123  0.0278  0.0669 -0.0396
 1345ERGO    R219523   4.466   8.926   6.255 -0.1347 -0.0718  0.0025
 1345ERGO    R319524   4.456   9.119   6.446  0.0936  0.0151 -0.0687
 1345ERGO    R419525   4.581   8.889   6.579 -0.2766 -0.1278  0.0478
 1345ERGO    R519526   4.406   9.000   6.648 -0.1387  0.1550 -0.0388
 1345ERGO    C119527   4.638   9.049   6.947 -0.1449 -0.0789  0.0072
 1345ERGO    C219528   4.772   9.072   7.319 -0.0855  0.2241  0.3418
 1346ERGO   ROH19529   6.319   7.230   6.154 -0.2364 -0.0548  0.1369
 1346ERGO    R119530   6.196   7.148   6.395 -0.1428 -0.1548  0.1515
 1346ERGO    R219531   6.294   6.939   6.548  0.0488 -0.0734  0.1453
 1346ERGO    R319532   6.291   7.126   6.746 -0.0859 -0.0705  0.1410
 1346ERGO    R419533   6.211   6.877   6.878  0.2844 -0.1658  0.1890
 1346ERGO    R519534   6.103   7.066   6.882  0.0522 -0.2980  0.2349
 1346ERGO    C119535   6.160   7.016   7.255  0.2951 -0.2170  0.2103
 1346ERGO    C219536   6.089   7.072   7.610  0.1215  0.0239 -0.0172
 1347ERGO   ROH19537  15.165  11.814   5.819  0.0359  0.2823  0.0493
 1347ERGO    R119538  14.991  11.788   6.041  0.0378  0.0948  0.0303
 1347ERGO    R219539  14.991  11.565   6.204  0.0795 -0.0192 -0.1223
 1347ERGO    R319540  15.027  11.749   6.401  0.0409 -0.1460  0.0047
 1347ERGO    R419541  14.835  11.558   6.513  0.1199 -0.2893 -0.1060
 1347ERGO    R519542  14.811  11.773   6.500  0.0453 -0.2885  0.0506
 1347ERGO    C119543  14.779  11.726   6.878  0.1072 -0.5656  0.0228
 1347ERGO    C219544  14.576  11.743   7.172 -0.1303 -0.0029  0.0812
 1348ERGO   ROH19545  17.176  13.679   6.070  0.0066  0.0029  0.0290
 1348ERGO    R119546  17.190  13.804   6.323 -0.4228 -0.0435  0.0849
 1348ERGO    R219547  17.053  13.710   6.544 -0.0591 -0.6747  0.0680
 1348ERGO    R319548  17.300  13.711   6.658 -0.0136  0.1938  0.0233
 1348ERGO    R419549  17.114  13.709   6.884 -0.0325 -1.0757  0.0664
 1348ERGO    R519550  17.276  13.851   6.851 -0.6305 -0.2605  0.3089
 1348ERGO    C119551  17.381  13.710   7.189  0.0260 -0.4940  0.0236
 1348ERGO    C219552  17.321  13.625   7.561 -0.1719  0.0286  0.1358
 1349W        W19553  18.231   1.941   5.575 -0.2911  0.3584  0.0128
 1350W        W19554   6.423  12.015  12.282 -0.2626 -0.2034  0.1223
 1351W        W19555  16.282   8.206   4.150 -0.0406  0.0107 -0.1833
 1352W        W19556   8.183  16.201  10.889 -0.1389 -0.1242 -0.1334
 1353W        W19557  12.081   5.223   1.128 -0.2753  0.0283  0.2609
 1354W        W19558  10.134   6.322   1.907 -0.0226 -0.2595 -0.4327
 1355W        W19559  14.432   5.387   3.133 -0.2506 -0.1561  0.1825
 1356W        W19560  14.035   4.717   4.817  0.1734 -0.0944 -0.2206
 1357W        W19561   0.320   5.955  13.292 -0.0555 -0.0148  0.2025
 1358W        W19562  11.073  12.338   2.446 -0.0448  0.1872  0.2238
 1359W        W19563   3.746  11.349  13.050 -0.0609 -0.0339 -0.0239
 1360W        W19564   8.847   7.230   2.454 -0.2400 -0.0884 -0.2325
 1361W        W19565   9.156   7.727   0.940  0.2237  0.0703  0.0433
 1362W        W19566   0.577  10.046   4.891 -0.2162  0.1542 -0.3394
 1363W        W19567   5.534   7.794  14.394 -0.0777 -0.0446  0.0480
 1364W        W19568   6.034   1.269   4.677  0.3303 -0.0095  0.5143
 1365W        W19569   9.868  16.990   1.830  0.3884  0.1488 -0.2496
 1366W        W19570   2.923   8.299   2.674  0.3252 -0.0914 -0.2844
 1367W        W19571   3.278   3.181   0.892  0.0328  0.1210  0.1178
 1368W        W19572   0.674   1.119  14.213  0.2333 -0.2369 -0.3370
 1369W        W19573  13.012   0.227   0.879 -0.1748  0.1424  0.3095
 1370W        W19574  11.368   7.074  11.107 -0.0398  0.1964  0.0078
 1371W        W19575   1.425  13.082   4.627 -0.3684 -0.0917 -0.1923
 1372W        W19576  11.498   9.274   0.074 -0.3531  0.1148 -0.0839
 1373W        W19577   8.147   0.777  15.016 -0.0361  0.1646  0.0566
 1374W        W19578  13.869  14.149  14.068  0.1193  0.3855  0.2627
 1375W        W19579   5.882  12.217  12.250  0.1261  0.0659 -0.0196
 1376W        W19580   4.803   5.976  14.607 -0.1657  0.1288 -0.2151
 1377W        W19581   8.497   8.153   0.846  0.1770 -0.3135 -0.3148
 1378W        W19582  17.627  11.816  12.556 -0.0477  0.1064 -0.2500
 1379W        W19583   9.315  13.965  13.565 -0.1497  0.0250  0.0483
 1380W        W19584   3.793  12.360  14.244  0.0299  0.2051 -0.1919
 1381W        W19585  13.876   4.001   0.275  0.1826 -0.0905  0.2424
 1382W        W19586  11.868  10.926   4.716  0.3247  0.1883 -0.0558
 1383W        W19587  10.736  17.762  13.647  0.0100  0.0397 -0.0666
 1384W        W19588  12.892   8.305  11.732 -0.2714  0.1753 -0.1430
 1385W        W19589   4.843   5.482  14.716  0.1242 -0.1693  0.1071
 1386W        W19590   5.032  13.353  14.960 -0.0351  0.1681  0.1553
 1387W        W19591   2.269  16.935   3.171 -0.0726 -0.1848  0.3557
 1388W        W19592   4.054   9.480   2.424  0.0574 -0.0064 -0.1028
 1389W        W19593  13.254   0.659  11.173  0.0774  0.1835  0.0369
 1390W        W19594   0.425  15.558  11.910  0.1232  0.1323 -0.3761
 1391W        W19595  17.011  18.005   4.479  0.0182  0.0130 -0.1288
 1392W        W19596   1.103  11.503  15.269 -0.1341  0.1229  0.3653
 1393W        W19597  10.985   6.632  11.719  0.2473  0.3244  0.1586
 1394W        W19598   7.492  11.196  12.961 -0.1394  0.0902 -0.0361
 1395W        W19599  15.967  13.222   4.581  0.1476  0.0209  0.0546
 1396W        W19600   1.256   6.921   4.612  0.1617  0.0892  0.1232
 1397W        W19601  12.814  16.947   0.015  0.0923  0.0285  0.1178
 1398W        W19602  14.183   4.772  15.416  0.0476 -0.1238 -0.0711
 1399W        W19603  10.615   1.541  12.525  0.0550  0.1711 -0.1801
 1400W        W19604  15.607  17.021   2.659  0.0026  0.2397  0.0968
 1401W        W19605  14.580  13.650   2.199 -0.0406  0.0370 -0.1291
 1402W        W19606  13.674  15.213  14.609  0.1692  0.0953  0.0956
 1403W        W19607   0.969   3.552   0.408  0.0245 -0.2937  0.0860
 1404W        W19608   8.476   5.792  11.842  0.2247 -0.2720 -0.1411
 1405W        W19609   5.967  16.876  12.140  0.0402 -0.0516  0.1009
 1406W        W19610   2.040   6.136  14.061  0.1441 -0.2613 -0.1334
 1407W        W19611  10.203  17.470   4.291 -0.1771  0.0396  0.0265
 1408W        W19612   3.618   7.315   3.465  0.0403 -0.0692  0.1005
 1409W        W19613  12.977  14.645   2.016  0.0161 -0.1960  0.0193
 1410W        W19614   0.699  13.195   5.079  0.1923  0.1272  0.2543
 1411W        W19615  17.473  14.609  12.519  0.0038  0.3858  0.0842
 1412W        W19616   7.554   9.686  14.478 -0.1369 -0.2232  0.0530
 1413W        W19617  13.473  16.621   4.471  0.1990  0.0980 -0.2037
 1414W        W19618   1.843   2.249   0.125  0.1020  0.0278 -0.0730
 1415W        W19619  10.582   4.477  15.642  0.0380 -0.1482 -0.4174
 1416W        W19620  15.712   3.423  11.996  0.2360 -0.0810  0.1903
 1417W        W19621  17.685   0.676   3.143 -0.1840  0.1654  0.2463
 1418W        W19622   7.811  11.116   0.216 -0.0174 -0.0509 -0.0499
 1419W        W19623  12.799  13.711   1.848 -0.0946 -0.0246  0.3183
 1420W        W19624  13.674  14.298   3.035 -0.0592  0.1810  0.0048
 1421W        W19625  12.004  14.516   0.073 -0.1100 -0.0387  0.1835
 1422W        W19626   0.510   0.116   3.634 -0.1207 -0.2380  0.0528
 1423W        W19627   1.913   4.956   2.700 -0.1330 -0.1770 -0.1389
 1424W        W19628  11.112  10.454   2.310  0.1783  0.4177  0.0910
 1425W        W19629  11.518   6.684   0.837 -0.1536 -0.0283  0.0903
 1426W        W19630  15.254  16.679   2.319 -0.2281  0.0132  0.2077
 1427W        W19631   9.266   1.994   0.144 -0.1385  0.1161 -0.2983
 1428W        W19632  13.049   2.447   2.912  0.0856  0.2036 -0.2986
 1429W        W19633   2.427  11.402   0.006 -0.0110  0.3182  0.1091
 1430W        W19634  16.726  15.755   1.804  0.1810 -0.3532 -0.0178
 1431W        W19635   0.375  14.467   2.141  0.2115  0.0723  0.0795
 1432W        W19636  12.679  16.157  12.071  0.1037 -0.0664  0.0094
 1433W        W19637  18.275   6.641  13.993 -0.1788  0.2699  0.3622
 1434W        W19638  13.949   5.313  10.944  0.0972  0.0067 -0.1484
 1435W        W19639   1.826   6.484   1.902  0.0360 -0.1296 -0.1164
 1436W        W19640  17.501  16.558   2.649  0.0188 -0.0436 -0.1618
 1437W        W19641  17.812  11.289   0.895  0.0265 -0.1954 -0.1204
 1438W        W19642   3.631   0.299  11.189 -0.0366  0.0366  0.3590
 1439W        W19643  13.818   1.293   2.241  0.1781  0.1604 -0.0561
 1440W        W19644   7.546  15.865  13.253 -0.0293 -0.1186  0.1968
 1441W        W19645  10.036  11.753  15.264 -0.0513  0.1725  0.2025
 1442W        W19646   0.644  16.588   0.721  0.0750 -0.0769  0.2198
 1443W        W19647   9.144   0.691  13.064 -0.0422  0.2043  0.4028
 1444W        W19648   3.169  10.854   0.394  0.1003 -0.1890  0.1322
 1445W        W19649   0.118   7.467   2.074 -0.0383 -0.0264 -0.0588
 1446W        W19650   3.099   2.539   3.245 -0.0702  0.0304 -0.0610
 1447W        W19651   5.329   8.306  15.593  0.0948  0.4954 -0.0533
 1448W        W19652  13.546   8.157   0.135 -0.0092 -0.1836 -0.1169
 1449W        W19653   2.834  10.389   2.673 -0.0667 -0.0077  0.2102
 1450W        W19654   7.363   7.242   3.788 -0.1114 -0.1370  0.0554
 1451W        W19655  12.406  12.897   3.244  0.4577  0.0452  0.0120
 1452W        W19656   4.886   6.903  14.283 -0.0802  0.0924 -0.0574
 1453W        W19657   5.586  16.952  14.888  0.1919 -0.0578 -0.0822
 1454W        W19658   0.380   7.980   2.996 -0.1501 -0.2635 -0.0725
 1455W        W19659   9.138  11.576   1.843 -0.1174  0.1400 -0.5178
 1456W        W19660  14.324   0.465   4.058  0.0976  0.0066 -0.1232
 1457W        W19661  13.918   4.588  12.122 -0.0991  0.1680 -0.0131
 1458W        W19662  13.895  13.302  12.299 -0.3027 -0.0662 -0.1514
 1459W        W19663  15.077  13.044   1.614 -0.1254  0.2016 -0.0711
 1460W        W19664   7.554  14.515   2.288  0.2483 -0.1441  0.1340
 1461W        W19665   9.743   0.797   0.665 -0.2354  0.0527  0.4346
 1462W        W19666   2.326   6.162  11.397 -0.2659 -0.1929  0.0366
 1463W        W19667   7.561   2.071  14.151  0.2709 -0.0211 -0.0779
 1464W        W19668   7.959   3.554  10.288  0.0785 -0.0507 -0.2040
 1465W        W19669  17.243  12.029  14.514 -0.0954  0.2397 -0.1268
 1466W        W19670   1.990   8.594   0.984  0.0001  0.1544 -0.1153
 1467W        W19671  11.262   7.128   4.118 -0.3206  0.2622  0.1016
 1468W        W19672  10.306  11.501   4.262 -0.0918  0.1275  0.6935
 1469W        W19673  13.821   7.072  12.884 -0.1137  0.0963 -0.2875
 1470W        W19674  17.653   0.477   9.647 -0.0765  0.1576  0.1263
 1471W        W19675  18.182   3.420  14.620  0.0396  0.1303 -0.4717
 1472W        W19676  13.550   5.798   2.148  0.2646  0.1591  0.0959
 1473W        W19677  13.766   2.932  11.869 -0.1740 -0.1230 -0.0022
 1474W        W19678  13.380   0.736  12.341 -0.0434  0.0593  0.1013
 1475W        W19679  15.826   7.773  13.518 -0.1784  0.1723  0.1272
 1476W        W19680   9.556  14.356  14.171  0.2008  0.3497 -0.2967
 1477W        W19681   6.371  15.547  14.426 -0.0027 -0.3955  0.2042
 1478W        W19682   8.047  17.590  14.153 -0.3413 -0.2067  0.0013
 1479W        W19683   3.141  10.827  15.181  0.2110 -0.0744  0.0828
 1480W        W19684  11.808  16.702   2.133  0.1635  0.5115 -0.2466
 1481W        W19685   9.704   9.777   1.877  0.1573 -0.2151 -0.0762
 1482W        W19686  17.711   3.320   5.129 -0.1382 -0.2459  0.0169
 1483W        W19687  12.853   5.243  13.902  0.0280  0.3398 -0.0357
 1484W        W19688  17.011  10.207  11.845  0.2591 -0.1550 -0.3744
 1485W        W19689  13.665   8.927   0.731 -0.0825 -0.1237 -0.0719
 1486W        W19690   0.933   3.308   2.194  0.0356 -0.1711 -0.0259
 1487W        W19691   8.910   5.061  12.850  0.1831 -0.0091  0.0283
 1488W        W19692  17.441   2.977  14.785  0.1023 -0.0737  0.2057
 1489W        W19693  11.907  18.379  12.757 -0.1050 -0.1615  0.0585
 1490W        W19694  12.819   7.777  15.529  0.1127  0.1848 -0.1573
 1491W        W19695  17.973   6.457   4.805 -0.0134  0.0990 -0.1307
 1492W        W19696  14.432  13.609   0.745  0.1009  0.3516 -0.2503
 1493W        W19697   8.678  10.424  11.567  0.0624 -0.0137 -0.3397
 1494W        W19698   2.975  14.195   3.101  0.1058  0.1086 -0.0647
 1495W        W19699   8.636   2.983  15.310  0.2702 -0.2513  0.0816
 1496W        W19700  11.529  14.798   4.280 -0.0643  0.0462  0.0255
 1497W        W19701  13.617   7.645   0.946  0.0320 -0.2058  0.1764
 1498W        W19702   8.974  13.327   5.077  0.0413 -0.0855  0.0303
 1499W        W19703   8.447  16.587   0.028  0.0011 -0.1282 -0.1362
 1500W        W19704  15.951  14.433   0.874  0.0628  0.2768  0.0730
 1501W        W19705  17.935   3.943  15.714  0.0065 -0.0674 -0.2964
 1502W        W19706  14.692   9.564  12.864 -0.2772 -0.1755 -0.0501
 1503W        W19707  16.040   7.728   3.379 -0.2298  0.0310 -0.0060
 1504W        W19708   4.213  10.688   0.172 -0.0887  0.0582  0.2941
 1505W        W19709   8.554   9.304  13.947 -0.0213 -0.0035  0.0574
 1506W        W19710  14.507   0.937   1.020 -0.2841 -0.1941  0.0765
 1507W        W19711  17.765   2.391  12.805 -0.1433  0.1251  0.1604
 1508W        W19712   5.019   3.888   1.630 -0.0311  0.2207 -0.0333
 1509W        W19713  17.186  13.419   1.847  0.0637  0.0389 -0.0661
 1510W        W19714  12.747  16.577   2.585 -0.0614 -0.0942  0.0288
 1511W        W19715  15.773   3.180  15.029  0.2058  0.0943  0.2251
 1512W        W19716  14.820  14.264   3.909  0.3295  0.3914  0.1866
 1513W        W19717  16.464  17.315   2.078  0.3009  0.4887 -0.4826
 1514W        W19718  10.098   1.111  10.964 -0.0497  0.1093 -0.0948
 1515W        W19719  15.536   2.356  13.264  0.1055  0.1968 -0.1591
 1516W        W19720   5.829   8.386   2.640 -0.0875 -0.2512 -0.1291
 1517W        W19721  16.987   0.678  14.068  0.2159 -0.0074 -0.0798
 1518W        W19722   7.219   7.796   1.257  0.1319 -0.2643  0.0640
 1519W        W19723  17.756   3.789   0.902  0.0040 -0.0614 -0.2009
 1520W        W19724   8.441   4.641   3.289  0.1878  0.2688 -0.2601
 1521W        W19725   1.438   9.524  14.238 -0.0055  0.0601  0.1248
 1522W        W19726   7.066  12.752  10.138 -0.0841  0.3071  0.0391
 1523W        W19727  16.942   9.835  15.221  0.2395 -0.1025  0.3862
 1524W        W19728   4.028  14.060   2.030 -0.2119 -0.1679 -0.1427
 1525W        W19729  14.352   0.667  12.643  0.0708 -0.1214  0.1229
 1526W        W19730   0.012   4.398   1.918 -0.1049 -0.3606  0.0813
 1527W        W19731  14.436  10.858   3.024 -0.4149 -0.0560 -0.0577
 1528W        W19732  10.153  17.660  14.310 -0.0419 -0.1631  0.1909
 1529W        W19733  15.837   8.310  13.353 -0.1569  0.1001  0.0521
 1530W        W19734   6.234  10.750   0.072 -0.1594 -0.2012  0.2470
 1531W        W19735  13.523  13.228  14.054  0.1882  0.1422 -0.0346
 1532W        W19736  17.951  10.870  14.444 -0.3621  0.2920 -0.2088
 1533W        W19737   8.875   8.436   5.616  0.2618  0.2668 -0.2472
 1534W        W19738  11.901   7.288  15.285  0.1013  0.1360 -0.0182
 1535W        W19739   5.018  13.883   2.596 -0.0425  0.0626 -0.2267
 1536W        W19740  18.145   1.186  14.367  0.0266 -0.1713 -0.1683
 1537W        W19741  12.080  15.862   3.141  0.0329 -0.3165  0.2711
 1538W        W19742   8.271   9.549  15.444 -0.0274 -0.4599 -0.1142
 1539W        W19743  11.841   0.928   0.189  0.1965  0.0833  0.0631
 1540W        W19744  10.576   7.587  14.483 -0.2254  0.1921 -0.2604
 1541W        W19745   7.053   5.975   5.632 -0.2563  0.0750 -0.1708
 1542W        W19746  15.538  13.721   2.781 -0.0094 -0.2790  0.2257
 1543W        W19747   8.181   4.677  13.247 -0.1737 -0.0013 -0.0277
 1544W        W19748  10.407  15.682   3.325  0.0768  0.2609 -0.0635
 1545W        W19749  17.763   4.195  11.959 -0.1294 -0.2320  0.0733
 1546W        W19750   5.158  16.042  10.350  0.2730  0.0229  0.2199
 1547W        W19751  15.332   7.183  14.398 -0.1531  0.3885  0.3823
 1548W        W19752  10.706   1.060   5.523 -0.0391  0.0541  0.1400
 1549W        W19753  18.296   4.780   4.378  0.0604  0.3753 -0.3440
 1550W        W19754   6.415   6.413  12.707  0.4031  0.0232 -0.2151
 1551W        W19755   0.785   9.260  15.658  0.2060 -0.2021  0.0388
 1552W        W19756  10.912   0.181  11.618  0.0381  0.3716 -0.4034
 1553W        W19757   0.086  12.675  15.216 -0.1223  0.2949  0.1521
 1554W        W19758  14.876  10.753   2.786 -0.0456  0.2548  0.1946
 1555W        W19759   5.416  15.265   1.603  0.0966 -0.0311  0.1335
 1556W        W19760  14.973  16.764   1.953  0.4059  0.2770 -0.2634
 1557W        W19761  11.247  14.100  12.243 -0.0237  0.1048 -0.1154
 1558W        W19762   6.479  14.681  12.031  0.1824 -0.1051  0.0516
 1559W        W19763  11.289   8.567   4.149 -0.1917 -0.0589  0.3830
 1560W        W19764   9.841   6.735  14.546  0.0603 -0.0873 -0.1821
 1561W        W19765   5.552  10.645  11.393 -0.2776 -0.3194  0.2271
 1562W        W19766   3.898   2.030   2.093  0.2167 -0.2376  0.3310
 1563W        W19767   3.964  16.627  11.523 -0.2257 -0.0023  0.0427
 1564W        W19768  13.671  12.961   5.415  0.0293 -0.1355  0.2037
 1565W        W19769   0.944   2.362   1.362  0.1804  0.2425  0.0053
 1566W        W19770  13.124   9.988  12.871 -0.0305  0.5815  0.0157
 1567W        W19771   2.664   9.798   1.921  0.2791 -0.1315 -0.0051
 1568W        W19772  12.788  10.401  13.714 -0.1851 -0.1848  0.1070
 1569W        W19773  16.034   2.228  14.990  0.1858 -0.2859 -0.0952
 1570W        W19774   6.283   3.495   2.934 -0.0158 -0.2021 -0.2313
 1571W        W19775  10.293   4.313   2.118  0.3678 -0.3817  0.0217
 1572W        W19776   0.669  16.806   1.188  0.1843  0.1013  0.1424
 1573W        W19777   1.054  10.240   2.991 -0.2679 -0.0566  0.4135
 1574W        W19778   2.905  13.653  13.965  0.0755  0.0951  0.2744
 1575W        W19779   3.751   8.938   3.499 -0.1301  0.1702  0.1419
 1576W        W19780  11.244  15.558   1.759  0.0604  0.1616  0.1799
 1577W        W19781  12.485  16.033  14.805  0.3415 -0.1403 -0.1008
 1578W        W19782   9.522   0.648  11.112 -0.0401 -0.1043  0.0030
 1579W        W19783   1.065   4.033  11.680 -0.0810 -0.0275  0.2042
 1580W        W19784   1.256   3.848   3.002 -0.0056  0.0837  0.2232
 1581W        W19785  12.948  17.581  11.055 -0.2089  0.1828  0.2072
 1582W        W19786   2.903   0.158  13.307 -0.1756 -0.3520 -0.0789
 1583W        W19787  13.347   3.599   1.681 -0.0778  0.3010 -0.2486
 1584W        W19788  11.460   8.145  15.608 -0.0734  0.0092 -0.0060
 1585W        W19789   9.072   3.091   0.032  0.1121  0.0061 -0.3696
 1586W        W19790   9.397   7.583  14.833  0.0687  0.3084 -0.0605
 1587W        W19791   5.662  14.590   1.315 -0.1370 -0.1841 -0.2136
 1588W        W19792   9.687  13.432  12.802  0.1405  0.0036  0.2725
 1589W        W19793  18.291   5.329  12.649  0.2339  0.0945 -0.0736
 1590W        W19794  12.316   7.794   5.024 -0.1401  0.2552  0.2083
 1591W        W19795   4.328   7.020   3.888 -0.2086  0.0630 -0.0085
 1592W        W19796   0.350   9.871  11.324  0.2786  0.3378  0.3561
 1593W        W19797   5.079   6.457   3.776  0.1854  0.0697  0.2796
 1594W        W19798   9.896   9.771   2.839  0.2308  0.4466  0.0803
 1595W        W19799  16.823   9.998   0.510 -0.0633  0.1374  0.1674
 1596W        W19800  14.103  10.999   3.355 -0.1155 -0.1158  0.1452
 1597W        W19801   5.336  13.961  11.791  0.1499  0.0198 -0.1826
 1598W        W19802  15.171  12.083  11.458 -0.3156  0.3290 -0.0641
 1599W        W19803   4.785   4.665   1.426 -0.2342 -0.2988  0.1895
 1600W        W19804  18.160  10.323  13.472 -0.3295  0.1202  0.1627
 1601W        W19805  12.298   2.268  14.068 -0.1040  0.3057  0.0290
 1602W        W19806   7.500  11.904  15.448  0.0370 -0.2357 -0.1783
 1603W        W19807  11.422   5.612   3.806 -0.0346  0.0540  0.1575
 1604W        W19808   5.023   5.142  11.422  0.0170 -0.0058  0.0372
 1605W        W19809  15.066  18.328  13.696 -0.0385  0.4318  0.0314
 1606W        W19810   8.412  13.527  14.082  0.3811 -0.0738  0.0447
 1607W        W19811   0.422  10.974   0.347 -0.0355 -0.0191 -0.1231
 1608W        W19812  10.331   4.073  12.479 -0.2182 -0.4145  0.1923
 1609W        W19813  12.812  12.051  14.924  0.1287 -0.3675  0.0038
 1610W        W19814   2.857   2.214   2.532 -0.0735 -0.3478  0.0755
 1611W        W19815   2.245   3.673   0.626 -0.1075  0.1293 -0.3281
 1612W        W19816  14.354   0.522  13.481  0.1372  0.1638  0.0129
 1613W        W19817   4.874  16.855   2.328 -0.0671  0.3405  0.6159
 1614W        W19818   8.231  14.743  11.226 -0.0573 -0.0196  0.2248
 1615W        W19819  12.519   5.293   3.446  0.1494 -0.2755 -0.1595
 1616W        W19820   9.479   7.110  12.220 -0.2098 -0.0635 -0.1698
 1617W        W19821   9.156   2.118  15.335  0.1678  0.0140 -0.0247
 1618W        W19822  13.793  11.358   2.529  0.1089  0.0367  0.2479
 1619W        W19823  16.262   2.099   4.782 -0.2142  0.0310  0.0141
 1620W        W19824   6.540  11.964   4.362 -0.0450  0.0878 -0.0956
 1621W        W19825  10.516   6.006  14.767  0.1404 -0.0961 -0.0391
 1622W        W19826  16.672  15.393  12.500 -0.0392  0.0199 -0.1320
 1623W        W19827   4.268  14.832  13.651 -0.2097  0.2917 -0.1760
 1624W        W19828  18.225   4.861   2.041  0.2049  0.0428  0.0372
 1625W        W19829  15.905   5.423  13.164  0.0071  0.0247  0.2164
 1626W        W19830   0.997  16.423   1.073 -0.0680  0.1387  0.0225
 1627W        W19831   6.198   1.444  13.626  0.0058  0.2872  0.1614
 1628W        W19832   8.020  14.963  14.428  0.1197  0.0656  0.1647
 1629W        W19833   4.253   0.093  11.772 -0.1968  0.1906  0.0384
 1630W        W19834  10.198  16.484  14.372  0.0487  0.1251  0.0870
 1631W        W19835   6.518  13.325  14.799  0.0713  0.1399  0.0548
 1632W        W19836  16.416  10.423  15.611 -0.0244 -0.0749  0.0003
 1633W        W19837  18.164   0.096  12.120 -0.3103 -0.4749 -0.2740
 1634W        W19838  10.677  12.434   0.482 -0.1066  0.0522  0.2798
 1635W        W19839   2.670  18.185   0.665  0.0435 -0.3857 -0.0023
 1636W        W19840  12.163   7.381   2.016 -0.0355  0.1778 -0.0615
 1637W        W19841   7.762  12.054   3.820  0.0767  0.1146  0.1499
 1638W        W19842  10.140   9.102  14.816 -0.0426 -0.2019 -0.4167
 1639W        W19843   4.001   4.509  15.020 -0.0161 -0.3179 -0.0233
 1640W        W19844  13.301   9.067  11.942  0.1045  0.3907  0.0176
 1641W        W19845  10.629  12.247   4.961 -0.0463  0.2653 -0.2013
 1642W        W19846   4.943   5.165   0.990  0.0406 -0.2308  0.4478
 1643W        W19847   6.992   4.315  14.596 -0.2081 -0.2407  0.1887
 1644W        W19848   0.105  14.193   1.780 -0.1571 -0.3931  0.3439
 1645W        W19849   0.332  10.441   3.985 -0.0398 -0.0181  0.1218
 1646W        W19850  11.709   6.529   0.244 -0.4020 -0.0075  0.1304
 1647W        W19851  12.520  11.988   1.727  0.0798 -0.1685  0.0616
 1648W        W19852   5.154  15.093  11.751 -0.2605 -0.0805  0.1570
 1649W        W19853  13.852   9.062  15.652 -0.1741 -0.1215 -0.2903
 1650W        W19854  16.763   5.072   0.405 -0.0689 -0.0289  0.2046
 1651W        W19855   0.509  11.264   2.414  0.2449 -0.0602  0.0848
 1652W        W19856  17.518   5.585  14.227 -0.1535  0.4986  0.2800
 1653W        W19857   0.521   5.309  13.900  0.0308 -0.0614 -0.0218
 1654W        W19858   4.795   7.278  12.078  0.1159 -0.0684 -0.0664
 1655W        W19859  12.106   3.189  13.847  0.0988 -0.0125  0.0249
 1656W        W19860   5.840   6.324   4.256  0.0026  0.3607 -0.0762
 1657W        W19861   3.943  15.574   0.378 -0.2980  0.2940  0.4259
 1658W        W19862   0.217   8.995   2.746 -0.0832  0.1238  0.1130
 1659W        W19863  17.427  10.912  15.090  0.2226  0.0183 -0.1920
 1660W        W19864  16.884   4.391  15.425  0.2701  0.3072 -0.0720
 1661W        W19865   9.237   7.031   2.758  0.1912 -0.3478 -0.1495
 1662W        W19866   7.334   8.408   1.948 -0.2197  0.1417 -0.4253
 1663W        W19867  16.344   4.180   3.247  0.1358 -0.0579  0.2305
 1664W        W19868   2.944   8.999  14.533 -0.1901 -0.0706 -0.0857
 1665W        W19869   8.813   2.194   5.317 -0.0408  0.0469 -0.1968
 1666W        W19870  11.182  14.078   3.187 -0.1997 -0.0149  0.0955
 1667W        W19871  16.252  15.373   2.006 -0.2252  0.0168 -0.0215
 1668W        W19872   3.026  15.443  15.112  0.2725  0.2082 -0.1872
 1669W        W19873  14.866   4.922   2.623 -0.0218  0.2168 -0.0604
 1670W        W19874  10.146   8.675   1.735  0.0051 -0.0602  0.2086
 1671W        W19875   0.048  16.260  14.775  0.1548 -0.0949 -0.0238
 1672W        W19876  13.644  15.304  13.149 -0.1927 -0.0810  0.4181
 1673W        W19877   9.683   7.602   2.515 -0.4245  0.0767 -0.4330
 1674W        W19878   0.651   1.812   1.413 -0.0151 -0.2498 -0.0853
 1675W        W19879  16.050  16.762   1.986  0.0948 -0.0194  0.0001
 1676W        W19880   5.390  11.532  14.999  0.0508 -0.2165  0.3391
 1677W        W19881   4.614   9.608  10.334  0.1330  0.3152 -0.0532
 1678W        W19882   7.137   5.745   2.881 -0.0132 -0.1607  0.1699
 1679W        W19883   5.829  16.116   2.094  0.1059  0.1542  0.0303
 1680W        W19884   9.282  15.657   1.810 -0.2865  0.2869 -0.1149
 1681W        W19885  13.112  12.321  11.429  0.0633 -0.1328 -0.0824
 1682W        W19886  14.097   6.742  14.619 -0.1978 -0.0162  0.2282
 1683W        W19887  11.846  16.708   0.204  0.4813 -0.0454  0.1543
 1684W        W19888   4.815   2.402  15.609 -0.0304  0.1280  0.1084
 1685W        W19889   9.193   0.987   0.442 -0.0412 -0.0148 -0.0297
 1686W        W19890   7.339   2.900  11.683  0.0937 -0.1723 -0.2173
 1687W        W19891   9.507  17.525  13.390  0.1446 -0.0121  0.0791
 1688W        W19892   6.559  13.537   0.514 -0.4407  0.2733  0.3894
 1689W        W19893  11.880  18.292   1.645  0.1032  0.2195  0.1601
 1690W        W19894  16.909  14.086  13.472 -0.1070 -0.0376  0.2877
 1691W        W19895  13.417   5.086  13.227 -0.0441  0.3814 -0.1449
 1692W        W19896  14.145  16.874   0.205 -0.1718 -0.1514  0.0544
 1693W        W19897   1.339  16.451   4.422  0.2583 -0.1434 -0.1398
 1694W        W19898   1.172  10.641  14.403 -0.2118  0.3086 -0.1853
 1695W        W19899  10.451   2.159  15.279  0.0362  0.1804 -0.0407
 1696W        W19900   7.827   7.383   4.310  0.1188 -0.1395 -0.1508
 1697W        W19901   3.381  10.946   4.225  0.2967 -0.1652 -0.1375
 1698W        W19902   0.696   0.670   0.301 -0.0546  0.1233 -0.1439
 1699W        W19903  17.843   8.792   0.476 -0.0770  0.3588  0.0092
 1700W        W19904   7.197  10.555  11.867  0.0915 -0.2219  0.1083
 1701W        W19905  10.158   0.293  15.041  0.1828  0.0562  0.1020
 1702W        W19906   4.610   9.371  13.413  0.1108  0.0578 -0.1687
 1703W        W19907   4.919   4.990  10.850 -0.1770 -0.0764 -0.3049
 1704W        W19908  11.743   8.558  13.009  0.1540  0.0455 -0.2677
 1705W        W19909   2.415   4.174   3.451 -0.0805  0.2997 -0.0051
 1706W        W19910   2.890   9.954  14.676 -0.3550  0.0287 -0.4010
 1707W        W19911  15.031   1.112  14.301  0.0471 -0.2212  0.4068
 1708W        W19912  16.023  15.891   4.483  0.0432  0.3468  0.2130
 1709W        W19913   2.897   6.987  13.306  0.4303 -0.3064 -0.1599
 1710W        W19914   0.806   9.420  12.926 -0.1571  0.0863 -0.0721
 1711W        W19915   5.892  11.206   4.359 -0.4711 -0.0395  0.0267
 1712W        W19916   4.747   5.986  13.006  0.2928 -0.1083 -0.0302
 1713W        W19917  18.205  16.600  14.398 -0.0701  0.2903  0.0432
 1714W        W19918  11.503   3.746  13.231  0.2498  0.3227 -0.1869
 1715W        W19919  16.754   7.122  12.488  0.0067  0.0345  0.1851
 1716W        W19920   0.638   7.592  12.551 -0.0942  0.3425  0.3341
 1717W        W19921   3.757   7.444  13.772  0.0399  0.2127 -0.0339
 1718W        W19922   0.664  16.837   1.673 -0.2107 -0.2111  0.1712
 1719W        W19923   7.030   9.179   4.387  0.1525 -0.1434  0.2371
 1720W        W19924   4.183   9.100  13.463 -0.1449  0.0825 -0.0656
 1721W        W19925  15.240   2.727   2.870  0.0724 -0.1096  0.0106
 1722W        W19926  15.124   1.933  15.367 -0.2941  0.1818  0.0122
 1723W        W19927   2.049   9.113   1.441  0.1122 -0.1838 -0.0390
 1724W        W19928  11.327   6.849   4.692  0.1063  0.2149 -0.0200
 1725W        W19929   1.528   7.192  14.714 -0.1644 -0.1635 -0.2016
 1726W        W19930   3.684  12.659   3.876  0.0175 -0.1416 -0.1250
 1727W        W19931   5.446   6.750   0.986  0.0922  0.1350 -0.2267
 1728W        W19932   5.648   7.222   0.918 -0.2310 -0.1421  0.1304
 1729W        W19933  12.505   5.303  14.939 -0.0855  0.3537 -0.0108
 1730W        W19934  11.997   0.321  15.206 -0.0601 -0.1591  0.1469
 1731W        W19935   6.222  16.429  15.475 -0.0352 -0.2474  0.1683
 1732W        W19936   7.013   8.311   4.826  0.2559 -0.0671 -0.1046
 1733W        W19937   9.760  14.052  12.671  0.0683 -0.3388 -0.1354
 1734W        W19938   2.672   7.786   0.260  0.1956  0.0507 -0.2728
 1735W        W19939  10.256   0.827  12.864 -0.0206 -0.1473  0.1183
 1736W        W19940   1.736   2.395  13.040 -0.0628 -0.2127 -0.1197
 1737W        W19941  16.325   4.976  10.791 -0.0232 -0.2299  0.0416
 1738W        W19942   3.793   2.611   0.339 -0.4558 -0.3626  0.1345
 1739W        W19943   9.611  10.982  14.874  0.0667  0.1653 -0.3168
 1740W        W19944  13.850  12.901  11.471 -0.0201 -0.1550 -0.0416
 1741W        W19945  15.117  12.530   0.847 -0.0465  0.4851 -0.0614
 1742W        W19946   1.227  17.723   2.160  0.0697  0.0611  0.0671
 1743W        W19947   6.624   1.736  14.914  0.0800 -0.2351 -0.0650
 1744W        W19948  16.127   6.958  14.582 -0.0720 -0.3017 -0.0582
 1745W        W19949  12.211   8.760   1.212  0.0770  0.2015 -0.0081
 1746W        W19950   5.145   6.453   1.282 -0.0785  0.1530  0.0143
 1747W        W19951  13.714  16.269   5.931  0.0202  0.3749 -0.2059
 1748W        W19952   1.994   0.982  10.999  0.0991 -0.0047 -0.0721
 1749W        W19953  17.959  11.241   3.659  0.0303  0.0618  0.0523
 1750W        W19954   9.488   4.507   0.903 -0.0681 -0.1959 -0.1654
 1751W        W19955   0.365   3.768  15.219 -0.0525 -0.0364 -0.1414
 1752W        W19956  10.455   6.804   0.013  0.1842  0.0268  0.0326
 1753W        W19957  17.639   3.977   2.229  0.1127 -0.2649  0.2226
 1754W        W19958   4.210  10.187   1.397  0.1729 -0.1520  0.1265
 1755W        W19959  12.956   9.769   3.507 -0.1094 -0.0284 -0.1882
 1756W        W19960  15.321   8.833   3.021  0.0359  0.2345 -0.1571
 1757W        W19961   6.643   6.497  14.526 -0.2314 -0.2774  0.0824
 1758W        W19962   9.687  11.672  15.611 -0.2164  0.0960  0.0877
 1759W        W19963   3.684   9.107   2.357 -0.0214  0.1123  0.2017
 1760W        W19964  14.381  15.195  13.325  0.2838  0.2099 -0.1678
 1761W        W19965  11.192  11.691   3.310  0.0247 -0.1116  0.2088
 1762W        W19966   8.421  17.345   4.550  0.1301 -0.0642  0.0814
 1763W        W19967   9.334   3.964   4.721  0.1410  0.2123  0.3163
 1764W        W19968   5.395  11.367   3.245  0.2629 -0.0511 -0.2528
 1765W        W19969  13.141   0.191   2.509  0.0401 -0.1851  0.0742
 1766W        W19970  17.461  12.959   3.388  0.1177  0.0657 -0.0344
 1767W        W19971   4.465   2.822  15.416  0.2609 -0.1291 -0.0248
 1768W        W19972  15.083   0.781   2.520  0.0081  0.1934  0.1695
 1769W        W19973  17.175   7.512  12.654 -0.1606  0.1811  0.2944
 1770W        W19974  15.270   8.912  11.168  0.0873 -0.2009  0.2029
 1771W        W19975  17.823  15.850   3.053 -0.0482  0.1883  0.0781
 1772W        W19976   7.564   8.008  15.063  0.0203 -0.1426  0.2128
 1773W        W19977   4.913  16.447   1.767  0.2091  0.1359  0.0324
 1774W        W19978  14.103   5.296  12.669 -0.1682  0.1491  0.1637
 1775W        W19979   6.089   5.857   0.850  0.3225  0.4519  0.2310
 1776W        W19980   0.841   0.619  11.648 -0.0389  0.0132  0.0110
 1777W        W19981  10.538  11.924   5.304  0.1144 -0.0438  0.1368
 1778W        W19982   9.851  12.487  13.450  0.0669  0.1391 -0.2528
 1779W        W19983   8.028   6.494   0.437 -0.0014  0.2162  0.0602
 1780W        W19984  14.739   1.143   2.755 -0.1552 -0.1602  0.0849
 1781W        W19985   6.103   4.570  10.114 -0.0158  0.2509  0.0316
 1782W        W19986  15.668   6.000   3.383  0.0648 -0.1099  0.0593
 1783W        W19987  12.937  17.986  11.890 -0.0127 -0.1917 -0.1541
 1784W        W19988   0.973  15.853   4.062 -0.1323 -0.0565  0.2522
 1785W        W19989   2.411   9.959   0.507  0.3302  0.0562 -0.1498
 1786W        W19990   8.216   9.984   3.383 -0.3843 -0.0921  0.0878
 1787W        W19991   9.491   5.623   4.894 -0.2389 -0.1055  0.2655
 1788W        W19992   0.660   3.762   1.325  0.1026  0.0206 -0.0724
 1789W        W19993   8.740   1.962  11.125 -0.0018 -0.0927 -0.1077
 1790W        W19994   8.186   7.335  15.671 -0.1053 -0.1126 -0.3268
 1791W        W19995   2.632   4.546   0.885 -0.0327  0.0848  0.1696
 1792W        W19996   3.288  16.333  12.385  0.2513  0.2420  0.0974
 1793W        W19997  13.100   6.637  11.820 -0.2498  0.2821 -0.0145
 1794W        W19998  10.515   9.440  14.871 -0.0147 -0.1855  0.0178
 1795W        W19999  14.581  14.022   1.187 -0.0450 -0.0149 -0.2187
 1796W        W20000  15.535   1.739  10.829  0.3253 -0.1052  0.4876
 1797W        W20001   1.352   5.686  14.583  0.0850  0.1559 -0.3008
 1798W        W20002  14.976  10.668  11.526 -0.1631 -0.0493 -0.1001
 1799W        W20003  16.647  15.905  14.174 -0.0918  0.0397 -0.1093
 1800W        W20004   9.826   9.149   4.273  0.0073  0.0648  0.2739
 1801W        W20005   6.811   1.216  14.254  0.3242 -0.0442 -0.0884
 1802W        W20006   0.079  14.894   0.550  0.0337  0.0531  0.0468
 1803W        W20007  13.925  15.774   3.235  0.0460  0.4368  0.2183
 1804W        W20008   0.166   0.636   4.041 -0.0354  0.1737  0.0769
 1805W        W20009  10.850  16.470   2.905 -0.1665 -0.1560 -0.1018
 1806W        W20010   6.644  12.940   3.925  0.0563  0.1332  0.1711
 1807W        W20011  17.257  14.046  12.052 -0.0593 -0.2958  0.0003
 1808W        W20012  14.800  12.237   2.357 -0.1643 -0.2827 -0.1900
 1809W        W20013   1.954  15.807   1.406 -0.2698 -0.0286 -0.0344
 1810W        W20014   6.812   3.386   2.532  0.1873  0.1725 -0.1129
 1811W        W20015  16.872  16.713  11.008  0.2102  0.0111 -0.2709
 1812W        W20016   7.937  12.684   0.908 -0.0087  0.0286 -0.0433
 1813W        W20017   4.328   3.450  14.501 -0.3787 -0.1602  0.0125
 1814W        W20018  16.739   7.524   1.976 -0.0268  0.2119 -0.0692
 1815W        W20019   0.135  16.763   3.806 -0.2428 -0.1928  0.2231
 1816W        W20020  16.310   7.884   4.573  0.0274  0.3448 -0.0080
 1817W        W20021   9.031  16.156  15.139  0.3985 -0.2394  0.1548
 1818W        W20022   8.181  13.512   1.716  0.0371 -0.0287  0.1173
 1819W        W20023   1.802   1.626  13.598 -0.0543 -0.0979 -0.0044
 1820W        W20024   9.187   9.424   2.711  0.4159 -0.2059 -0.0050
 1821W        W20025  15.182  16.958  13.502  0.2285  0.0163  0.1125
 1822W        W20026   7.957  15.576   4.075  0.0532  0.3189  0.1314
 1823W        W20027   7.536   3.796  14.994  0.0098  0.0191  0.1098
 1824W        W20028  10.402   2.598  15.033 -0.0588 -0.0252  0.1963
 1825W        W20029   7.472  13.723   0.070  0.2585  0.0225 -0.1521
 1826W        W20030   4.537  17.378  10.606  0.3123  0.1737  0.0313
 1827W        W20031   3.662   5.754  11.356  0.0680  0.0759 -0.0269
 1828W        W20032  13.199   0.742   0.302 -0.1469  0.2002  0.0327
 1829W        W20033  12.943  12.321   0.490 -0.3254  0.1544 -0.0882
 1830W        W20034  14.887  15.229  12.573  0.2104 -0.4523  0.0492
 1831W        W20035   3.407   0.536   0.328 -0.2574 -0.1622  0.0436
 1832W        W20036  16.701  12.100  14.632 -0.2617 -0.2742 -0.3264
 1833W        W20037   7.187  15.233   0.396  0.0458 -0.2584 -0.1049
 1834W        W20038   3.431   6.699  11.227  0.0423 -0.1466 -0.1617
 1835W        W20039   1.394   3.514  11.179  0.1245 -0.1174  0.2482
 1836W        W20040   3.298   1.596   1.517  0.1624  0.0247 -0.0962
 1837W        W20041   4.180  13.004   2.823  0.2974 -0.3410  0.1873
 1838W        W20042  12.477  17.042   3.890  0.2781  0.0939  0.0792
 1839W        W20043   7.458  10.563   1.844 -0.0458  0.0033 -0.0690
 1840W        W20044  12.847  17.552   2.709 -0.1198  0.2236  0.0236
 1841W        W20045   0.925   6.561   2.384 -0.3641 -0.0341 -0.0113
 1842W        W20046  10.821  12.766   4.736  0.3378  0.4115  0.0875
 1843W        W20047  14.180  15.126   2.639  0.1588  0.2182  0.0673
 1844W        W20048  16.397   6.407  14.761  0.0929 -0.2279 -0.1286
 1845W        W20049   5.864  14.440   0.801  0.0801  0.0658  0.0693
 1846W        W20050   4.869   7.584   3.001  0.0511 -0.1039  0.2548
 1847W        W20051  12.422   3.271   1.409  0.2343 -0.0647  0.2034
 1848W        W20052   5.158   7.180   0.971 -0.0600 -0.0998 -0.4673
 1849W        W20053   2.365  15.967  14.443 -0.0594 -0.0987  0.1749
 1850W        W20054   8.329  14.037  11.781 -0.2953  0.0174  0.0345
 1851W        W20055  10.299   3.818  11.960 -0.1595 -0.1030 -0.1551
 1852W        W20056  16.508   7.504  15.070  0.0080  0.1694 -0.4642
 1853W        W20057  15.318   7.867   3.604 -0.3358  0.2299 -0.4705
 1854W        W20058   0.847   6.803   2.848  0.1290 -0.2376 -0.2577
 1855W        W20059   7.286  15.629   0.792  0.0926 -0.1973  0.3414
 1856W        W20060  10.616   7.978   0.936 -0.2371  0.1636  0.2159
 1857W        W20061   8.808   6.043   0.986  0.0878  0.1631  0.1168
 1858W        W20062  14.664   6.634  12.732  0.2517  0.0941  0.0497
 1859W        W20063   5.463  12.543   2.572  0.3671 -0.2526  0.2280
 1860W        W20064   3.143  14.040   0.825  0.0057  0.0768 -0.0736
 1861W        W20065  16.619   9.343   1.776  0.0250  0.1164 -0.0164
 1862W        W20066  13.732  17.194  11.194 -0.4184 -0.1020  0.2730
 1863W        W20067   3.481   2.914  13.644 -0.0634 -0.1988  0.0536
 1864W        W20068  12.973  11.788   5.318 -0.3065  0.0240  0.2326
 1865W        W20069  12.116   9.183   5.260  0.0753  0.0682 -0.2877
 1866W        W20070  13.164  11.158   1.924  0.1060 -0.0327 -0.3313
 1867W        W20071  11.595   2.207  15.520  0.0917 -0.0410  0.2173
 1868W        W20072   2.918   3.679  12.047 -0.0247  0.1338 -0.1408
 1869W        W20073  12.315   5.124  12.652 -0.0384  0.7150 -0.0052
 1870W        W20074   4.776   9.416  10.806  0.1704  0.1104 -0.0100
 1871W        W20075  14.634  17.432   3.874 -0.1349  0.0592 -0.0444
 1872W        W20076  10.432  11.104   0.538  0.0254 -0.2909 -0.0856
 1873W        W20077  14.278   6.982  12.821 -0.0038 -0.1148 -0.1898
 1874W        W20078  10.239   3.914   3.273  0.1650 -0.0370 -0.3763
 1875W        W20079   6.177   7.579   4.179 -0.0814  0.2685 -0.1386
 1876W        W20080   9.242  11.825  10.742 -0.0142  0.2415 -0.2684
 1877W        W20081   8.508  17.954  12.457  0.2092 -0.0869  0.0020
 1878W        W20082   1.435   8.299  11.296  0.1360 -0.0712  0.2136
 1879W        W20083   5.779  17.444  12.134  0.3037  0.1384 -0.2689
 1880W        W20084   7.283  17.477  14.568  0.1202 -0.0137 -0.2494
 1881W        W20085   8.973   5.532   2.629  0.1553  0.0981  0.2230
 1882W        W20086   0.562   2.901  10.825 -0.2775  0.0225  0.4148
 1883W        W20087  10.802   2.949  12.613 -0.2420  0.0505  0.1403
 1884W        W20088   0.970   4.763   3.316  0.1297  0.0074  0.0119
 1885W        W20089   1.624  17.178   0.880 -0.3434  0.0475 -0.2261
 1886W        W20090   4.027  12.009   3.710  0.3754  0.0968 -0.1998
 1887W        W20091   0.535  17.385   4.262 -0.3010 -0.1471 -0.2638
 1888W        W20092  16.584   3.675  11.776  0.4219  0.0954 -0.2333
 1889W        W20093  13.501  10.515  15.380  0.0199 -0.2613  0.1369
 1890W        W20094   0.805  13.974   2.540  0.3700 -0.1283 -0.1363
 1891W        W20095   7.647  17.989  11.133 -0.2469 -0.0873  0.0106
 1892W        W20096  12.672  10.209  12.657 -0.1079 -0.1796  0.0461
 1893W        W20097   2.956  17.742   2.299  0.0524 -0.0422 -0.1148
 1894W        W20098   7.725  14.354   3.988  0.0087 -0.0946 -0.1438
 1895W        W20099   0.588   4.578  15.073  0.0410 -0.4204 -0.2734
 1896W        W20100   2.274   5.885   0.877  0.0432  0.0986 -0.0811
 1897W        W20101  15.030   4.783   0.875  0.3444 -0.1553 -0.1793
 1898W        W20102   2.031   1.839   2.888 -0.1082  0.0131 -0.2300
 1899W        W20103   0.605   8.348  10.240  0.1085  0.1664 -0.2529
 1900W        W20104  17.480   0.380   2.328  0.0010  0.0271  0.0899
 1901W        W20105   2.881  17.827   1.467  0.0059  0.2556  0.0168
 1902W        W20106  12.285   5.474   1.571 -0.0483  0.2226  0.1238
 1903W        W20107  14.332  10.425   2.794  0.3056 -0.1849 -0.1146
 1904W        W20108  17.423   4.940  12.749 -0.1968 -0.0510  0.0161
 1905W        W20109   1.215   3.397   3.969 -0.1507  0.3467  0.2115
 1906W        W20110  16.400  14.170   1.951  0.1192  0.2104  0.1485
 1907W        W20111  15.827  13.194  15.021 -0.1962 -0.0379  0.2240
 1908W        W20112  12.851   8.832   2.179 -0.0823  0.1752  0.2705
 1909W        W20113   1.367   0.215   1.940 -0.1130 -0.1947 -0.1862
 1910W        W20114   5.041  14.831  13.381  0.0464  0.3524  0.2120
 1911W        W20115   3.324  11.727  14.546  0.0675  0.1460 -0.0061
 1912W        W20116   3.617   2.460  12.263  0.2884  0.4280  0.2361
 1913W        W20117  18.313   9.045   1.265  0.1862  0.0360  0.2743
 1914W        W20118  18.006  12.429  15.034 -0.3209 -0.0137 -0.0703
 1915W        W20119  15.435   5.533  13.837 -0.1636  0.0591 -0.1989
 1916W        W20120   1.036  14.416  12.182  0.0204  0.1073  0.2092
 1917W        W20121   4.310   6.877  12.137  0.0967 -0.2007  0.1552
 1918W        W20122  15.309   1.706   0.899 -0.0679  0.0915 -0.1257
 1919W        W20123   1.269  17.894  11.580  0.0438  0.0977  0.1218
 1920W        W20124  10.493  10.139   2.919  0.1592 -0.0298  0.1020
 1921W        W20125   2.315   5.091   1.594  0.0784  0.3633 -0.0753
 1922W        W20126  13.027  13.122   3.073 -0.1141 -0.0818  0.0893
 1923W        W20127   6.567   0.563  13.624  0.0308 -0.0403  0.3779
 1924W        W20128  10.993  10.384   3.850  0.1784  0.1410 -0.1738
 1925W        W20129   1.854   1.841   4.339  0.0054 -0.2824  0.0407
 1926W        W20130   0.992  15.210   4.623  0.0265  0.0311  0.0732
 1927W        W20131   5.523  16.740  11.042  0.0839  0.1655 -0.1169
 1928W        W20132   5.662  10.949  10.953  0.0595  0.0100 -0.1521
 1929W        W20133  16.367  14.658   4.799 -0.0663  0.1181  0.2328
 1930W        W20134  15.554  17.467  10.869  0.1690 -0.3693 -0.3128
 1931W        W20135   7.729  17.308   0.138  0.4056  0.1220 -0.3145
 1932W        W20136   5.227   0.644   0.017 -0.0476  0.2822  0.0297
 1933W        W20137   3.770   2.787  14.636  0.0121 -0.1006  0.0487
 1934W        W20138   9.820  13.676   3.399  0.2654 -0.3221  0.0263
 1935W        W20139   3.531  13.924  11.240  0.0563  0.2851 -0.4224
 1936W        W20140  11.312  12.381   1.471  0.2638 -0.0268  0.1733
 1937W        W20141  16.951   4.445   2.575 -0.1193  0.1400 -0.1002
 1938W        W20142   9.800  17.521   2.570 -0.2016 -0.1844  0.1204
 1939W        W20143   0.820   6.725  15.440 -0.1417 -0.0024  0.0570
 1940W        W20144  16.800   2.377   1.378 -0.1239 -0.2232  0.0456
 1941W        W20145   1.972  10.830  14.673  0.1178 -0.2373 -0.0860
 1942W        W20146  14.675   4.904   4.396  0.0592  0.0194 -0.1144
 1943W        W20147   4.078   3.973   1.739  0.1163 -0.2022  0.1119
 1944W        W20148   6.673   4.101  11.348 -0.1045  0.0478  0.0397
 1945W        W20149   7.873   1.319   5.798  0.1774 -0.2514 -0.0119
 1946W        W20150  10.405  17.539  11.068  0.1349 -0.0812  0.0789
 1947W        W20151   8.136  15.676  13.129 -0.1212  0.2531 -0.0702
 1948W        W20152   5.315  15.723   1.274 -0.1806 -0.0758  0.2084
 1949W        W20153   3.800  14.601   1.898  0.0158  0.1378 -0.2225
 1950W        W20154  10.475  15.110  12.702 -0.3184  0.0349  0.0809
 1951W        W20155   6.550  17.220   2.118  0.0889 -0.0340  0.0391
 1952W        W20156  12.669  12.096  12.906  0.0452  0.1256  0.0823
 1953W        W20157   3.929   9.232  12.022  0.1206 -0.1128  0.2782
 1954W        W20158  13.193   6.998   6.009  0.0741  0.0406  0.2743
 1955W        W20159   3.323   3.775   1.353  0.3522  0.1470  0.0533
 1956W        W20160  14.043  12.534   4.609 -0.0096 -0.0748  0.1297
 1957W        W20161  16.841   3.424  14.267  0.0518 -0.2201  0.0892
 1958W        W20162   3.671   7.031   1.798 -0.1763 -0.1261  0.1206
 1959W        W20163  13.387  13.057   1.643  0.1152  0.0142  0.2141
 1960W        W20164   1.963  12.320   1.321 -0.0755 -0.0143  0.1211
 1961W        W20165   8.768  11.361   0.555 -0.3721 -0.0607 -0.1563
 1962W        W20166   6.525  10.984  12.008  0.0909 -0.4588 -0.2390
 1963W        W20167  11.054  16.771   0.611 -0.2372 -0.0631 -0.0968
 1964W        W20168  16.426   7.988   3.506 -0.3161 -0.0515 -0.2987
 1965W        W20169   3.432  11.250  11.088  0.0008  0.0878 -0.0118
 1966W        W20170   7.221  16.523   3.087  0.1257 -0.0053 -0.0260
 1967W        W20171   2.287  13.966   2.147 -0.0177  0.2569  0.0796
 1968W        W20172   3.527  14.764  14.101 -0.2783 -0.2501 -0.0360
 1969W        W20173   4.136  16.228   3.950 -0.2164  0.1947  0.0536
 1970W        W20174   9.672  16.236  13.722  0.2001  0.0073 -0.0887
 1971W        W20175  15.003  14.873  12.248 -0.0626  0.0650 -0.0559
 1972W        W20176   3.294  13.750  13.620 -0.2638 -0.1113  0.0969
 1973W        W20177  13.577   1.133   4.168 -0.0621  0.1798 -0.1715
 1974W        W20178   9.010  10.965   3.650  0.6966 -0.0262  0.1972
 1975W        W20179  11.931  14.366   2.535  0.2116 -0.0130  0.1253
 1976W        W20180   8.073  10.447   2.836 -0.0480 -0.0846 -0.1163
 1977W        W20181  16.675   4.988   1.640  0.0847  0.1286  0.0767
 1978W        W20182  13.527  10.089  11.962  0.0833  0.0357 -0.2180
 1979W        W20183  11.827   8.104   1.085 -0.0250 -0.3891 -0.0002
 1980W        W20184   6.206  10.304   1.860 -0.0416  0.0101 -0.1544
 1981W        W20185   7.206  15.936   9.520  0.3606  0.0316 -0.0445
 1982W        W20186   6.291  11.386   1.411 -0.1100  0.0258 -0.1424
 1983W        W20187   4.440   6.444   1.521 -0.0958 -0.4613  0.1544
 1984W        W20188   1.453   9.395  11.372 -0.2656  0.2332  0.2702
 1985W        W20189   7.481   3.556   4.537 -0.2217 -0.0619  0.2664
 1986W        W20190   3.134   1.885  13.886 -0.2522  0.1010  0.3867
 1987W        W20191   7.200  11.787   1.985  0.1203 -0.2216  0.0967
 1988W        W20192   1.715   3.111   2.488  0.1536 -0.1199 -0.1240
 1989W        W20193   9.052   2.998  14.812  0.4469  0.2159 -0.0658
 1990W        W20194  14.364   2.171  14.362 -0.1972 -0.0814 -0.0647
 1991W        W20195   7.904  17.306   4.693  0.1379 -0.0414  0.0365
 1992W        W20196   6.481   2.704  13.810  0.2031  0.2143 -0.0877
 1993W        W20197  15.312  10.859   3.077  0.0115  0.1497 -0.0657
 1994W        W20198   6.203   3.649   1.086 -0.3142 -0.2280  0.0115
 1995W        W20199  14.918  11.501   0.578 -0.1344 -0.0328  0.0051
 1996W        W20200  12.760  15.474   1.418 -0.0887 -0.0061 -0.1082
 1997W        W20201  16.561   4.836   3.602 -0.0187  0.0684 -0.0603
 1998W        W20202  13.557   2.218  13.850  0.1585  0.1388  0.1135
 1999W        W20203  12.527   2.407   0.237 -0.5121 -0.1092 -0.3466
 2000W        W20204  11.908  10.516   3.894 -0.2834 -0.0930  0.0448
 2001W        W20205  15.308   8.335  15.669  0.3673  0.1635  0.0088
 2002W        W20206  16.574  13.767  10.404  0.2854 -0.3807 -0.0874
 2003W        W20207  13.403   0.735  15.516 -0.1768  0.1443  0.0477
 2004W        W20208   3.093  14.699  13.902  0.0728 -0.1084 -0.0746
 2005W        W20209   8.954  17.532  12.281 -0.2823 -0.0297  0.0544
 2006W        W20210   4.150   7.158   2.861 -0.1545  0.0883 -0.3739
 2007W        W20211  16.720   8.235  13.184  0.0613 -0.0075 -0.3598
 2008W        W20212   9.061  14.073  13.988  0.0922  0.0753  0.1137
 2009W        W20213  14.736  16.113  15.626 -0.1186  0.0184 -0.0324
 2010W        W20214   3.734   6.251  13.865  0.0345 -0.0539  0.2609
 2011W        W20215  14.266   2.571  11.798 -0.1280 -0.2912  0.0999
 2012W        W20216   6.934   8.732   1.823  0.0066 -0.0917 -0.0431
 2013W        W20217  11.350   8.260  11.903 -0.0208 -0.1525  0.1377
 2014W        W20218  15.074   7.181  10.979 -0.2818  0.0111  0.1512
 2015W        W20219   7.124   7.326   1.358 -0.0018 -0.4391 -0.0680
 2016W        W20220   8.107  11.949   1.463 -0.0352  0.0756  0.0394
 2017W        W20221   0.362   2.538   0.200  0.3242  0.3189  0.4459
 2018W        W20222   0.292   0.268  14.134  0.0946 -0.3782 -0.1930
 2019W        W20223   3.503   2.658   1.621  0.1550 -0.2126  0.2040
 2020W        W20224   8.414  14.378   0.547 -0.1089  0.0252  0.0989
 2021W        W20225  16.952  18.279  13.941 -0.3759  0.0322 -0.2282
 2022W        W20226   6.490   2.649  15.567  0.1698  0.0852 -0.2363
 2023W        W20227  10.948  13.781  12.913 -0.0457 -0.1970 -0.1799
 2024W        W20228   5.481   1.725   3.156 -0.0723 -0.4078 -0.3063
 2025W        W20229   3.535   2.763   1.117 -0.1390  0.0156  0.0521
 2026W        W20230  15.714   9.479  11.313  0.0754  0.0274 -0.0992
 2027W        W20231   1.876  14.716   2.681  0.1159  0.1421  0.0288
 2028W        W20232   2.512  10.347   0.923 -0.1381 -0.0696  0.0426
 2029W        W20233   5.299  13.583  11.444  0.0299  0.0347 -0.0179
 2030W        W20234   7.377   7.938   4.735  0.0454  0.0668  0.2450
 2031W        W20235  18.233  17.976   1.818  0.1675 -0.0792  0.1974
 2032W        W20236  15.918   1.140   2.847  0.2120  0.0551  0.3254
 2033W        W20237  15.674   3.977   2.740  0.0073 -0.2970 -0.1817
 2034W        W20238  18.076  18.361   2.809  0.0708 -0.1123 -0.1984
 2035W        W20239   7.928  16.198  13.088 -0.0506 -0.2071  0.2805
 2036W        W20240   4.720   8.233   2.051  0.2087  0.1734  0.1428
 2037W        W20241  17.950   3.797  11.799  0.1605 -0.1000  0.1051
 2038W        W20242   9.918  15.094   4.030 -0.0340  0.3041 -0.0745
 2039W        W20243  14.687  13.323  11.190  0.1442 -0.1686  0.0024
 2040W        W20244   9.686  12.036  14.365 -0.0626  0.0711  0.2115
 2041W        W20245  14.835   7.837  12.715  0.0323  0.1504  0.0194
 2042W        W20246   6.558  14.818  11.181  0.2084 -0.1750  0.1445
 2043W        W20247  12.652  10.743  15.135 -0.1229 -0.1440  0.2911
 2044W        W20248  17.068   8.539   3.903 -0.3734  0.1945 -0.2005
 2045W        W20249  13.800   2.724   2.220 -0.2254  0.1512 -0.1264
 2046W        W20250  13.129   2.213   3.829  0.2401 -0.2046 -0.1502
 2047W        W20251  13.278   5.097  14.250  0.2379  0.2374  0.1214
 2048W        W20252   0.993  11.097  10.473 -0.0647  0.0269 -0.2649
 2049W        W20253   9.518   2.147  12.301  0.1076  0.1950  0.1006
 2050W        W20254   9.368   2.834   1.582  0.1480  0.2428  0.2121
 2051W        W20255  10.871   9.691  11.599 -0.0289 -0.2152 -0.1764
 2052W        W20256   7.169  11.532  15.559 -0.3588 -0.1658  0.2480
 2053W        W20257   0.687   6.325   1.021  0.0719 -0.2067 -0.0179
 2054W        W20258   9.742   0.609   2.999 -0.1041  0.2812 -0.0329
 2055W        W20259  18.111  17.566   3.913  0.1501 -0.2263 -0.0289
 2056W        W20260   2.118   7.501  14.481 -0.0264  0.1517  0.0908
 2057W        W20261   2.568   1.705  12.727  0.4136 -0.3373 -0.2437
 2058W        W20262  17.981  17.237  11.214 -0.3208 -0.0002  0.2065
 2059W        W20263   5.267   4.864  12.272 -0.0531  0.0560  0.1724
 2060W        W20264  14.651   8.280   4.207 -0.1280  0.2852 -0.0204
 2061W        W20265  14.275   2.627   2.110  0.2031 -0.2152  0.2626
 2062W        W20266  16.576  12.555   1.009  0.0434 -0.3171  0.2195
 2063W        W20267  14.148   8.900   0.588  0.1000  0.1909  0.2263
 2064W        W20268   8.919   2.346   0.317 -0.1465  0.1763  0.2482
 2065W        W20269   1.347   2.121   1.024  0.2683  0.0288  0.1763
 2066W        W20270  16.249  17.950   0.023 -0.1582  0.0588 -0.0246
 2067W        W20271  17.912  16.154   3.456  0.1882 -0.0262 -0.3354
 2068W        W20272   1.221   7.862   1.858  0.0672  0.0771  0.1946
 2069W        W20273  16.248  10.120   1.255 -0.0059  0.1163 -0.5730
 2070W        W20274   1.754  10.251   4.012 -0.0451  0.0931  0.4112
 2071W        W20275   5.303   4.084   3.632  0.0247  0.2259 -0.2280
 2072W        W20276  13.877   2.469   0.309 -0.0982 -0.0493  0.1118
 2073W        W20277   8.673   3.383   1.410  0.2052 -0.4378  0.1540
 2074W        W20278  13.213   0.464  13.557 -0.3054 -0.0480  0.3774
 2075W        W20279   4.352   7.366   4.278 -0.0013 -0.1752  0.0552
 2076W        W20280  18.203  12.951   4.029  0.5010 -0.2037  0.2947
 2077W        W20281  11.624  15.836  11.611  0.0296  0.0248  0.2988
 2078W        W20282   8.684   3.453   3.814  0.0412 -0.1494 -0.3160
 2079W        W20283   7.681   9.280   3.913 -0.0370  0.0365 -0.1767
 2080W        W20284  10.915   8.861  15.315  0.1565 -0.2129 -0.1636
 2081W        W20285  14.668  12.350  10.311  0.1154  0.0201  0.3763
 2082W        W20286  13.117  13.222   0.939 -0.0844 -0.0968  0.2262
 2083W        W20287   0.036   6.272  12.870 -0.1038  0.0749  0.0416
 2084W        W20288  12.579  12.173   4.625  0.3101  0.1596  0.3250
 2085W        W20289   5.895  14.785   2.069  0.1223  0.0182 -0.0237
 2086W        W20290  18.023   8.970  13.971 -0.1030  0.4127 -0.2428
 2087W        W20291   5.836  11.772   3.900  0.1269  0.2880  0.0230
 2088W        W20292   1.630   2.217  14.650 -0.0389  0.2110  0.0346
 2089W        W20293   0.855  11.544   0.755  0.0338 -0.1510 -0.2281
 2090W        W20294   3.569   0.759  11.843 -0.1042 -0.2767  0.1072
 2091W        W20295  10.375   2.231   0.048  0.1056  0.3207 -0.3531
 2092W        W20296  13.544  10.239  11.440 -0.0673  0.2841  0.0587
 2093W        W20297  13.560  10.353   0.315  0.1797 -0.0538  0.1151
 2094W        W20298   1.197   4.931   1.360  0.0116  0.2194 -0.0808
 2095W        W20299  11.255   4.522   1.427 -0.0591 -0.0912 -0.0041
 2096W        W20300   7.199  17.930   2.688 -0.0759  0.2686  0.0675
 2097W        W20301  17.716  15.293  14.396  0.0205 -0.1055 -0.1731
 2098W        W20302   0.278   3.015   2.165  0.0776  0.1144  0.1502
 2099W        W20303   9.306   4.446   4.441 -0.0590  0.1015  0.0934
 2100W        W20304   4.827   8.063   0.600 -0.0263 -0.1036 -0.1096
 2101W        W20305  14.766   9.438   2.576 -0.2126  0.0599  0.1543
 2102W        W20306   0.422  11.856   3.286  0.0235 -0.1606  0.1515
 2103W        W20307   5.950  10.704   2.032  0.1669  0.0160  0.1926
 2104W        W20308   9.902   9.112   1.603 -0.4485 -0.1904 -0.2268
 2105W        W20309   5.097  11.351   0.829  0.1287  0.2166  0.0063
 2106W        W20310   6.546  12.843  14.589  0.0056  0.0485 -0.0151
 2107W        W20311   4.013  11.849   0.683  0.0241 -0.0554  0.5075
 2108W        W20312   1.390  10.900  12.737  0.3497 -0.2382 -0.1332
 2109W        W20313  11.442   5.513   0.582 -0.0266 -0.2553  0.0729
 2110W        W20314  10.104   1.303   0.256  0.1380  0.2822  0.0513
 2111W        W20315  13.630  15.802  12.981  0.2647  0.1975  0.5215
 2112W        W20316   2.611   5.634   2.951 -0.0078 -0.0434  0.1223
 2113W        W20317   5.455  16.980   3.831 -0.3392  0.1051  0.0955
 2114W        W20318   9.344  18.156  12.875 -0.0002  0.1002  0.0842
 2115W        W20319  12.334  18.110  13.351  0.3219 -0.2266 -0.1445
 2116W        W20320   2.171  13.487   1.254 -0.0604  0.1507  0.0357
 2117W        W20321   4.310   3.396  11.673 -0.0674 -0.0663  0.0542
 2118W        W20322   8.688  17.077  12.071  0.4698 -0.3403  0.1506
 2119W        W20323  16.956  16.577   3.840 -0.1986 -0.0426  0.2625
 2120W        W20324  18.332   8.173   2.219  0.1100 -0.1966  0.0138
 2121W        W20325  17.165  14.917   2.375 -0.0978 -0.0247  0.1165
 2122W        W20326   2.025  16.104  12.316  0.2153  0.0452  0.1888
 2123W        W20327  10.217  14.518   3.321  0.2593 -0.0876  0.0991
 2124W        W20328   8.101   7.247  14.177 -0.0456 -0.1603  0.0727
 2125W        W20329   2.279  10.486   0.531  0.2960  0.0208 -0.1729
 2126W        W20330   4.128  11.117   3.598  0.2108 -0.1094 -0.1374
 2127W        W20331   2.772   6.137   3.821 -0.1247  0.0610  0.4982
 2128W        W20332   5.181   6.071   0.714 -0.0076 -0.1785  0.1679
 2129W        W20333  10.522  13.562  11.800 -0.0848 -0.2473  0.1982
 2130W        W20334  15.255  17.837  15.134 -0.4038  0.1372 -0.0197
 2131W        W20335  12.899   3.700  13.416 -0.1215 -0.0763 -0.1156
 2132W        W20336   2.140  15.890  10.597 -0.0109  0.0108 -0.4005
 2133W        W20337   0.379   0.246   0.648  0.3193  0.2131 -0.6155
 2134W        W20338  18.205  10.132   0.689 -0.1368  0.1193  0.0021
 2135W        W20339  13.681   7.751  14.093  0.0942 -0.0506 -0.0576
 2136W        W20340   2.520  12.656   1.371  0.1975 -0.0069  0.4806
 2137W        W20341   0.760  10.289   3.963 -0.0532  0.0621  0.1095
 2138W        W20342  11.238  16.256  11.020 -0.3224 -0.2332 -0.0086
 2139W        W20343  16.543  14.455  11.710 -0.0679  0.0381  0.0315
 2140W        W20344   2.701   8.686   0.769 -0.1349 -0.2115 -0.0249
 2141W        W20345  16.213  17.680  12.841  0.2791 -0.0372 -0.4355
 2142W        W20346  13.749  13.216   0.572  0.2544  0.0134  0.0220
 2143W        W20347   7.266   2.471  11.395  0.0910  0.1180  0.4457
 2144W        W20348   0.199  17.287   3.894 -0.2362  0.4031  0.2582
 2145W        W20349  13.734   8.017  11.277  0.1023 -0.1618 -0.1134
 2146W        W20350  10.170  12.269  13.080  0.1537  0.2689 -0.0968
 2147W        W20351   4.326  15.825   4.690  0.1499  0.1875  0.1911
 2148W        W20352   7.343   5.197   4.686 -0.0218 -0.2993  0.0812
 2149W        W20353  10.490   0.303  13.754 -0.0745  0.0207 -0.2233
 2150W        W20354  13.152  12.511   5.750  0.0806 -0.0089  0.3167
 2151W        W20355   4.623   7.043   2.959 -0.0069  0.0761  0.2222
 2152W        W20356   7.709   3.541  15.408 -0.0457  0.0377  0.0769
 2153W        W20357   4.694  11.858  14.542 -0.0319 -0.1385 -0.1148
 2154W        W20358  12.809  13.438   4.313  0.3677 -0.2111 -0.2290
 2155W        W20359   9.612  15.044   4.631 -0.1366  0.1278  0.0046
 2156W        W20360  13.174  12.919  14.573 -0.0341 -0.1667 -0.0810
 2157W        W20361   8.166   4.198   0.359  0.1068  0.1086  0.2006
 2158W        W20362   9.169   1.575   4.542  0.1937  0.0331 -0.0904
 2159W        W20363   7.400   2.826   0.965  0.2464  0.2266  0.0389
 2160W        W20364   2.305  18.117   3.548 -0.4474  0.1944  0.0112
 2161W        W20365  13.757   3.481   0.299 -0.3588 -0.0822 -0.3822
 2162W        W20366  10.950  15.583  12.125 -0.1528 -0.0711  0.0303
 2163W        W20367   4.109  15.894  13.485  0.0357 -0.0583  0.2372
 2164W        W20368  17.627  16.640  11.252  0.2774 -0.1564  0.2411
 2165W        W20369  16.350   5.398   0.314  0.0701  0.0462  0.2005
 2166W        W20370   3.265  15.256   4.156  0.2171  0.0461 -0.0529
 2167W        W20371  16.045  11.641   2.555  0.2813 -0.2116  0.0616
 2168W        W20372  12.759   9.610   1.305 -0.0519  0.1963  0.0808
 2169W        W20373  13.187   0.371  12.678  0.2778  0.1159 -0.2724
 2170W        W20374  14.194  14.352   1.467  0.2458 -0.1618 -0.1976
 2171W        W20375   9.151   2.991   3.230  0.0610 -0.0302 -0.2701
 2172W        W20376  10.980   5.398   3.684 -0.0244 -0.2736  0.0335
 2173W        W20377   0.312   0.980  12.091 -0.0971  0.2718 -0.3764
 2174W        W20378  15.153  17.653   4.278 -0.1924  0.0935  0.0733
 2175W        W20379  14.972  13.965  14.433  0.1080  0.3820 -0.2280
 2176W        W20380   8.839   6.093   4.786  0.2471  0.1137 -0.0789
 2177W        W20381   9.109  11.036   4.690 -0.2925 -0.1719 -0.1641
 2178W        W20382   4.561  16.614   2.613 -0.0009 -0.0422  0.2990
 2179W        W20383  12.530   4.403  13.421 -0.0238  0.0329  0.0446
 2180W        W20384   2.366   0.269   3.059 -0.0417  0.0778  0.3676
 2181W        W20385   7.006  11.264  12.999  0.2723 -0.1750  0.1959
 2182W        W20386  12.017   2.274  11.898  0.0072 -0.0675 -0.0641
 2183W        W20387  10.650  13.849  13.370 -0.3646 -0.2124 -0.0133
 2184W        W20388  17.734  10.566  11.357 -0.2771 -0.3809 -0.2211
 2185W        W20389   8.787   6.976  13.056  0.0710 -0.0946 -0.2145
 2186W        W20390   6.805   2.564   0.264 -0.2577  0.0405  0.0854
 2187W        W20391   7.595   0.565  13.658 -0.1904 -0.0458  0.0311
 2188W        W20392  10.978  16.947  13.389  0.1069 -0.0498 -0.3523
 2189W        W20393   7.860   4.296   2.201 -0.0492 -0.3710  0.0587
 2190W        W20394   1.249   4.302  12.402 -0.0579 -0.0381  0.1874
 2191W        W20395   5.947   7.168  12.943  0.1431 -0.0597  0.4863
 2192W        W20396   7.354   1.844   0.582  0.0395 -0.1053 -0.1237
 2193W        W20397  15.277   2.832  15.102 -0.2365  0.1402 -0.0566
 2194W        W20398   4.080   6.982   0.752 -0.0366 -0.0493 -0.1751
 2195W        W20399  12.457   5.248  12.136 -0.1977  0.1991  0.0066
 2196W        W20400   9.267   7.093  13.151  0.2136 -0.2160  0.1424
 2197W        W20401  10.932  12.208   3.997 -0.0910 -0.1780  0.0701
 2198W        W20402   3.801   0.018   4.504 -0.0795  0.1050 -0.2540
 2199W        W20403   6.705   5.691  11.535 -0.1334 -0.0071  0.0084
 2200W        W20404  14.082   2.850  11.427 -0.2246  0.2468  0.2702
 2201W        W20405   7.031   5.247   3.769  0.0710  0.0011  0.2868
 2202W        W20406   4.673   7.897   3.401  0.0089 -0.0878  0.0150
 2203W        W20407  12.414   3.164   0.115  0.1331 -0.2492 -0.0849
 2204W        W20408   6.187   0.878   3.811  0.0283  0.0124 -0.0502
 2205W        W20409   3.815  15.541  14.396 -0.1093 -0.3940  0.0150
 2206W        W20410   5.220   4.136   0.758 -0.0897  0.0930 -0.0970
 2207W        W20411  16.559   2.099  10.824  0.0568  0.1005 -0.2846
 2208W        W20412  15.669  15.820   3.710 -0.0282  0.0159  0.1201
 2209W        W20413   1.162  14.176   4.191 -0.1170  0.0343 -0.2622
 2210W        W20414  11.859  11.582  13.766  0.1408  0.0134  0.0500
 2211W        W20415   3.882  12.351   1.383  0.1791 -0.2386  0.2720
 2212W        W20416   0.870  18.095   2.359 -0.0795  0.2044  0.1795
 2213W        W20417  17.592   5.878  14.914  0.3883 -0.0270 -0.4501
 2214W        W20418  16.702   2.880   1.324 -0.0486 -0.0354 -0.0539
 2215W        W20419   7.998   3.131  13.334  0.1973 -0.4426 -0.1481
 2216W        W20420  14.537  13.925   1.811  0.1107  0.0437  0.0087
 2217W        W20421  11.818  10.468  15.059  0.1810  0.0334 -0.3707
 2218W        W20422   3.259   4.928  13.028  0.3756  0.0650  0.1073
 2219W        W20423   7.975  18.118   4.120  0.0943  0.2063  0.3391
 2220W        W20424  11.354   8.270   5.424  0.0738  0.3191  0.1594
 2221W        W20425  14.543  17.472   4.852  0.0574  0.1693 -0.0729
 2222W        W20426   7.952   7.451   5.298 -0.1162  0.0764 -0.1147
 2223W        W20427   4.918   2.656  11.377  0.2123  0.2162  0.0859
 2224W        W20428   2.750  14.045  12.327  0.2158  0.1417  0.1100
 2225W        W20429   7.677  10.250   1.200  0.2237  0.0460  0.1045
 2226W        W20430  12.387   4.709   2.371 -0.1635  0.2185 -0.0856
 2227W        W20431   9.423   7.440  12.609  0.1928 -0.3278  0.1021
 2228W        W20432   4.451   8.616  14.264  0.1059 -0.2395  0.1579
 2229W        W20433  10.414  10.681   4.339 -0.0736 -0.0474  0.1042
 2230W        W20434   0.122   9.242   4.947  0.0535  0.0308 -0.2776
 2231W        W20435  13.239  11.325  14.245  0.2298  0.1532 -0.3072
 2232W        W20436   4.575  14.857  12.449 -0.4421 -0.0664  0.2111
 2233W        W20437  18.241  10.611   4.588 -0.1705 -0.1578 -0.2928
 2234W        W20438  12.206   3.546  15.688  0.2024  0.0347 -0.1090
 2235W        W20439   6.066  17.787  11.816  0.2936 -0.1431 -0.2262
 2236W        W20440   0.873  10.930   3.388 -0.0885 -0.1155 -0.2118
 2237W        W20441  11.437   6.119  12.346  0.2050 -0.2819  0.1681
 2238W        W20442   3.540  12.113   3.908 -0.1656 -0.1202 -0.1689
 2239W        W20443  16.423  12.486  14.979 -0.1833  0.1695  0.4581
 2240W        W20444   3.279  16.550  15.156  0.0619  0.4544  0.3072
 2241W        W20445  14.072  11.588  14.153 -0.0768  0.3825  0.2527
 2242W        W20446  10.985  15.075   1.953  0.3903  0.0020  0.0837
 2243W        W20447   5.779   7.324   4.346  0.0181  0.0969  0.0397
 2244W        W20448  16.210  11.540   3.422  0.0518  0.0664  0.0842
 2245W        W20449  14.480  14.184  11.360 -0.0173  0.1747  0.0879
 2246W        W20450   3.877  16.608  13.469  0.0760  0.1850 -0.1421
 2247W        W20451  17.857   2.028  13.140 -0.1024  0.0597 -0.1659
 2248W        W20452   4.210  18.200   4.819 -0.3415  0.0802  0.3102
 2249W        W20453   4.596  12.984  13.413  0.0325  0.2707  0.1693
 2250W        W20454   0.184   9.078   4.404  0.0012  0.0147 -0.0671
 2251W        W20455   2.743  12.484   3.411 -0.1962  0.2925 -0.2843
 2252W        W20456  17.991   7.912  12.613 -0.1063  0.1502 -0.0213
 2253W        W20457  11.195  16.406   3.282 -0.1845  0.0991 -0.0479
 2254W        W20458  17.544  18.327  13.263 -0.2277  0.1056  0.0897
 2255W        W20459  10.150   5.597  11.768 -0.1936  0.3595 -0.3423
 2256W        W20460  17.374   1.281   2.619 -0.3004  0.3734 -0.3111
 2257W        W20461  15.883  17.824  14.363 -0.1236 -0.0235  0.1438
 2258W        W20462   2.830   2.275  11.978  0.0071  0.2901  0.1461
 2259W        W20463  16.242   6.744   4.471 -0.1587  0.1662  0.3406
 2260W        W20464  18.069   4.856   0.311 -0.0505  0.1476  0.0755
 2261W        W20465   9.274  13.900   0.779  0.1055  0.0559 -0.0609
 2262W        W20466   2.932   6.667  14.132  0.1571  0.1019  0.0415
 2263W        W20467  17.703  10.778  13.123 -0.1828  0.4471  0.1877
 2264W        W20468  15.425  12.047   2.170  0.0139 -0.1968  0.2132
 2265W        W20469   4.029  17.224   2.634 -0.0774 -0.0216  0.1183
 2266W        W20470  11.134   1.598  12.381  0.5928  0.2071  0.0766
 2267W        W20471   7.372   8.180  10.824 -0.1535 -0.0737  0.0716
 2268W        W20472   4.828   3.009  10.400 -0.0735 -0.0075  0.0200
 2269W        W20473   5.579   3.575   0.230 -0.1345 -0.1677 -0.2092
 2270W        W20474   2.401   8.551   0.384 -0.2401 -0.3016 -0.0595
 2271W        W20475  14.364  16.387   3.347 -0.2001 -0.2222 -0.3839
 2272W        W20476  11.902  16.748  13.420 -0.0664 -0.2401  0.2205
 2273W        W20477  15.939   6.370  12.426  0.0339  0.0609 -0.0429
 2274W        W20478   2.429   0.004   2.107 -0.2937  0.2276  0.4116
 2275W        W20479  11.122  15.089  12.001 -0.0774  0.2746  0.0462
 2276W        W20480  11.693   4.924   1.294 -0.0861  0.0536 -0.0336
 2277W        W20481   9.248  11.771   3.658 -0.0015 -0.0576 -0.2960
 2278W        W20482  17.643  12.796  10.777 -0.4505  0.1054 -0.1907
 2279W        W20483  16.740   5.212  14.228 -0.1979 -0.0461  0.1854
 2280W        W20484   2.669  13.339   1.387 -0.0144  0.0492 -0.1666
 2281W        W20485   7.458   9.253   1.241 -0.1461  0.0298  0.3003
 2282W        W20486   9.573   0.256   3.283  0.0760 -0.2525 -0.3208
 2283W        W20487   7.581  11.412  11.679  0.1083 -0.0068  0.1632
 2284W        W20488   1.692   2.981  13.899 -0.1339 -0.0807  0.2154
 2285W        W20489   1.852   0.465   3.668  0.0541 -0.0818 -0.1231
 2286W        W20490   6.769  12.179  11.839  0.0568 -0.1250 -0.2488
 2287W        W20491   6.708   4.522  10.895  0.2503  0.2725 -0.1113
 2288W        W20492   6.184   1.768   3.940 -0.0707  0.0469  0.0331
 2289W        W20493   6.735  16.036  11.598  0.0204  0.0632 -0.0350
 2290W        W20494   7.954   7.404   1.432  0.0963 -0.1140 -0.1813
 2291W        W20495  10.194  15.593   2.319  0.2118  0.1032  0.0665
 2292W        W20496   5.880   3.084   2.354  0.1866  0.3577  0.0274
 2293W        W20497  16.316   6.678  10.557  0.0667  0.0486  0.4152
 2294W        W20498   9.966   6.287  13.257  0.2275  0.1497  0.0981
 2295W        W20499  18.080  11.377  14.494  0.0184 -0.1118  0.1311
 2296W        W20500   9.249  13.267   1.482 -0.1984  0.0883 -0.1100
 2297W        W20501   7.209  13.016   3.420  0.0388  0.1228 -0.2140
 2298W        W20502  10.358  16.897   2.050 -0.1461 -0.0200  0.1757
 2299W        W20503   9.214  12.111  14.319  0.3336 -0.1653  0.1076
 2300W        W20504   9.067  15.564  10.906 -0.0341 -0.2246 -0.0904
 2301W        W20505  14.657   0.440  10.537 -0.3727  0.0266 -0.0833
 2302W        W20506  10.375   7.773  10.934 -0.0147  0.0879  0.0513
 2303W        W20507   3.458  12.978   4.793  0.0848 -0.0979 -0.1040
 2304W        W20508  12.434  13.339   1.814 -0.0187  0.5221  0.1405
 2305W        W20509  13.085  11.361  15.265  0.1802 -0.1473  0.1503
 2306W        W20510  11.983   4.951   2.678 -0.0149 -0.4954  0.2356
 2307W        W20511   7.162   4.714  14.247 -0.1274 -0.2052 -0.4792
 2308W        W20512   9.491   4.031  11.996 -0.1625  0.2495  0.1006
 2309W        W20513   4.233   3.592   2.242 -0.0673  0.0827 -0.2707
 2310W        W20514  17.678   7.118   4.234  0.0523  0.0215  0.1450
 2311W        W20515  15.070  13.322  11.551  0.0193  0.1660 -0.0979
 2312W        W20516   6.480   2.211   1.042  0.0168  0.0145 -0.0871
 2313W        W20517   3.711  12.606  12.946  0.2350  0.0769 -0.1162
 2314W        W20518  15.805  14.011   4.489  0.2657  0.0613 -0.3324
 2315W        W20519   1.312  12.700   2.076 -0.0070 -0.0920  0.2430
 2316W        W20520  11.374   2.642   4.387  0.2863 -0.2324  0.1749
 2317W        W20521  15.528  16.100   1.662  0.2495  0.0495 -0.0156
 2318W        W20522  15.404   8.071   4.216  0.0384  0.0989  0.0374
 2319W        W20523   5.502   5.460   3.922  0.0293 -0.1109  0.1532
 2320W        W20524   0.743   4.315   4.086 -0.2013  0.1985 -0.1943
 2321W        W20525   4.684  10.679   3.054 -0.2157  0.1509 -0.1384
 2322W        W20526  16.070  17.149  15.145 -0.1051 -0.2055  0.1578
 2323W        W20527  13.949   4.821  13.584 -0.0101 -0.0071  0.1665
 2324W        W20528   3.907   7.446  11.446  0.2803 -0.0246 -0.0363
 2325W        W20529   0.965   7.554   3.509  0.0830 -0.0054  0.0777
 2326W        W20530  10.628   3.147  11.392  0.1181  0.2408 -0.2312
 2327W        W20531  17.783   7.106  14.760 -0.1034  0.1158 -0.0544
 2328W        W20532   0.928  11.229  15.690 -0.0176  0.3340 -0.3033
 2329W        W20533   5.580  16.735  12.858  0.0799  0.1481  0.3640
 2330W        W20534   7.630   1.225   3.776  0.1552  0.0023 -0.3098
 2331W        W20535  12.991  17.523  11.557 -0.1253 -0.0252 -0.1759
 2332W        W20536  14.661   7.801   2.832  0.0228 -0.0143  0.0237
 2333W        W20537  14.468  15.419  12.264 -0.3907  0.2168  0.0305
 2334W        W20538  11.383   5.832  13.204 -0.0050 -0.1201  0.2164
 2335W        W20539   8.684  10.506  13.221  0.2354  0.1359 -0.0133
 2336W        W20540   2.446   7.019  12.496  0.3135  0.0128 -0.2623
 2337W        W20541   3.451   1.531   0.668 -0.4707 -0.1840 -0.2198
 2338W        W20542   7.604   8.790   4.782 -0.0162  0.0241 -0.0206
 2339W        W20543   5.374   5.098   3.499  0.0583  0.2195 -0.2762
 2340W        W20544   6.534   5.718  13.891 -0.0364 -0.2132 -0.1477
 2341W        W20545   3.310   0.459   0.830  0.0533  0.0415 -0.1790
 2342W        W20546   6.664   4.058  11.953  0.1434 -0.1647 -0.0733
 2343W        W20547  11.793   9.203   2.426  0.0476 -0.1337 -0.2048
 2344W        W20548  14.544  12.996  14.646  0.1861  0.1845 -0.2070
 2345W        W20549   0.022  16.624  12.938  0.2312  0.0003  0.0074
 2346W        W20550  13.020  10.420  14.999 -0.0351 -0.2557 -0.1238
 2347W        W20551  10.090  10.426  14.277 -0.0773 -0.3879  0.1212
 2348W        W20552  10.576  17.492   3.868  0.1558  0.2633  0.1789
 2349W        W20553  10.384   9.090  13.015  0.2607 -0.2173  0.0158
 2350W        W20554  12.852  12.586  11.065  0.1171  0.2423  0.3768
 2351W        W20555   8.165  11.592   1.928  0.1338 -0.2207 -0.0030
 2352W        W20556   9.939  15.952   3.159 -0.0649  0.1583  0.0581
 2353W        W20557   0.464   8.094  15.454  0.0296 -0.2314 -0.1863
 2354W        W20558   3.925   8.543  12.724 -0.0944  0.0988 -0.2329
 2355W        W20559   4.050   2.160   3.559  0.0672  0.0550 -0.0438
 2356W        W20560   6.743  15.230  12.152  0.2492  0.0869  0.3121
 2357W        W20561   7.345  17.940   0.983 -0.0564  0.0906 -0.2960
 2358W        W20562  10.879  17.822  10.841  0.0066 -0.0840  0.1052
 2359W        W20563   2.937  10.535  15.668  0.2183  0.3063 -0.0889
 2360W        W20564   1.406   7.162   4.187  0.3509  0.0952  0.1140
 2361W        W20565   0.254   4.055  13.777 -0.1206 -0.0853 -0.0208
 2362W        W20566  11.716   5.560   2.485  0.3089  0.4533  0.0121
 2363W        W20567   6.155  13.516   3.076  0.1096  0.1127 -0.0554
 2364W        W20568  17.211   2.235   1.807 -0.1701 -0.0059  0.3336
 2365W        W20569  17.033   9.473  14.304  0.0392  0.0742  0.0111
 2366W        W20570  16.357  17.550   1.639 -0.1017  0.2337  0.0285
 2367W        W20571  15.183   1.412   2.036  0.0059 -0.2280 -0.3077
 2368W        W20572   2.349  14.844   2.011 -0.1244  0.2465 -0.2406
 2369W        W20573   0.383  14.725  12.126 -0.0763 -0.0841 -0.3186
 2370W        W20574   1.895   0.939   3.996  0.0373 -0.1676  0.3053
 2371W        W20575  11.488  17.389  13.950 -0.2634 -0.2115 -0.1398
 2372W        W20576   4.397   8.829   5.003 -0.0807 -0.1366 -0.0500
 2373W        W20577   4.540  16.734  12.236  0.3277  0.1385 -0.0413
 2374W        W20578   7.958   7.592   2.400 -0.1023  0.0669  0.0157
 2375W        W20579  14.037  12.668  11.058 -0.0534  0.3397  0.4485
 2376W        W20580   5.131   4.398  11.579 -0.1083  0.2793  0.2192
 2377W        W20581   2.918  17.510  11.507 -0.5203 -0.2777 -0.0842
 2378W        W20582  11.489  13.508  11.410 -0.1784 -0.2073 -0.1063
 2379W        W20583   3.258  11.459  11.886 -0.0139 -0.1398 -0.0626
 2380W        W20584  14.331   1.231  15.357  0.2518  0.0268 -0.2184
 2381W        W20585  12.817   2.585  11.041 -0.3510 -0.0051  0.0966
 2382W        W20586   8.385   1.100  12.759 -0.0468 -0.1037  0.0909
 2383W        W20587   1.952  12.917  12.099  0.4516  0.0887 -0.0949
 2384W        W20588  12.092   3.952   0.316 -0.0732 -0.2533  0.1600
 2385W        W20589   6.326   7.628   2.440  0.1373 -0.2261  0.0127
 2386W        W20590  14.145   1.883  11.131 -0.1717 -0.1863 -0.0454
 2387W        W20591  14.665   8.354  15.695  0.2714  0.1004 -0.1636
 2388W        W20592   4.712   7.948   5.260  0.0897 -0.1924  0.2322
 2389W        W20593  14.421  14.927  12.167  0.3635  0.2510 -0.2157
 2390W        W20594   9.258  11.098   5.197  0.0686  0.1920 -0.3914
 2391W        W20595  10.526  14.942  11.367  0.1336  0.2666 -0.0807
 2392W        W20596  10.083  11.992  11.010  0.2351  0.2000 -0.1463
 2393W        W20597   4.705   5.438   4.234  0.0472 -0.0892 -0.1844
 2394W        W20598   0.502  13.517   3.021 -0.5745 -0.2997  0.0217
 2395W        W20599   1.308  16.848  12.597 -0.2220  0.1200 -0.0610
 2396W        W20600   5.131   0.331   4.593  0.1891  0.0482  0.1308
 2397W        W20601   1.809  15.011   0.492  0.0083 -0.1043 -0.0772
 2398W        W20602  16.904  11.349  11.130  0.2427  0.1994 -0.1645
 2399W        W20603  13.536   9.041  14.190  0.1286  0.1296  0.0033
 2400W        W20604   0.948  16.503  14.732 -0.1972  0.1884  0.5804
 2401W        W20605   6.258  14.218   2.547  0.1638  0.2054  0.1528
 2402W        W20606   2.861   1.943  14.883  0.0149  0.1856 -0.1839
 2403W        W20607   2.715   8.683   3.501 -0.1924 -0.2670  0.1177
 2404W        W20608   2.898  13.195   0.252  0.2549  0.1444  0.1896
 2405W        W20609  16.672   3.531  13.760  0.1081  0.1880  0.1118
 2406W        W20610   9.590   1.401   1.479  0.2547 -0.0539  0.0153
 2407W        W20611   3.287   9.881  12.350  0.1549  0.1619 -0.2813
 2408W        W20612   2.354   3.261   3.417  0.0954 -0.1109  0.0638
 2409W        W20613  18.194   9.320   1.686  0.1889 -0.1550  0.2481
 2410W        W20614  17.784   0.134   0.715 -0.1384  0.2415  0.1586
 2411W        W20615  10.370  14.945   4.051 -0.1510 -0.3076  0.1017
 2412W        W20616  14.096  13.057   4.473 -0.2496 -0.4352  0.0547
 2413W        W20617  17.808  16.442   3.031  0.0681 -0.0041  0.6021
 2414W        W20618  13.475   2.108   0.202 -0.1106  0.0834 -0.0214
 2415W        W20619  17.460   9.220  14.754 -0.0987 -0.2683  0.2021
 2416W        W20620   6.397   0.169   1.374 -0.2211 -0.2585  0.2509
 2417W        W20621  10.922   9.838   3.641  0.1637 -0.0987 -0.2787
 2418W        W20622   1.969   5.375  14.832 -0.0905  0.2142  0.0582
 2419W        W20623   1.231   0.597   4.911  0.0411 -0.1697 -0.0862
 2420W        W20624  10.052   9.528  15.161 -0.0009  0.2542 -0.1208
 2421W        W20625   8.434   0.195   0.565 -0.0749 -0.0237 -0.0766
 2422W        W20626  12.123   3.360  10.827 -0.3275 -0.0709  0.1174
 2423W        W20627   7.614  12.751  12.730 -0.0910 -0.2849  0.2795
 2424W        W20628   2.705   3.112  13.888  0.2141  0.2328  0.2028
 2425W        W20629   2.474  13.572  13.127 -0.2084 -0.0034 -0.1679
 2426W        W20630  14.078   2.320  14.717  0.0305  0.0576 -0.1695
 2427W        W20631  15.215  15.086   4.702 -0.0432  0.2436  0.0206
 2428W        W20632  14.274  15.348  15.033  0.1283  0.3107 -0.1073
 2429W        W20633  16.499  10.823  13.711 -0.3523 -0.2480 -0.1044
 2430W        W20634   5.586   2.089   0.984 -0.2332  0.0237  0.2083
 2431W        W20635  17.338   2.927   4.401 -0.2308 -0.0622  0.0793
 2432W        W20636  12.364   8.053   2.556 -0.1919  0.0835 -0.0867
 2433W        W20637   5.897  13.281   2.661  0.0486 -0.0980  0.1338
 2434W        W20638   9.498  11.655   4.084 -0.0828 -0.3096  0.4455
 2435W        W20639   0.296   3.416   0.339 -0.0176  0.1111 -0.0015
 2436W        W20640   7.269  17.032   1.278  0.1730 -0.1028  0.1085
 2437W        W20641  15.471  13.336  14.134  0.0100 -0.0435 -0.3587
 2438W        W20642   9.383   6.172   5.361  0.0592  0.0980  0.1286
 2439W        W20643  14.371  15.955  13.981  0.2135  0.0351  0.4403
 2440W        W20644  17.018  16.662   0.148  0.4522 -0.3187  0.0018
 2441W        W20645  14.877   7.955  12.202 -0.0162 -0.1393  0.0803
 2442W        W20646   1.720   2.595  14.314  0.1576 -0.1037 -0.0049
 2443W        W20647  16.704   7.050   3.159 -0.0947 -0.2084  0.2128
 2444W        W20648  15.688   1.593   1.340  0.0426 -0.0485  0.1770
 2445W        W20649   0.766   6.163   1.710 -0.2362 -0.1003 -0.2907
 2446W        W20650  11.389   1.636   2.782 -0.0860 -0.1273 -0.1240
 2447W        W20651   5.561  17.914   1.546 -0.0762  0.1759 -0.0045
 2448W        W20652   3.776   7.030  12.895  0.2720  0.1660 -0.2286
 2449W        W20653   1.185  15.288  15.145  0.0642  0.1333  0.1952
 2450W        W20654   1.509  12.929   2.477 -0.0757 -0.1011  0.3186
 2451W        W20655  11.886   1.294  15.554 -0.0423  0.1810 -0.1178
 2452W        W20656  18.180  16.610   4.377  0.0056 -0.0540 -0.2035
 2453W        W20657   5.182  12.106   0.977 -0.1173 -0.0099  0.5075
 2454W        W20658  14.792   9.200   5.276 -0.3302  0.0044  0.1712
 2455W        W20659  10.357  14.580  14.922  0.2592 -0.4094  0.0401
 2456W        W20660  10.544   6.363  13.440  0.1128  0.0403 -0.0320
 2457W        W20661  15.059  16.523   0.095 -0.0265 -0.0788 -0.0081
 2458W        W20662   3.680  17.960   3.242  0.0424  0.0158 -0.1637
 2459W        W20663  11.855  17.582  12.010  0.1618  0.0581  0.2025
 2460W        W20664   9.910  13.041   3.377 -0.1956 -0.1155  0.1926
 2461W        W20665  12.109   9.727   1.521 -0.1750  0.1177 -0.4039
 2462W        W20666   8.840  10.392   0.517  0.0475 -0.2379  0.2164
 2463W        W20667  11.550  12.638   3.132 -0.1674 -0.1808 -0.3041
 2464W        W20668  15.170  11.650   2.095  0.1656 -0.4564 -0.1354
 2465W        W20669   5.450  17.820   3.369  0.0160  0.0561 -0.0761
 2466W        W20670  11.539   4.506   2.432  0.1565  0.0800  0.2475
 2467W        W20671   4.648   2.995  12.250 -0.1102 -0.0410 -0.0029
 2468W        W20672  18.191   5.921   1.744 -0.1791  0.0096  0.2468
 2469W        W20673  17.193   3.101  12.037  0.1971  0.1186 -0.1252
 2470W        W20674   8.309  14.287   3.665  0.0042 -0.0203  0.4607
 2471W        W20675  16.699  15.621   0.139 -0.0861 -0.0610 -0.0501
 2472W        W20676  18.287  14.320   1.161 -0.2276 -0.1295 -0.2883
 2473W        W20677   2.729  14.730   3.128  0.1671  0.1875 -0.0151
 2474W        W20678   3.335  16.503   2.241  0.0101  0.0446  0.0935
 2475W        W20679  13.188  14.305   3.809 -0.2426  0.1530 -0.1303
 2476W        W20680   4.723  18.100   1.190 -0.1221 -0.1356  0.0935
 2477W        W20681   0.902   2.042   4.490  0.1307  0.2393  0.2449
 2478W        W20682   4.166  16.525  10.764  0.3243 -0.1246  0.0206
 2479W        W20683  12.185  13.358   4.548 -0.0711  0.2790 -0.0886
 2480W        W20684   4.318  11.240  11.173  0.2874  0.2930  0.0918
 2481W        W20685   0.682  17.558  12.699  0.1079  0.0738  0.2423
 2482W        W20686   8.457   0.331   1.045 -0.2878  0.2436  0.3344
 2483W        W20687   9.606  11.644   2.686  0.1200 -0.4915  0.2164
 2484W        W20688  17.761  13.222   2.009 -0.1012 -0.1783  0.1424
 2485W        W20689   3.156  13.143  14.158  0.2912 -0.1017 -0.3692
 2486W        W20690   5.148   3.903   0.252 -0.2021 -0.1319  0.0361
 2487W        W20691   6.223   5.809  14.913 -0.1125  0.2341 -0.1768
 2488W        W20692  18.135  17.451   2.828  0.1931  0.0467 -0.0577
 2489W        W20693   2.507   5.684  12.868 -0.0398  0.1390 -0.2853
 2490W        W20694  11.905   7.981   0.143 -0.0411 -0.1102  0.0985
 2491W        W20695   4.627  13.799   3.737  0.1017 -0.1071 -0.0397
 2492W        W20696   7.898   4.869   3.449 -0.1272 -0.2224  0.0830
 2493W        W20697  10.988   3.950  13.874  0.2004  0.1710  0.1776
 2494W        W20698   3.450   9.296  13.779  0.0079  0.3536 -0.1519
 2495W        W20699   6.649   8.288  11.876 -0.1059 -0.3562  0.2203
 2496W        W20700  13.925  14.173   0.367  0.1150 -0.0639  0.3507
 2497W        W20701  17.086  14.743  12.868 -0.0663  0.0659  0.0734
 2498W        W20702  10.987   6.059   0.521  0.0302  0.0014  0.0563
 2499W        W20703   5.729   2.610   2.179 -0.1805  0.2669  0.0303
 2500W        W20704  16.558   6.217   4.365 -0.0369  0.2629  0.4142
 2501W        W20705  12.077  10.958  12.743  0.0058  0.0429 -0.1086
 2502W        W20706   9.445  17.614  11.367  0.4992  0.2020 -0.3565
 2503W        W20707  15.438  10.660  13.471  0.2555  0.0433 -0.0705
 2504W        W20708  15.497  17.732  14.729  0.1034 -0.1266  0.3670
 2505W        W20709   3.925  17.673  12.537 -0.0469 -0.0363  0.2511
 2506W        W20710   2.771  15.709  14.766 -0.0527 -0.4078  0.2712
 2507W        W20711   7.161   4.172   3.216  0.0265  0.0338  0.0515
 2508W        W20712   0.790  14.960   5.251 -0.1062  0.1815 -0.0756
 2509W        W20713  14.857   2.649   4.320 -0.0818  0.0141 -0.0417
 2510W        W20714   9.611   2.234  15.116 -0.1163  0.0155  0.0476
 2511W        W20715  11.339  15.427  15.460  0.0156  0.4148  0.2312
 2512W        W20716  11.601   1.141  15.145 -0.1521 -0.3802 -0.2699
 2513W        W20717  15.290   4.018  12.393  0.0264  0.2874 -0.1953
 2514W        W20718  13.366   4.174   4.223 -0.0902  0.1438 -0.3978
 2515W        W20719  12.096   2.737   0.793  0.0711  0.3308 -0.3388
 2516W        W20720   1.707   6.539  14.080  0.1811  0.0567  0.0832
 2517W        W20721  12.368  15.892  11.782 -0.0413 -0.1355 -0.2501
 2518W        W20722  13.034   7.405  15.281  0.0452  0.0702 -0.1111
 2519W        W20723   3.663  15.735   1.767  0.2461  0.1682 -0.1130
 2520W        W20724  16.336   2.113  13.048  0.3333 -0.4428 -0.0165
 2521W        W20725  16.684   3.180  12.108 -0.1138  0.0855  0.2198
 2522W        W20726   2.894   8.159  12.155 -0.0574 -0.2698  0.1660
 2523W        W20727  11.290   2.825   4.852  0.0583 -0.1885  0.2036
 2524W        W20728  13.223   4.161   0.901  0.1822  0.3461 -0.1862
 2525W        W20729  15.934   4.625  14.316  0.0921  0.0108  0.1579
 2526W        W20730   1.664   0.089  13.676 -0.1418  0.0737 -0.3127
 2527W        W20731  18.209   2.243   2.570  0.0778 -0.3006  0.1310
 2528W        W20732  15.271   7.443   0.953  0.1231 -0.3235 -0.1136
 2529W        W20733  13.676   2.488  14.437  0.1033 -0.1407  0.4261
 2530W        W20734  17.425  13.706   1.147  0.1874 -0.1166 -0.0840
 2531W        W20735   7.680  12.647  13.240 -0.3114 -0.0997 -0.1310
 2532W        W20736  12.602  12.846   1.793 -0.0516 -0.0278  0.3745
 2533W        W20737  10.430   9.038  12.165  0.2816 -0.1437  0.3245
 2534W        W20738  17.691   9.886  14.034 -0.1018 -0.0164  0.1041
 2535W        W20739  13.989  14.399  13.141  0.0183  0.1796  0.1493
 2536W        W20740  13.428   1.609   2.711  0.4330  0.0785  0.2342
 2537W        W20741   1.569   7.494  12.746  0.1769  0.0568  0.4426
 2538W        W20742  17.085   9.062   3.050  0.1201  0.1455  0.2818
 2539W        W20743  17.935   6.945   2.993 -0.0426  0.0933 -0.0212
 2540W        W20744  17.967  12.252   0.272 -0.1341 -0.2573 -0.0263
 2541W        W20745  14.358  17.289   3.527 -0.0927  0.1546  0.1578
 2542W        W20746   6.290  16.363   3.496 -0.0982 -0.1284 -0.2338
 2543W        W20747  10.414   3.203   4.800  0.0911 -0.2410  0.2330
 2544W        W20748   3.664  11.150  12.360 -0.1729 -0.1149 -0.0525
 2545W        W20749  16.850  16.990   0.632 -0.0248 -0.0261 -0.0642
 2546W        W20750   6.219  17.843   2.995 -0.3779 -0.1346 -0.0766
 2547W        W20751  18.213   6.334   5.828  0.0762 -0.1346 -0.1140
 2548W        W20752  15.394   0.152  14.057 -0.3339  0.2834  0.1772
 2549W        W20753   6.102   8.451  13.163  0.0544 -0.3391 -0.0345
 2550W        W20754  11.844  17.154   0.043 -0.0053 -0.1264  0.1307
 2551W        W20755  14.168   6.944  13.721  0.1307  0.1115  0.0139
 2552W        W20756   6.399   0.599   2.109  0.1888  0.0427  0.0809
 2553W        W20757  15.131  13.277  15.219  0.0236  0.1582  0.0180
 2554W        W20758   2.437   0.908  13.277  0.0413 -0.1850 -0.5411
 2555W        W20759   1.722   9.979   2.202  0.0601 -0.1537  0.0263
 2556W        W20760   9.703  10.483  14.758 -0.1375  0.1816  0.0005
 2557W        W20761   9.111  14.686  14.537  0.1103  0.0627 -0.0292
 2558W        W20762   7.141  18.228   0.615  0.1240  0.1134  0.1971
 2559W        W20763   3.882   6.300  11.025 -0.0411  0.1480 -0.1741
 2560W        W20764   2.601   2.813   3.643  0.1768 -0.1314  0.0165
 2561W        W20765  12.668   4.643   1.606 -0.0088 -0.1529 -0.0142
 2562W        W20766  11.103  14.108  14.018  0.0313 -0.1242 -0.2658
 2563W        W20767   7.340   0.727   3.833 -0.0621  0.3129  0.3729
 2564W        W20768   2.840   5.201  13.155  0.0176 -0.2860  0.0399
 2565W        W20769  10.060   2.460  10.060  0.0019  0.1368 -0.1198
 2566W        W20770  17.215   0.462  10.560  0.1225  0.0582  0.0450
 2567W        W20771   1.564  17.393   2.121  0.2231 -0.0356  0.2329
 2568W        W20772   1.067   6.141   3.992 -0.1214 -0.1617  0.2877
 2569W        W20773  14.453  15.254   1.520  0.2655  0.0021 -0.2394
 2570W        W20774  16.129  14.224   4.823  0.0813 -0.0341  0.1346
 2571W        W20775  11.091  15.897   2.236  0.0114  0.2599 -0.1511
 2572W        W20776   7.406  14.772   0.273  0.0072 -0.1980 -0.2285
 2573W        W20777   0.894   3.333   4.360 -0.0606  0.0003 -0.4263
 2574W        W20778  14.050  17.078   1.141 -0.0710  0.0904 -0.1651
 2575W        W20779  11.249   6.305  14.065 -0.0575 -0.1039 -0.0952
 2576W        W20780  18.049  12.958  14.423  0.3567  0.0346  0.1157
 2577W        W20781   1.272   7.714  15.438  0.0786 -0.2084 -0.1074
 2578W        W20782   7.963   7.961  13.625  0.2094  0.0228 -0.2957
 2579W        W20783  15.613   7.538  11.748 -0.0260 -0.0882  0.0802
 2580W        W20784  13.555   1.497   3.340 -0.1571  0.0161 -0.1018
 2581W        W20785   7.355  10.955  11.523  0.3183 -0.0493 -0.0088
 2582W        W20786   4.643  13.347   1.529 -0.1084  0.2751  0.3066
 2583W        W20787  14.842  14.818   0.192  0.0199 -0.0739  0.0140
 2584W        W20788   2.551   5.667  12.209  0.1601  0.2115  0.0774
 2585W        W20789   6.516   1.113  11.025 -0.0736 -0.2950  0.1581
 2586W        W20790   3.326  17.812   2.850 -0.0700 -0.2127  0.2410
 2587W        W20791   0.447  16.678   2.803  0.0426  0.0268 -0.0629
 2588W        W20792   5.364   6.590   2.925 -0.1392 -0.1514 -0.1857
 2589W        W20793   0.319   4.261  15.363 -0.1330 -0.0159 -0.0559
 2590W        W20794  15.390  14.963  13.304  0.1185 -0.1033 -0.0374
 2591W        W20795   9.331   4.194   3.946  0.0538 -0.2098  0.0619
 2592W        W20796  12.614  17.936  14.961 -0.1662 -0.1712  0.1664
 2593W        W20797  11.455  16.560   4.212  0.1945 -0.1901  0.3029
 2594W        W20798  11.680   5.149   0.086 -0.1471  0.2745  0.0889
 2595W        W20799  10.490   6.534   5.045  0.1185 -0.1595  0.1265
 2596W        W20800   6.906  12.317   3.345 -0.0864  0.0227  0.1377
 2597W        W20801  15.828  11.409   4.894  0.2028  0.2515  0.2180
 2598W        W20802   6.370   5.860  12.563  0.0116 -0.0962  0.2238
 2599W        W20803   9.169   5.406  10.763  0.0427  0.0413 -0.1921
 2600W        W20804   8.347   9.977   2.782  0.0633 -0.2371  0.4116
 2601W        W20805   5.917   8.055  12.320  0.0146 -0.0697  0.0005
 2602W        W20806  13.434  11.949  11.356  0.0180  0.1984 -0.1269
 2603W        W20807  13.062   3.617   2.463  0.0297 -0.0324  0.0466
 2604W        W20808   4.914  11.681   1.140 -0.0798  0.1549 -0.2157
 2605W        W20809  16.116   3.410   4.364  0.0952 -0.0684  0.2725
 2606W        W20810  12.344  14.042   3.866 -0.1698 -0.0443  0.0137
 2607W        W20811   9.825  11.001  12.677 -0.1048 -0.0313 -0.1600
 2608W        W20812   7.037   4.337  12.277 -0.0161  0.1409  0.1181
 2609W        W20813  14.663  11.933  12.947  0.1009 -0.0435  0.1146
 2610W        W20814   5.193  17.665   4.326 -0.1697 -0.2319  0.1156
 2611W        W20815   3.773   9.932   2.714 -0.2590  0.3591  0.0464
 2612W        W20816  14.137   7.901  12.698 -0.1256 -0.1892 -0.1301
 2613W        W20817   4.069   7.908  14.800  0.3115  0.1220  0.0794
 2614W        W20818  12.249   5.988  13.760  0.2577  0.0374 -0.0468
 2615W        W20819  16.299  13.357   3.861  0.2163 -0.0459 -0.2522
 2616W        W20820   7.176  17.634  15.396  0.3416 -0.0582  0.0316
 2617W        W20821   5.170  17.395   3.546 -0.0601  0.4314  0.2252
 2618W        W20822  10.436  10.783   4.864 -0.0298 -0.0577 -0.1201
 2619W        W20823  13.282   8.400   3.931  0.1488 -0.3480 -0.1726
 2620W        W20824  14.122   3.213   3.365 -0.0878  0.0079 -0.1477
 2621W        W20825   3.126   6.194   2.966 -0.2349  0.1468  0.1269
 2622W        W20826   5.672   2.151  15.172 -0.0725 -0.1849 -0.5021
 2623W        W20827  11.500  11.846  14.841 -0.1237 -0.0655  0.0664
 2624W        W20828   2.168  18.311  14.360  0.1577 -0.0573 -0.0771
 2625W        W20829   5.029  17.861  11.699  0.3202  0.2269  0.1399
 2626W        W20830   9.726   3.707  11.180 -0.2883 -0.2875 -0.1343
 2627W        W20831   9.444   0.532  11.999  0.3447 -0.2437 -0.0725
 2628W        W20832   7.638  18.144   0.442 -0.1009  0.2347 -0.0382
 2629W        W20833   3.484   1.507   3.797 -0.2211  0.0866 -0.1043
 2630W        W20834   4.772   0.166  11.902 -0.0624 -0.0686  0.1153
 2631W        W20835   3.400   5.829   0.083 -0.0649 -0.2002 -0.1762
 2632W        W20836   7.617   8.136  12.981  0.2854  0.5050 -0.0018
 2633W        W20837   7.738   7.090   4.913 -0.0823  0.0655  0.1256
 2634W        W20838   4.795   7.345  10.935  0.2047 -0.1287 -0.0709
 2635W        W20839   5.405   5.301  14.908 -0.0602  0.0214  0.1002
 2636W        W20840   5.666  13.445   1.597 -0.1517 -0.1549  0.2139
 2637W        W20841  15.927   6.599  11.985 -0.0243 -0.1229 -0.1516
 2638W        W20842  16.228  16.866   0.398 -0.1922 -0.1144 -0.1305
 2639W        W20843  15.489  16.235   0.315  0.2068  0.0470 -0.0900
 2640W        W20844   5.395  15.560  15.080 -0.1930 -0.1712 -0.1949
 2641W        W20845   5.786   6.448   3.341  0.1421 -0.1282  0.0480
 2642W        W20846   0.830   9.760  15.559 -0.1395  0.1044  0.0445
 2643W        W20847  12.439   7.562   2.441  0.2445  0.0465  0.0976
 2644W        W20848  14.550   4.081  11.185  0.0378  0.1630 -0.0173
 2645W        W20849  14.795  10.648  10.949 -0.3266  0.2303 -0.1053
 2646W        W20850  10.584   7.771  15.380  0.2474 -0.3025 -0.2286
 2647W        W20851   6.379  14.701   1.966  0.1015 -0.1068 -0.0848
 2648W        W20852   0.702   8.478  13.077  0.0580 -0.0680 -0.2377
 2649W        W20853  12.494   6.475  13.701  0.1640 -0.2577 -0.1107
 2650W        W20854   4.504  16.387   3.121 -0.0611 -0.0773 -0.0171
 2651W        W20855   3.656  10.003   2.142 -0.0848 -0.2105 -0.2252
 2652W        W20856   2.029   0.724   0.490  0.0121  0.0414 -0.2163
 2653W        W20857  10.686   2.436  12.628  0.0847 -0.1137 -0.0725
 2654W        W20858   5.810   4.581  12.028 -0.4119 -0.2068  0.0588
 2655W        W20859   2.890  11.188   4.292 -0.1746 -0.3434 -0.1042
 2656W        W20860  15.471   4.748  10.090  0.0513  0.1741  0.1770
 2657W        W20861  11.914  10.969   0.852 -0.1482  0.1463 -0.0090
 2658W        W20862   5.348  16.531   4.104  0.0418 -0.3107  0.3474
 2659W        W20863  13.467  14.768   1.088 -0.1187  0.0868 -0.2070
 2660W        W20864   6.790   7.226  14.886 -0.2113  0.2003 -0.2311
 2661W        W20865   6.373   4.979  12.070 -0.0654 -0.3675 -0.1260
 2662W        W20866  15.962  16.318   1.036  0.1563 -0.3117 -0.4748
 2663W        W20867  17.691  15.148   1.483  0.2561 -0.2417 -0.2821
 2664W        W20868  12.262   4.215   0.995  0.2672 -0.0049 -0.0970
 2665W        W20869  11.229   6.554  11.187  0.0263 -0.1506 -0.2996
 2666W        W20870  14.582  10.978   4.856  0.1404  0.0522 -0.0894
 2667W        W20871  17.709   5.709  12.006  0.0113  0.1192 -0.3420
 2668W        W20872  17.167   5.359   3.745  0.2245  0.1806  0.0533
 2669W        W20873  18.340   5.848   0.429 -0.0554  0.1747 -0.1131
 2670W        W20874   0.415   7.682  12.058 -0.0704 -0.1022 -0.3375
 2671W        W20875  13.203  17.849  15.379 -0.0531  0.0363  0.0299
 2672W        W20876   0.496   6.604   0.677  0.3521 -0.1397 -0.0432
 2673W        W20877   5.379   4.966  14.098  0.0900  0.3349 -0.2638
 2674W        W20878  10.573   8.501   1.908  0.0363  0.3484  0.0201
 2675W        W20879  11.829  17.007  13.844  0.0901  0.3571 -0.2111
 2676W        W20880  13.726  16.065  13.375  0.0824 -0.1595 -0.1817
 2677W        W20881  11.520   1.029  10.983 -0.0049  0.1128  0.0076
 2678W        W20882   6.939   0.778   2.169  0.2022  0.0494 -0.2516
 2679W        W20883   4.783   1.500   1.125 -0.0999 -0.0392  0.1499
 2680W        W20884  14.682   5.972  14.049 -0.5267  0.2288  0.1805
 2681W        W20885  15.525   9.358  14.426  0.0798  0.0183  0.1479
 2682W        W20886   7.599   4.945  14.340  0.0639 -0.1931 -0.1681
 2683W        W20887   3.897   0.791  12.291  0.0218  0.2535  0.0522
 2684W        W20888  15.888  12.215  14.152 -0.3152 -0.0872 -0.4401
 2685W        W20889  10.652   3.250  13.546 -0.2411 -0.0376 -0.1708
 2686W        W20890   4.342   6.799  14.345  0.1664 -0.2661 -0.1094
 2687W        W20891  14.374   1.598  12.453 -0.5895  0.1945 -0.0307
 2688W        W20892   7.580  11.839   1.686 -0.0890  0.0038  0.0063
 2689W        W20893  17.345   6.283   2.030  0.0388 -0.1955 -0.0083
 2690W        W20894  12.807  10.443  11.607 -0.0456  0.0801  0.1259
 2691W        W20895   7.290   6.803   0.138 -0.4435 -0.2164  0.1198
 2692W        W20896  10.588   8.920   0.544  0.0155  0.2050 -0.0697
 2693W        W20897   4.919   0.192   1.881 -0.0160  0.1274  0.0376
 2694W        W20898   9.154   9.753  11.336 -0.1627 -0.3346 -0.0351
 2695W        W20899   5.484  18.151   2.019  0.0934  0.1716  0.1084
 2696W        W20900  14.513   2.722   0.924 -0.0043 -0.0224 -0.1118
 2697W        W20901   5.584   0.072  11.522  0.0120 -0.1031 -0.0767
 2698W        W20902   7.606   4.658  15.062  0.2678 -0.2035  0.1484
 2699W        W20903  15.917  14.118  11.775  0.0007  0.2090  0.0844
 2700W        W20904   1.481  10.757  11.858 -0.0274  0.2035  0.0934
 2701W        W20905  10.052  10.440  13.352 -0.0823 -0.2131 -0.1819
 2702W        W20906  13.119   3.407  14.400  0.0761 -0.0137 -0.0559
 2703W        W20907   7.526  12.296   2.388  0.2826 -0.1425  0.1781
 2704W        W20908  10.111   3.526  15.331  0.1973 -0.0557 -0.2822
 2705W        W20909   4.415   0.446   1.892  0.0856  0.0921 -0.3677
 2706W        W20910  18.312  13.792  15.666 -0.0348  0.1722  0.0087
 2707W        W20911   3.695  11.202   3.893  0.0890  0.4030 -0.1659
 2708W        W20912   5.189   2.427   0.226  0.0237 -0.0491  0.0790
 2709W        W20913  16.674  18.172  12.824 -0.1912  0.0568  0.0924
 2710W        W20914   6.932  13.841  12.977  0.1024 -0.1678 -0.2815
 2711W        W20915   9.515   8.711  14.279 -0.0743 -0.0358 -0.2003
 2712W        W20916   2.889  10.389  14.308 -0.3570 -0.0910 -0.1322
 2713W        W20917   3.979   2.978   4.287  0.1810 -0.2865  0.2697
 2714W        W20918   8.434   2.478   1.629  0.0165  0.1065  0.2643
 2715W        W20919   2.047  12.942   4.933 -0.1518 -0.1974  0.0939
 2716W        W20920   3.087  10.440   3.592  0.2056  0.2618  0.1892
 2717W        W20921   0.487  15.489  12.942 -0.0223  0.1122  0.0377
 2718W        W20922   2.537  14.418   3.993  0.4062  0.4258  0.0232
 2719W        W20923   6.014  10.288   4.012  0.2112 -0.0907 -0.0920
 2720W        W20924   0.878   6.939   0.636  0.2065 -0.1005 -0.1035
 2721W        W20925  14.253  18.073   2.788  0.1045  0.0549 -0.0754
 2722W        W20926   1.115   3.335   0.833 -0.3565 -0.0610  0.2561
 2723W        W20927  14.310   5.461  11.601 -0.2311 -0.0307  0.2004
 2724W        W20928  16.015   0.082  14.899  0.0242 -0.0966 -0.1209
 2725W        W20929  17.805   0.728  11.514  0.2005  0.1581  0.2140
 2726W        W20930  15.032   4.164   1.476  0.0620 -0.1344 -0.0068
 2727W        W20931  17.618   3.149   3.947 -0.1305  0.1919 -0.2018
 2728W        W20932  16.754   5.768  13.047 -0.1224  0.0640  0.0933
 2729W        W20933  14.972   4.028  14.874  0.1026  0.0839  0.0836
 2730W        W20934   1.855   5.195   2.290  0.0587 -0.2547  0.0326
 2731W        W20935  16.081  14.233  11.289  0.0125  0.1480 -0.0487
 2732W        W20936  15.045  13.048   2.675 -0.2341 -0.0174 -0.1915
 2733W        W20937  17.583  14.788   4.409 -0.0905  0.3158 -0.2779
 2734W        W20938  14.574   4.330  13.844  0.1542 -0.0300 -0.1648
 2735W        W20939   5.289  15.541   3.155  0.2479 -0.0109  0.0740
 2736W        W20940  15.312   1.209   4.007  0.2903  0.1328  0.0112
 2737W        W20941  11.471   7.007  12.539 -0.2606 -0.1075 -0.1859
 2738W        W20942  18.290  14.997  11.283 -0.3896  0.1151 -0.1070
 2739W        W20943  15.370  14.602   2.840  0.2837  0.0881 -0.0802
 2740W        W20944   0.672  14.953  12.781 -0.3207  0.1744 -0.1909
 2741W        W20945   1.664  15.665  10.709  0.2183 -0.1332 -0.1926
 2742W        W20946  18.324   6.359  13.479 -0.3189 -0.1836 -0.0925
 2743W        W20947   6.848  14.436   4.209  0.0346 -0.1452  0.0283
 2744W        W20948   3.520  15.513   0.633  0.0165  0.0252  0.1209
 2745W        W20949  16.869   1.181   3.644  0.1058  0.0342 -0.2331
 2746W        W20950   4.259  10.646   3.881  0.3567  0.0145  0.1595
 2747W        W20951  12.993   9.111   3.932 -0.0373 -0.1866 -0.1011
 2748W        W20952   2.516   3.184   0.666 -0.1040 -0.0365  0.1238
 2749W        W20953  15.465  17.502  11.320  0.0951 -0.0251  0.0762
 2750W        W20954  10.815  13.945  14.394  0.1321  0.1052  0.1213
 2751W        W20955   9.867  14.199   4.969  0.0909 -0.2714  0.0768
 2752W        W20956  10.965  14.888  15.490 -0.1101 -0.1612 -0.1363
 2753W        W20957   9.242  15.335  14.523 -0.0922 -0.0632 -0.0047
 2754W        W20958  18.357  13.060   0.419  0.3394  0.0280 -0.0257
 2755W        W20959   8.068   3.848  15.168 -0.2251  0.2538  0.0262
 2756W        W20960  16.950   4.960   3.976 -0.1274 -0.1372  0.0681
 2757W        W20961  14.694   8.687  14.441  0.2510 -0.3101  0.1891
 2758W        W20962  14.072   3.615   1.152  0.1111  0.0267 -0.0227
 2759W        W20963   9.905   7.177   2.746 -0.3323  0.0189  0.0301
 2760W        W20964   1.632   2.714   1.820  0.4861  0.0428 -0.3231
 2761W        W20965  10.577   5.300  11.562 -0.1609 -0.2217 -0.0318
 2762W        W20966  17.585   3.166   2.067  0.0827 -0.1838  0.0016
 2763W        W20967   5.088  11.469  15.445 -0.1831 -0.1567  0.1390
 2764W        W20968   0.717   9.776   4.348  0.1031  0.1261  0.0519
 2765W        W20969   6.982   9.513  14.444  0.1250  0.2627 -0.6387
 2766W        W20970  16.548   2.069   1.141  0.1161 -0.0496 -0.2717
 2767W        W20971  15.324   0.709  11.758  0.4456  0.1817  0.1348
 2768W        W20972   6.369   5.585   0.025  0.3365  0.0309 -0.2262
 2769W        W20973   9.375   6.975   5.471 -0.0926  0.1333 -0.0891
 2770W        W20974   7.974  12.098  15.111 -0.0088 -0.1416 -0.0382
 2771W        W20975  18.349   9.892  13.274 -0.2695 -0.0892 -0.1337
 2772W        W20976   3.183  15.658  14.433 -0.4351  0.0935  0.2175
 2773W        W20977   9.873  18.036   2.595  0.1538  0.2673  0.1295
 2774W        W20978  16.876   0.993   1.234 -0.1423  0.0404 -0.1711
 2775W        W20979  18.158  16.487  12.091  0.0462  0.0552 -0.1865
 2776W        W20980   8.044  10.312  12.137 -0.1356  0.1335 -0.0804
 2777W        W20981  11.633   4.843  15.019  0.1928  0.0382  0.1607
 2778W        W20982   6.729  16.174   2.006 -0.0962 -0.1463 -0.1329
 2779W        W20983   7.898   5.841   2.924  0.1780  0.0724  0.1808
 2780W        W20984  10.727  14.209  15.320  0.3176 -0.0908 -0.0339
 2781W        W20985  13.272   6.091   3.009  0.1049  0.0735  0.0625
 2782W        W20986   9.128   8.111   3.179  0.4394  0.1355 -0.1983
 2783W        W20987   9.993   2.119   0.331 -0.1778 -0.1633 -0.1496
 2784W        W20988  12.909  13.426  11.156  0.0566  0.0836 -0.1978
 2785W        W20989  16.799  13.555   0.049  0.3740  0.1407  0.0707
 2786W        W20990  17.345  14.165   3.503 -0.1348 -0.2779  0.1107
 2787W        W20991  16.497  14.348   0.179  0.1087 -0.0621 -0.1063
 2788W        W20992  17.362   7.628   2.011  0.0001  0.3507  0.0952
 2789W        W20993   9.473  15.974   3.457 -0.1285 -0.1250 -0.0151
 2790W        W20994  17.274  14.007  14.922 -0.0713  0.0234 -0.0270
 2791W        W20995   1.043  10.376  13.889 -0.3731 -0.0395  0.1026
 2792W        W20996  17.661  11.111   2.913  0.1904 -0.3438  0.1482
 2793W        W20997  12.566   2.780  12.340  0.0057 -0.0005  0.4283
 2794W        W20998  15.990  10.247  11.525 -0.0529 -0.1809  0.2896
 2795W        W20999  13.571   9.371   2.308  0.1625 -0.0298 -0.0418
 2796W        W21000  10.333   0.091   1.002 -0.2337  0.0005  0.1720
 2797W        W21001  13.713   3.780  11.553  0.2040 -0.1367  0.1495
 2798W        W21002  14.214   5.291   0.498 -0.0911  0.5377  0.0269
 2799W        W21003   8.620   8.301   1.358 -0.2966  0.0759  0.1506
 2800W        W21004   2.810   0.431   0.845  0.0384 -0.2372  0.1687
 2801W        W21005  18.108  10.950  12.144 -0.2773 -0.2142 -0.1930
 2802W        W21006   3.778  11.276   2.177  0.2745  0.0001 -0.0077
 2803W        W21007   7.961   9.412   0.720 -0.4377 -0.2282 -0.0520
 2804W        W21008   8.311  10.317   2.294 -0.2828  0.2156  0.0331
 2805W        W21009  10.604  16.933  11.611  0.0721 -0.2189 -0.1224
 2806W        W21010  18.359   7.697   4.054  0.3248 -0.0997 -0.0843
 2807W        W21011   3.706  10.314   1.193 -0.0332  0.1141  0.0578
 2808W        W21012  12.363   3.254  11.534  0.1287  0.1015 -0.0865
 2809W        W21013   9.127   8.975   2.480 -0.2713  0.3538 -0.1251
 2810W        W21014   9.680   5.043   2.532 -0.1181  0.0200  0.1040
 2811W        W21015  10.074  14.938  12.882 -0.2359 -0.1307  0.0086
 2812W        W21016   5.909  15.615   3.888 -0.0614 -0.0159 -0.3342
 2813W        W21017  18.145   4.099   0.811  0.2392  0.0069 -0.0811
 2814W        W21018  15.760   3.758  14.234  0.0357  0.2796  0.1552
 2815W        W21019   1.271   1.266   2.804  0.0655  0.3983  0.2419
 2816W        W21020   5.522  12.700  13.697 -0.0757  0.3170  0.1846
 2817W        W21021  16.581  17.739   0.295 -0.0593  0.3291 -0.2902
 2818W        W21022   6.775   2.428  14.301 -0.2445  0.1718  0.2007
 2819W        W21023   5.477   9.015   1.270  0.1340 -0.3274 -0.0143
 2820W        W21024   5.135   3.438   1.855  0.0546  0.0288  0.2294
 2821W        W21025   2.785  14.690   0.443 -0.3012  0.0362  0.0618
 2822W        W21026   5.858  16.548   2.907 -0.2654 -0.1983 -0.1055
 2823W        W21027   1.407   9.254   5.330 -0.0535 -0.4183 -0.1143
 2824W        W21028   8.957   2.729  12.726 -0.0452  0.2523 -0.0146
 2825W        W21029  15.687   7.052  14.928  0.1488 -0.0055  0.2341
 2826W        W21030   3.335  14.603   2.508  0.0935  0.1720 -0.1079
 2827W        W21031   7.826   7.007   2.529 -0.0447 -0.1630 -0.2546
 2828W        W21032   3.110  17.781   4.013 -0.0791 -0.1046 -0.0611
 2829W        W21033   8.810   2.105   4.793 -0.0788 -0.0797 -0.0313
 2830W        W21034  17.725  14.883  14.083  0.1272  0.2237  0.1971
 2831W        W21035  12.521  12.245  12.112  0.0214 -0.2116  0.0834
 2832W        W21036  12.158  16.148  12.357  0.0241  0.2330  0.0899
 2833W        W21037   1.473  14.594   4.774  0.0348  0.1003  0.0546
 2834W        W21038  13.361   3.036  13.786 -0.2513 -0.3471  0.2953
 2835W        W21039   7.354  16.567  14.229  0.1617 -0.0195 -0.0179
 2836W        W21040   2.450   0.884  12.509  0.2711  0.0631  0.0359
 2837W        W21041   5.725  10.140  12.869 -0.2075 -0.3222  0.1728
 2838W        W21042   6.736  15.656   1.995  0.0259  0.1653 -0.2963
 2839W        W21043  17.039  12.569   1.874  0.0953  0.0654 -0.2728
 2840W        W21044   4.266  15.975   3.148  0.1619 -0.0142  0.0237
 2841W        W21045   1.304   8.802  11.283  0.4301 -0.0678 -0.3098
 2842W        W21046   3.819   9.467   4.390 -0.0030 -0.1314 -0.2076
 2843W        W21047  16.754   1.386  15.060  0.2077  0.1620  0.1374
 2844W        W21048  18.010   5.108   0.768 -0.0944 -0.1538  0.1830
 2845W        W21049  10.051   9.763   1.546 -0.0456  0.1329  0.0871
 2846W        W21050   5.916   8.160  11.649 -0.0725  0.0905 -0.1712
 2847W        W21051   2.287  12.366   0.069  0.0933 -0.2003 -0.1249
 2848W        W21052   7.089   5.738   1.533 -0.0797 -0.1788 -0.1513
 2849W        W21053  11.896  11.984  12.829 -0.2350  0.0383  0.0148
 2850W        W21054  10.678  12.267   3.401  0.2810  0.0875 -0.0826
 2851W        W21055  10.770   2.620   1.776 -0.1668  0.1093  0.1043
 2852W        W21056   9.123   1.852  10.106  0.0509 -0.2697 -0.1891
 2853W        W21057  10.522   9.768   3.954 -0.0648  0.0856 -0.1071
 2854W        W21058   8.973   0.488  13.976 -0.0078 -0.0085 -0.3241
 2855W        W21059   4.958  13.136   4.245  0.2821  0.1214  0.1437
 2856W        W21060   3.370   5.585  14.474 -0.4066  0.3072 -0.0047
 2857W        W21061  10.358  16.479  14.870  0.0279 -0.0286  0.2224
 2858W        W21062   6.627   9.917  11.169 -0.1053 -0.0722 -0.1716
 2859W        W21063  12.103  13.111  14.411 -0.2952  0.0732 -0.0565
 2860W        W21064  12.769   6.211  13.112  0.3371 -0.0722  0.1666
 2861W        W21065   2.466   8.006   2.630  0.1856  0.1198 -0.1761
 2862W        W21066   1.580   9.742  11.688  0.0023 -0.0496  0.3157
 2863W        W21067   3.521   8.601   3.062  0.4421  0.0614 -0.1009
 2864W        W21068   8.250   8.558  14.068 -0.0023 -0.0471 -0.2778
 2865W        W21069   4.417  17.720  13.402  0.1781 -0.2602 -0.0882
 2866W        W21070   5.236   2.032  11.539 -0.0112  0.3644 -0.2229
 2867W        W21071   0.197  16.182   1.894 -0.0502 -0.0002 -0.1307
 2868W        W21072  13.883   4.606   3.431  0.4031  0.2741  0.1132
 2869W        W21073  14.857  13.853  12.503  0.1908 -0.1388  0.2752
 2870W        W21074  14.705   7.173   0.457 -0.2604 -0.0605 -0.0752
 2871W        W21075   4.893  10.634   1.811  0.3349  0.3147 -0.0429
 2872W        W21076  17.895   8.263   3.020  0.0465 -0.1120 -0.1000
 2873W        W21077   8.395   3.564   5.506  0.0777  0.0214 -0.1927
 2874W        W21078  14.595   4.874   3.036  0.1557  0.1378 -0.2165
 2875W        W21079   9.086  16.729   4.862 -0.0059  0.0803  0.0822
 2876W        W21080   3.831   2.263  13.142 -0.0079 -0.0243 -0.0043
 2877W        W21081  10.773   0.748  15.547 -0.0715  0.0305 -0.0965
 2878W        W21082  10.298  10.480  12.704  0.0557 -0.1151  0.0495
 2879W        W21083  11.617   5.109  13.783  0.2167 -0.1145 -0.0103
 2880W        W21084   9.992   7.343  12.145  0.0980  0.1831 -0.2189
 2881W        W21085  13.802   8.665  14.368  0.0836 -0.1328 -0.1971
 2882W        W21086  14.811   7.547   4.581 -0.2676  0.2318 -0.0081
 2883W        W21087  18.244   5.153   2.543  0.3874  0.0826 -0.1146
 2884W        W21088   9.982  16.530   4.552  0.0983 -0.0132 -0.3774
 2885W        W21089   6.079   6.604   0.240  0.0002 -0.0988 -0.1897
 2886W        W21090   7.940   2.611   3.671 -0.0556  0.1769  0.3163
 2887W        W21091  11.877  15.973   1.406  0.1091  0.2158 -0.0519
 2888W        W21092   0.145   2.568  11.901  0.1355  0.2613  0.3758
 2889W        W21093   1.741  14.706  11.798  0.0749  0.0090 -0.2138
 2890W        W21094  12.529  11.904   3.710  0.1423  0.1364 -0.0925
 2891W        W21095   6.312   5.705   1.869  0.1448 -0.2371 -0.1468
 2892W        W21096   3.684   0.098   3.237  0.1859  0.0897 -0.2461
 2893W        W21097   7.056  15.369  10.190  0.4186 -0.1155  0.0046
 2894W        W21098  13.848   9.323   0.396 -0.1342  0.0640  0.1039
 2895W        W21099   8.075   5.006  10.024  0.0020  0.2240  0.0124
 2896W        W21100  15.623   4.780   2.039 -0.0006  0.1361 -0.1386
 2897W        W21101  11.516  14.842   1.766  0.1395  0.2089  0.2817
 2898W        W21102   3.212   3.051   1.906 -0.1401 -0.0912 -0.0047
 2899W        W21103   7.883   3.007   0.740 -0.1068  0.1480 -0.2982
 2900W        W21104  12.326   5.545   5.703 -0.1666 -0.1216  0.2358
 2901W        W21105   5.066   0.860   1.581 -0.2704  0.0464 -0.3325
 2902W        W21106  15.744   9.520   5.185 -0.3869  0.3251 -0.1402
 2903W        W21107   1.647  12.805  15.106  0.0273 -0.0861  0.0497
 2904W        W21108   0.084   9.849  12.228  0.1255 -0.0987  0.0829
 2905W        W21109   6.984   2.071  13.521  0.1235  0.3415 -0.1001
 2906W        W21110   9.691  11.504   0.707 -0.0719 -0.0192  0.3096
 2907W        W21111  18.362  17.077  14.347  0.1096  0.0457 -0.0885
 2908W        W21112  14.532  18.247  12.849 -0.1244 -0.3513  0.2415
 2909W        W21113   1.405  12.463  11.466 -0.1082 -0.0529  0.2398
 2910W        W21114   4.158   8.942  11.159  0.1906  0.1402  0.0662
 2911W        W21115   9.799   5.471  13.740  0.1318  0.3961 -0.2242
 2912W        W21116   9.575  15.738   4.376 -0.1348  0.3633 -0.1760
 2913W        W21117   1.892   4.218   3.605 -0.0797 -0.4029  0.3822
 2914W        W21118   2.300   5.678   5.542  0.1016 -0.1679  0.0821
 2915W        W21119  17.794   4.544  13.889 -0.0757 -0.2137 -0.1105
 2916W        W21120   7.871  16.383   3.843 -0.2640 -0.0014 -0.2116
 2917W        W21121  12.575  10.229   2.061  0.2152  0.0234 -0.2491
 2918W        W21122  15.555   1.653  11.799 -0.0507 -0.0881  0.0962
 2919W        W21123  14.140  16.448  10.481 -0.0338 -0.0764 -0.1309
 2920W        W21124  11.578   7.173   3.294 -0.2374  0.2010 -0.0619
 2921W        W21125   9.792   2.969  12.757 -0.0805 -0.1029 -0.0658
 2922W        W21126   8.357  10.341   3.850  0.2743 -0.0641 -0.2347
 2923W        W21127   4.590   6.792  15.125  0.3240 -0.0484 -0.0179
 2924W        W21128   5.229   6.251   2.598 -0.1686  0.4162  0.0143
 2925W        W21129   1.834  16.730   1.454 -0.1822 -0.0474 -0.2118
 2926W        W21130  18.167   0.825   3.207 -0.0089 -0.2385 -0.3270
 2927W        W21131   4.272   7.727  15.255  0.1245  0.1017  0.3282
 2928W        W21132  13.226  11.499  13.535  0.2150 -0.0250  0.1880
 2929W        W21133  12.226   1.400   4.015  0.1316  0.0500  0.1621
 2930W        W21134   0.723  16.913   2.156 -0.0080 -0.4589  0.0418
 2931W        W21135   7.766   1.234   1.123  0.2417 -0.0258 -0.0500
 2932W        W21136  12.250   7.833   1.043  0.2478  0.1237  0.1468
 2933W        W21137  16.903   0.574   4.241  0.0205 -0.0396  0.0728
 2934W        W21138   7.787   8.894  13.528 -0.2535 -0.3698  0.1223
 2935W        W21139  10.999   4.059   4.293  0.0820 -0.1638 -0.0693
 2936W        W21140   1.887  17.448  12.958  0.2665 -0.1740 -0.3327
 2937W        W21141   8.441  15.291  14.148  0.0702  0.1294 -0.6102
 2938W        W21142   3.400  14.648  12.009 -0.0172  0.0811  0.1421
 2939W        W21143  11.853   5.028  12.861  0.1840 -0.4347 -0.2461
 2940W        W21144   9.033  10.238  12.910 -0.0821  0.2584  0.2104
 2941W        W21145   4.712   1.942  15.549 -0.1647 -0.1550 -0.0645
 2942W        W21146  14.971   1.291   0.321  0.1053  0.0659  0.0147
 2943W        W21147  17.144   5.369   0.544 -0.0430 -0.0749  0.0634
 2944W        W21148   8.456   7.792   4.879  0.2402 -0.0025  0.1099
 2945W        W21149   9.817   4.153  11.407  0.2414  0.2482 -0.1307
 2946W        W21150   6.402  18.178   0.112 -0.0014 -0.1428  0.0655
 2947W        W21151   5.415   0.084   2.755 -0.2621 -0.0761  0.2655
 2948W        W21152  17.435   0.731  13.466 -0.6003 -0.1261 -0.2358
 2949W        W21153   2.245   1.490   4.288  0.1018  0.2033  0.1691
 2950W        W21154   4.070   2.196   0.496  0.0515 -0.1939  0.1456
 2951W        W21155   2.971   4.591  12.801  0.1251 -0.0367  0.0955
 2952W        W21156   1.725  11.429   3.425 -0.0377  0.0137 -0.0927
 2953W        W21157  13.775   8.483   2.053  0.3126 -0.0944 -0.2726
 2954W        W21158   9.488  11.193  15.513  0.3930 -0.0706 -0.1361
 2955W        W21159   0.046  15.379  14.976 -0.2867 -0.2412 -0.1016
 2956W        W21160  11.295   8.094   3.085  0.0379  0.0576 -0.0521
 2957W        W21161  15.712   4.773   2.851 -0.0681  0.0612  0.2413
 2958W        W21162  16.067   9.223   2.140  0.0157 -0.0045  0.0628
 2959W        W21163  13.870  11.451  12.033 -0.4152  0.0640 -0.2255
 2960W        W21164   4.204   5.278  11.676  0.1338  0.1630  0.2608
 2961W        W21165   2.257  13.035   3.334 -0.0874 -0.5606  0.0878
 2962W        W21166  17.209  17.254   3.264  0.2449 -0.2268 -0.0836
 2963W        W21167  11.559   2.192  14.551 -0.0817 -0.1632  0.0766
 2964W        W21168   4.066  14.992   2.077 -0.0981 -0.0700 -0.2218
 2965W        W21169  10.242   1.466   1.652 -0.2358  0.0956  0.2539
 2966W        W21170   8.222  17.052  10.443 -0.5464  0.1504 -0.0628
 2967W        W21171  10.396  14.633  12.562  0.3018  0.0904  0.0210
 2968W        W21172  16.572   1.373   4.233 -0.1830 -0.1958  0.0442
 2969W        W21173  11.990   1.392  12.437 -0.0787 -0.1105 -0.1724
 2970W        W21174  16.453  10.111   2.498 -0.0800 -0.0204 -0.0218
 2971W        W21175   2.652   7.836   0.794  0.1488  0.0937  0.2386
 2972W        W21176   7.845  17.869   0.918  0.1531 -0.0030 -0.0997
 2973W        W21177  12.450   2.464   1.622  0.4873 -0.1995 -0.1929
 2974W        W21178   5.261   4.889  15.270  0.0389 -0.4062 -0.1076
 2975W        W21179   2.307   5.261  11.308 -0.0990 -0.0789 -0.0676
 2976W        W21180  18.375   4.346   3.105  0.3981  0.1329  0.0350
 2977W        W21181  13.800   0.791   9.842  0.0042 -0.1219  0.0574
 2978W        W21182  10.249   6.539   4.058 -0.0053  0.0489  0.0332
 2979W        W21183  17.998   0.708   2.270 -0.0199  0.3458 -0.0323
 2980W        W21184  14.579  12.409  11.865  0.0126 -0.0215 -0.2292
 2981W        W21185  13.889  14.300  11.817 -0.2882 -0.2238 -0.4013
 2982W        W21186   1.145   0.619  13.136  0.0471 -0.0091 -0.2985
 2983W        W21187  11.710  16.993  11.182 -0.1189  0.1326 -0.2429
 2984W        W21188  11.736  10.401   4.914  0.0771 -0.1293  0.0405
 2985W        W21189  15.292  17.112   5.735  0.1018 -0.1768  0.0739
 2986W        W21190  13.605   4.536   0.750 -0.1556  0.2234  0.2413
 2987W        W21191  15.385   2.237  15.070  0.0005 -0.0094  0.2928
 2988W        W21192  10.243   4.704  13.591 -0.1526 -0.1212 -0.1045
 2989W        W21193  11.146   2.133   2.753 -0.1485 -0.2552  0.2908
 2990W        W21194   0.330   6.190  13.747 -0.0794 -0.0778  0.1305
 2991W        W21195   8.079  12.567  12.564 -0.1967  0.1853 -0.0030
 2992W        W21196   5.144  17.987   5.133  0.1470  0.0861 -0.2965
 2993W        W21197   9.997  11.457   1.175  0.2540  0.0498 -0.0083
 2994W        W21198   9.884  10.687   1.097  0.1819  0.1456  0.0180
 2995W        W21199  13.194  11.061  13.260 -0.1258 -0.1160 -0.0968
 2996W        W21200   0.845  11.674   2.411 -0.0804 -0.0827 -0.3329
 2997W        W21201  11.856  13.676  14.061  0.2307  0.1373  0.1149
 2998W        W21202   6.776  17.306   4.746  0.2405 -0.1959  0.1453
 2999W        W21203  15.090  12.375  11.865 -0.0445  0.1026 -0.0410
 3000W        W21204   0.847   7.810  10.837 -0.0417  0.1997  0.4535
 3001W        W21205   6.193  17.291  11.929  0.1429 -0.1866 -0.3262
 3002W        W21206   9.586   2.798  11.993  0.0495  0.0470 -0.0982
 3003W        W21207   7.598  17.786   2.379 -0.1306  0.1784 -0.2507
 3004W        W21208   4.663  10.373   3.921  0.0493 -0.0799 -0.2180
 3005W        W21209  14.245  16.090  11.984  0.2733  0.0851 -0.0181
 3006W        W21210  10.744   0.152  12.210  0.0444  0.0091  0.1506
 3007W        W21211   4.315   0.677   1.004 -0.1543  0.0629 -0.0193
 3008W        W21212   8.363   4.406   1.277  0.2732  0.2535  0.1653
 3009W        W21213  12.747  10.764  13.295  0.0736  0.3838 -0.2149
 3010W        W21214  17.560   8.134  10.939  0.1941  0.0335 -0.2838
 3011W        W21215   5.276   6.708  11.241 -0.0234 -0.1266 -0.0210
 3012W        W21216  16.456   6.534   2.093 -0.3163  0.3307 -0.2540
 3013W        W21217   3.309   5.390   2.680  0.3413 -0.1817 -0.0712
 3014W        W21218   7.838  15.945   2.110  0.1454 -0.1449  0.0170
 3015W        W21219  15.182  18.094  15.573  0.1325  0.1991 -0.1395
 3016W        W21220  18.338   5.825   4.471  0.2191 -0.1232  0.1448
 3017W        W21221   0.372   9.688   0.026 -0.4032 -0.2761  0.2254
 3018W        W21222  13.728   0.014   4.453 -0.2111  0.1652  0.1871
 3019W        W21223  16.554   2.100  12.539  0.0098  0.0624 -0.0796
 3020W        W21224  10.726   1.710  10.887  0.1139 -0.0469 -0.0620
 3021W        W21225  17.205   4.188   1.365  0.0279 -0.0223  0.1482
 3022W        W21226   9.336  15.459  11.943 -0.0515 -0.0653 -0.4228
 3023W        W21227   2.749  14.438   0.935 -0.2711 -0.0979 -0.2844
 3024W        W21228  15.035   5.779  13.002 -0.0736 -0.0927 -0.1454
 3025W        W21229   9.823  12.285   0.536 -0.2570 -0.0221 -0.2854
 3026W        W21230  10.080   4.009   3.846  0.1014 -0.4222 -0.1590
 3027W        W21231  14.004   3.763  14.372 -0.0602  0.2133  0.1959
 3028W        W21232  10.818  16.969   2.924 -0.3336  0.2068 -0.1955
 3029W        W21233   8.398  15.225  14.727  0.3327 -0.0350  0.2505
 3030W        W21234  14.878   3.183  15.209 -0.1161 -0.1372 -0.1263
 3031W        W21235  11.732  14.378  14.562 -0.0029 -0.3207  0.0328
 3032W        W21236   7.858  18.278  12.170  0.3022 -0.2349  0.0821
 3033W        W21237  13.487  16.085   3.751 -0.1765  0.0157 -0.3270
 3034W        W21238  17.077   2.453   0.789  0.0556  0.2437  0.0715
 3035W        W21239   9.706  18.184   3.135 -0.0974  0.1909  0.1966
 3036W        W21240  11.512  17.272   4.893  0.1298  0.1641 -0.0214
 3037W        W21241  14.874   3.083  12.530  0.3427  0.2440 -0.0611
 3038W        W21242  11.940   1.871   1.170 -0.1901  0.1304 -0.0738
 3039W        W21243   4.435   8.169   4.353  0.0865  0.0670 -0.0819
 3040W        W21244   1.227  17.557   4.457 -0.0814 -0.2069 -0.0015
 3041W        W21245   4.624  14.407  11.192 -0.2492 -0.2029 -0.1360
 3042W        W21246   1.642   8.450  15.084 -0.1937 -0.1734  0.1610
 3043W        W21247   1.741   0.897   3.023 -0.1633  0.1684 -0.0135
 3044W        W21248  18.071  15.665   2.700  0.1927 -0.0358  0.0529
 3045W        W21249  11.472   7.083   5.997  0.1277 -0.1870 -0.0178
 3046W        W21250   0.813   8.671  14.393  0.0475  0.0522 -0.0544
 3047W        W21251   7.218  14.315   3.831  0.4837 -0.0753  0.3730
 3048W        W21252  17.253   9.000   3.760  0.3328  0.1756  0.2719
 3049W        W21253  15.615   9.475   4.374 -0.0390 -0.1663 -0.0724
 3050W        W21254   2.192   3.501   0.083 -0.2795  0.3751  0.3721
 3051W        W21255   4.439  18.215  13.138 -0.1327  0.0701  0.2052
 3052W        W21256  14.901   0.412  13.245 -0.0820  0.1575 -0.1636
 3053W        W21257  14.348  10.145  13.763 -0.2034 -0.0499  0.0757
 3054W        W21258  11.421  11.021   0.715  0.1232  0.0021 -0.2045
 3055W        W21259   0.640  11.171  12.028  0.2810 -0.0627 -0.0909
 3056W        W21260  11.545   5.856   2.119 -0.0361 -0.2573  0.2883
 3057W        W21261  14.961   6.954   0.064 -0.0146 -0.1596 -0.0553
 3058W        W21262   0.320   5.800   3.087 -0.2377  0.0015 -0.3081
 3059W        W21263  17.120   0.203   3.494  0.0191  0.1112  0.2062
 3060W        W21264   2.451   1.874  15.286 -0.0523  0.0815 -0.0629
 3061W        W21265   3.372   2.149   1.558  0.1483  0.3242 -0.0447
 3062W        W21266  12.142  13.035  11.667 -0.2837 -0.1741  0.1498
 3063W        W21267  14.139   5.941  11.410  0.0993  0.0285  0.1696
 3064W        W21268   8.814   0.379   0.297  0.0638  0.0404 -0.2404
 3065W        W21269   1.263   3.267   3.235  0.2168 -0.3106 -0.1054
 3066W        W21270   3.186   2.075   0.146  0.1414  0.3278  0.0859
 3067W        W21271  17.577   5.964   1.609 -0.1712 -0.1501 -0.3975
 3068W        W21272   9.363  16.438   3.153  0.0167 -0.1296 -0.0044
 3069W        W21273   2.727   4.372  14.165 -0.0946  0.1246 -0.2786
 3070W        W21274  17.382   9.620  11.146 -0.1233 -0.3759  0.1267
 3071W        W21275  14.797  13.750  12.011  0.0090  0.1052 -0.2059
 3072W        W21276  16.232   9.150  14.466 -0.0724  0.1255  0.0060
 3073W        W21277   1.855   5.415   4.055  0.1497 -0.0836 -0.0197
 3074W        W21278  17.394  10.930   3.849  0.0069 -0.1409  0.1580
 3075W        W21279   8.187   8.976  11.516  0.1418  0.2459 -0.0966
 3076W        W21280   1.158   2.100   0.516 -0.0052  0.1805  0.3976
 3077W        W21281   3.553  15.449  13.298  0.0465  0.3441  0.2159
 3078W        W21282  13.561  11.110   4.596  0.2147 -0.0526  0.0456
 3079W        W21283   2.196   8.941  11.772  0.1056  0.1056  0.3063
 3080W        W21284   9.830   5.323   0.121  0.0487 -0.3974 -0.0233
 3081W        W21285  13.796   6.256   1.366  0.1830  0.2634  0.0440
 3082W        W21286   8.214   6.204  13.117 -0.0323  0.1466 -0.1738
 3083W        W21287   5.188  13.205  14.496 -0.3156 -0.0046  0.0817
 3084W        W21288  17.407   0.700  12.583 -0.0863  0.0073 -0.2421
 3085W        W21289   8.549  11.129   1.954 -0.2978  0.0105  0.2862
 3086W        W21290  13.887   1.192   3.592 -0.2537 -0.1706  0.2431
 3087W        W21291  15.496   7.095   1.403 -0.0041 -0.1066  0.2851
 3088W        W21292  10.114   6.093  11.501 -0.3050 -0.0012 -0.0713
 3089W        W21293   5.593  10.759  15.530 -0.2236 -0.2336 -0.0120
 3090W        W21294  10.672  13.627   4.303 -0.4321  0.3479 -0.0581
 3091W        W21295  17.203   7.731  10.855  0.0795 -0.1504 -0.3959
 3092W        W21296  18.032   9.514   2.850 -0.2519  0.0269  0.3213
 3093W        W21297   6.517   5.272   3.169 -0.1043 -0.0967 -0.3142
 3094W        W21298   8.285   3.421  15.256  0.1671  0.0099 -0.0032
 3095W        W21299   3.899  11.881   2.373 -0.2220 -0.0549 -0.0821
 3096W        W21300  17.884   9.454  13.712  0.1143 -0.0224  0.1027
 3097W        W21301  14.819   4.073   2.031 -0.0811  0.0921 -0.4022
 3098W        W21302   1.372   0.612   1.596 -0.2247 -0.3675  0.0577
 3099W        W21303   0.372   4.502  14.069  0.1404 -0.1497 -0.0983
 3100W        W21304   2.548   1.356  14.089 -0.0020 -0.0212  0.2070
 3101W        W21305   8.379   2.944  15.715  0.0416 -0.0020  0.1640
 3102W        W21306   5.396   7.532  11.506  0.0459  0.1682  0.2905
 3103W        W21307   6.966  16.922   3.245  0.1084 -0.0127  0.0085
 3104W        W21308  12.549   8.156  14.788 -0.0162  0.1955  0.0545
 3105W        W21309   1.246  11.360  12.649  0.0025  0.1083 -0.0189
 3106W        W21310   0.635   8.973  12.957  0.0493  0.0917  0.0076
 3107W        W21311  11.860  14.940   0.816  0.0452 -0.2794  0.1444
 3108W        W21312  18.083  12.717  10.528  0.0323 -0.1251 -0.0071
 3109W        W21313   6.808   9.365   6.097 -0.2702  0.2175 -0.1234
 3110W        W21314   0.303   6.127   1.723  0.0501  0.0633  0.1687
 3111W        W21315   5.355  13.918   4.067 -0.3006  0.0004  0.0188
 3112W        W21316   3.846   5.932   2.390 -0.0336  0.0182  0.0202
 3113W        W21317   4.125   3.024   2.145 -0.0961 -0.2230  0.2733
 3114W        W21318   9.969  10.279   2.017 -0.1447 -0.1666 -0.2607
 3115W        W21319   6.382  15.581  12.198 -0.0241  0.3167  0.0472
 3116W        W21320  10.751  14.461  14.149  0.1091  0.1031  0.0822
 3117W        W21321  16.714   1.680  12.951  0.1521  0.0002 -0.1415
 3118W        W21322  14.564  13.128  14.171 -0.0865 -0.0973 -0.0050
 3119W        W21323   8.022  12.667  15.651 -0.0426 -0.0060 -0.1281
 3120W        W21324   9.617   8.231   4.222 -0.0520 -0.0860 -0.0340
 3121W        W21325   2.917  10.901   3.518  0.4504  0.0211  0.0135
 3122W        W21326   4.880   8.749   5.014 -0.0203 -0.2529  0.2485
 3123W        W21327   6.404   6.290  14.978 -0.1824  0.0124 -0.0118
 3124W        W21328  17.739  10.035   4.348  0.1305  0.0999 -0.2267
 3125W        W21329  18.214   4.912  10.721  0.0291  0.1739 -0.1113
 3126W        W21330   1.097  18.377   4.688 -0.1186 -0.0919 -0.0776
 3127W        W21331  17.351   5.910  13.876  0.1793  0.4628 -0.1101
 3128W        W21332   6.476  15.533   3.178  0.1073  0.1254  0.1372
 3129W        W21333   4.224  10.049  11.260  0.2013  0.0385 -0.2329
 3130W        W21334  12.207   6.510  11.744 -0.0896 -0.1082 -0.0887
 3131W        W21335  10.983   8.143   5.100 -0.1780 -0.1673 -0.0330
 3132W        W21336   8.411  14.110  15.470 -0.1573 -0.0474 -0.1580
 3133W        W21337  16.741   1.356   0.380 -0.2070 -0.0351  0.0763
 3134W        W21338   4.008  16.093  14.359 -0.2289 -0.2902 -0.2924
 3135W        W21339   9.293   2.719  13.164  0.0729 -0.1089  0.1924
 3136W        W21340  14.031   3.613   3.672 -0.1243  0.2819  0.0025
 3137W        W21341  11.849  17.679  15.634  0.0684 -0.2302 -0.2044
 3138W        W21342   4.907  11.149   1.665 -0.0943  0.0681  0.2737
 3139W        W21343   8.414   8.102  11.651 -0.0513 -0.0523 -0.1394
 3140W        W21344  15.896   7.943  14.685  0.0029 -0.1916  0.0670
 3141W        W21345  13.728  18.329  11.684 -0.0088  0.1403 -0.2620
 3142W        W21346   0.006   0.794  14.674  0.2273  0.3425 -0.1724
 3143W        W21347   9.828   1.491  11.901  0.3962 -0.1610  0.1069
 3144W        W21348  12.480   1.184  13.279  0.1854 -0.2224 -0.2000
 3145W        W21349   7.979   6.593   1.295 -0.0864 -0.1695  0.2081
 3146W        W21350   6.529   1.431  11.880 -0.0438  0.0330 -0.2026
 3147W        W21351   2.566   1.775  12.011  0.1461 -0.0808  0.0900
 3148W        W21352  11.658  13.626   1.160 -0.0561  0.2961 -0.1369
 3149W        W21353  12.250   0.588   0.011 -0.5151 -0.0130  0.0008
 3150W        W21354   6.550   2.212  13.902 -0.0096 -0.3142 -0.2502
 3151W        W21355   4.742  12.289  11.839  0.4214 -0.0795 -0.0728
 3152W        W21356   2.210   2.835   2.430 -0.2224 -0.0701 -0.1283
 3153W        W21357   3.934  13.332   2.449 -0.0939  0.3960  0.1608
 3154W        W21358  12.401   6.172  12.091  0.1494 -0.0689  0.3173
 3155W        W21359   1.806   1.706   0.289  0.1717  0.2088  0.1417
 3156W        W21360   3.377  13.823   3.035  0.0706 -0.1520  0.1381
 3157W        W21361  13.961   6.058   0.931  0.0427 -0.0062 -0.0929
 3158W        W21362   8.042   4.071   1.128 -0.3152 -0.0481 -0.0059
 3159W        W21363  12.804   4.480   3.613 -0.0213 -0.0536  0.1743
 3160W        W21364  16.431  15.703   3.589  0.2553 -0.1505 -0.1270
 3161W        W21365   5.441   6.854  12.785  0.0506  0.0065  0.1913
 3162W        W21366   3.602   6.192  10.082 -0.2011  0.2927 -0.1651
 3163W        W21367   2.432  12.445   4.714  0.0096 -0.1227  0.1226
 3164W        W21368   0.046  17.495  15.633 -0.2516 -0.0148  0.1873
 3165W        W21369  11.774  16.203   2.882 -0.1189 -0.2349 -0.0016
 3166W        W21370   4.773  10.851   4.122 -0.3709  0.0672 -0.0427
 3167W        W21371   5.132  10.662  11.009 -0.2511 -0.3009 -0.0300
 3168W        W21372   0.742  11.774  13.491 -0.0709  0.3155  0.0589
 3169W        W21373  16.329   4.605   0.906 -0.1106 -0.1270 -0.0239
 3170W        W21374   2.997  13.282  12.268  0.1746  0.1872 -0.0203
 3171W        W21375   0.182  15.018   2.285  0.1099  0.0063  0.0186
 3172W        W21376  14.909  14.733   1.019 -0.3948 -0.3132 -0.1818
 3173W        W21377   5.038  13.968   2.140  0.2615  0.2155  0.1384
 3174W        W21378  12.716   3.129   3.775  0.0157  0.2509  0.0043
 3175W        W21379  14.196  16.414  14.711  0.2102  0.1828  0.0003
 3176W        W21380  12.331   9.057  14.214 -0.0807  0.5053  0.0368
 3177W        W21381   3.376   8.155   0.476  0.0649  0.1988  0.1143
 3178W        W21382   5.651  13.371   3.086  0.0470  0.2609 -0.1507
 3179W        W21383  17.463  14.993  14.694 -0.1833  0.1516 -0.0607
 3180W        W21384   1.686  13.248  13.004 -0.1252  0.0161 -0.1623
 3181W        W21385   1.747  11.827  11.448  0.0665 -0.2703  0.1961
 3182W        W21386  14.098   7.227  11.216 -0.3126  0.0419  0.1948
 3183W        W21387  10.557   8.685  11.587 -0.1863 -0.0448 -0.1925
 3184W        W21388   9.595   3.518   3.856  0.0879  0.0266  0.0250
 3185W        W21389  15.622   6.655  14.534 -0.0164  0.0730 -0.5939
 3186W        W21390   9.736   1.077   3.218  0.0185  0.1550 -0.2367
 3187W        W21391   5.950  17.124  13.960 -0.0071 -0.4055 -0.2254
 3188W        W21392   1.226  11.452   5.051  0.1126 -0.1490  0.2318
 3189W        W21393   7.165   4.733  14.876  0.0504 -0.2720 -0.2054
 3190W        W21394   6.219  12.298  11.875 -0.1962 -0.2473 -0.0487
 3191W        W21395   4.707   6.344   3.416  0.2868 -0.0252  0.3845
 3192W        W21396  14.608  15.640  11.749  0.1144  0.1216 -0.3610
 3193W        W21397  13.385  16.650   0.313  0.0438  0.2480  0.1462
 3194W        W21398   2.393  11.567   1.319 -0.0275  0.0995 -0.0892
 3195W        W21399   5.837  10.607   5.503  0.0962  0.1693  0.2473
 3196W        W21400   9.026   5.312   0.584  0.2039 -0.2666  0.0483
 3197W        W21401   3.233   5.094  13.512  0.3161  0.0932  0.1731
 3198W        W21402  16.355   0.267  15.336  0.1258 -0.1581  0.2905
 3199W        W21403   0.224  15.982  12.646  0.3553  0.2299 -0.4403
 3200W        W21404   9.350   7.416   5.146 -0.0441 -0.2511 -0.0655
 3201W        W21405   8.909   6.264   3.634 -0.0751  0.2941  0.1611
 3202W        W21406  11.753   2.998   0.540  0.1956  0.0078  0.2832
 3203W        W21407   1.960   7.901   1.434 -0.1151  0.2909 -0.1442
 3204W        W21408  15.303   7.455   3.214  0.0003 -0.0310  0.1318
 3205W        W21409   4.744  10.843   3.564 -0.0100  0.1566 -0.1121
 3206W        W21410  15.008   7.826   3.220  0.0726  0.1451  0.0911
 3207W        W21411   9.292   8.563   5.843 -0.1188 -0.1987 -0.2177
 3208W        W21412   1.063   8.604   0.378  0.3516  0.2091  0.0567
 3209W        W21413   1.851   9.125   4.192 -0.2332  0.2015  0.1232
 3210W        W21414  15.181  16.556  11.302 -0.0665 -0.0242  0.2365
 3211W        W21415   1.010   0.150  12.822 -0.0891 -0.3488 -0.3354
 3212W        W21416   1.547   9.487  13.728 -0.1382 -0.0797  0.0258
 3213W        W21417   4.386   3.533   1.075  0.0887  0.1290  0.1795
 3214W        W21418   8.336  15.492   3.480 -0.1415 -0.0552  0.0321
 3215W        W21419   4.054  10.447  12.999 -0.0788 -0.0282 -0.0364
 3216W        W21420  13.520   4.385   3.191  0.0269 -0.0549  0.0061
 3217W        W21421  11.883  17.336  14.293  0.2203 -0.2105 -0.1796
 3218W        W21422  16.239  15.799   1.787  0.2735 -0.0333  0.0613
 3219W        W21423   5.431  10.662   2.207 -0.1337 -0.1560  0.1354
 3220W        W21424  17.203  11.436  14.607 -0.3774 -0.1290  0.0682
 3221W        W21425  12.931  18.126   4.569  0.0319  0.3865  0.0664
 3222W        W21426   3.229   7.401  10.632  0.1959 -0.0608  0.0210
 3223W        W21427  16.951  17.334   5.093  0.3858  0.0277  0.0305
 3224W        W21428   4.209   2.894  11.892 -0.1334  0.1756 -0.0930
 3225W        W21429  13.822  13.567  14.595  0.0951 -0.2684  0.1323
 3226W        W21430  10.243   4.784   0.339  0.1271  0.2975 -0.1375
 3227W        W21431  14.696  14.018   2.453  0.1609 -0.5249  0.1837
 3228W        W21432   3.238   5.969  11.811  0.0353 -0.0525  0.0857
 3229W        W21433  14.944   0.484  15.420  0.0863 -0.0252 -0.1733
 3230W        W21434   9.538  16.627  11.857 -0.1480  0.1158  0.1371
 3231W        W21435  16.925  15.295   1.952  0.0034 -0.1918  0.2282
 3232W        W21436  17.315   8.660  13.491  0.1350  0.1968  0.0921
 3233W        W21437  10.742   1.248   4.414  0.1019 -0.2511 -0.2631
 3234W        W21438   4.188   0.448   1.412  0.0420  0.3178  0.0884
 3235W        W21439   1.735   4.268   0.796 -0.0128  0.0460 -0.1308
 3236W        W21440  15.762  16.635   0.491 -0.1074  0.3112 -0.2535
 3237W        W21441  17.474  15.548   4.787  0.2497 -0.1238  0.0998
 3238W        W21442  15.412  17.796   9.886  0.2313 -0.0895  0.4215
 3239W        W21443   7.953   0.188   0.083  0.1162 -0.0629  0.2647
 3240W        W21444  17.577  15.167  11.823 -0.0239 -0.0103  0.1671
 3241W        W21445   4.127  16.442   1.297 -0.2007  0.2627  0.1702
 3242W        W21446   1.098  17.412  11.733 -0.0028 -0.1112  0.1911
 3243W        W21447  12.555  16.092   2.386 -0.0221  0.1124 -0.1953
 3244W        W21448  15.060   3.217   2.868  0.0190  0.2886  0.0482
 3245W        W21449  17.455  14.283   1.295 -0.1005 -0.0901 -0.0413
 3246W        W21450  14.856  13.464   1.254 -0.1571 -0.0914  0.0749
 3247W        W21451  14.776   1.091  15.158  0.0319  0.1797 -0.1257
 3248W        W21452   6.412  11.558   0.925 -0.0570 -0.0272 -0.1235
 3249W        W21453  13.227   0.067   1.998  0.1728 -0.1119 -0.1119
 3250W        W21454  10.605  17.182   4.804 -0.0166  0.1986  0.1009
 3251W        W21455  14.778  11.624  12.514  0.1083  0.1174  0.0829
 3252W        W21456   0.592  14.935  14.532 -0.3522  0.0896  0.2167
 3253W        W21457   3.656   5.580   4.250  0.2446 -0.1080  0.1763
 3254W        W21458   4.219  12.990   3.741 -0.0529  0.2864  0.0301
 3255W        W21459   5.577  10.512  15.106  0.0368 -0.3123  0.1881
 3256W        W21460   7.243  18.342   1.263  0.3534 -0.2255  0.0712
 3257W        W21461  16.042   9.278  11.716  0.1094  0.1649  0.0181
 3258W        W21462   6.231   4.753   5.110  0.1768  0.2529  0.1067
 3259W        W21463  10.989   0.879   3.576 -0.1690 -0.1691 -0.0899
 3260W        W21464   6.865   9.822   0.838  0.0900 -0.1535 -0.0387
 3261W        W21465   4.266   4.361   5.366 -0.0856  0.0735  0.0684
 3262W        W21466  12.026   4.647  14.710  0.2989 -0.0138  0.0496
 3263W        W21467   8.199  16.267   4.729  0.1372 -0.0057  0.1130
 3264W        W21468   9.798   5.936   4.683  0.1160  0.1381  0.0980
 3265W        W21469   2.675   3.942  11.213  0.4135  0.0564  0.1269
 3266W        W21470  11.149   6.175  11.515 -0.2415 -0.2895 -0.0014
 3267W        W21471  17.180   3.695  13.988 -0.0203  0.1111 -0.0328
 3268W        W21472   5.681  14.363   1.772 -0.0614  0.1183 -0.0762
 3269W        W21473   4.950  16.761   4.304  0.0410  0.1342 -0.0189
 3270W        W21474  17.723   6.743  12.564  0.1367 -0.0738  0.0743
 3271W        W21475  12.615   3.428  14.597 -0.1347 -0.2897  0.0359
 3272W        W21476  18.163   8.036  13.271 -0.1387  0.3767  0.1944
 3273W        W21477   1.201   2.113  15.379  0.2252  0.0532  0.3857
 3274W        W21478   7.034  11.286  11.409  0.0405 -0.2741  0.0653
 3275W        W21479   4.102  17.146  13.992 -0.1113 -0.1516 -0.1558
 3276W        W21480  16.774  17.443  11.113 -0.0865  0.1557  0.0304
 3277W        W21481   3.063   3.067   4.520 -0.0914  0.4134 -0.1916
 3278W        W21482   6.406  14.522   0.083 -0.1139  0.1082 -0.2366
 3279W        W21483  14.492  10.431  14.832  0.0238 -0.2286 -0.2795
 3280W        W21484  10.759  10.271   3.304 -0.0596  0.1471  0.2015
 3281W        W21485   1.013   3.053  15.409  0.2228 -0.2604 -0.2895
 3282W        W21486  17.426   2.244   3.175 -0.1352  0.0942  0.1565
 3283W        W21487   6.534   3.226  13.997 -0.0271 -0.2826  0.1385
 3284W        W21488   3.283   7.165  12.979 -0.0070 -0.1950 -0.5287
 3285W        W21489  15.760   3.761   4.217  0.0440 -0.1816  0.4054
 3286W        W21490   6.673  17.429  15.377  0.1396  0.1947  0.1107
 3287W        W21491   2.886   7.912  14.841 -0.0932 -0.1378  0.0775
 3288W        W21492   3.987   6.295   1.498 -0.1714  0.3010 -0.3360
 3289W        W21493  12.198   5.204   2.281 -0.0601  0.0294 -0.0436
 3290W        W21494   7.809   3.553   0.943  0.0601 -0.2309 -0.1405
 3291W        W21495   6.191  17.789   3.530  0.2430  0.2003  0.0784
 3292W        W21496   8.889   3.860   0.177 -0.0984 -0.0993  0.1530
 3293W        W21497   0.426   3.587  12.059  0.1581 -0.0260  0.1139
 3294W        W21498   6.149  10.893   4.656 -0.0181 -0.1480  0.2186
 3295W        W21499   5.304   3.378  11.525 -0.0992 -0.0177 -0.0513
 3296W        W21500   3.563  17.290  13.891 -0.2292  0.1610 -0.0942
 3297W        W21501  14.003   1.420   0.072 -0.1427  0.1872  0.0448
 3298W        W21502  11.444   1.608   0.507 -0.0509  0.2647 -0.1582
 3299W        W21503   9.476   1.956   0.631 -0.1154 -0.0600  0.0426
 3300W        W21504  16.479   4.277  14.455  0.1673 -0.0917  0.0979
 3301W        W21505  11.029  12.239   3.007 -0.1749 -0.2835  0.0574
 3302W        W21506  14.828  16.970   3.620  0.1938 -0.1792 -0.0777
 3303W        W21507   8.463  16.302   3.891  0.1411 -0.0419  0.2214
 3304W        W21508  18.283  15.904   3.657 -0.1201  0.1317  0.1310
 3305W        W21509   3.549   5.389   0.932  0.0722  0.0874  0.3553
 3306W        W21510   5.517   0.741  13.426 -0.1653 -0.0982  0.0830
 3307W        W21511   0.936  14.221  14.199  0.1629  0.1972 -0.3225
 3308W        W21512  16.670   6.721   2.521 -0.0420 -0.2111  0.2700
 3309W        W21513  16.780  14.757  12.108 -0.0366 -0.3553  0.2586
 3310W        W21514   9.808   5.101  14.788  0.0725  0.0383  0.0182
 3311W        W21515   7.981  17.274  12.230  0.1499 -0.1996 -0.0217
 3312W        W21516  12.121  11.369   4.825 -0.0895 -0.1228  0.1340
 3313W        W21517   2.843  11.903   1.310 -0.2184 -0.1896  0.1579
 3314W        W21518   2.959  17.422   3.675  0.3519  0.1805 -0.1016
 3315W        W21519  12.469   8.435   1.947  0.1677 -0.0191  0.2342
 3316W        W21520  13.549   8.733  12.814  0.0535  0.1632  0.1568
 3317W        W21521  12.625  16.109   4.872 -0.1747  0.3011 -0.3245
 3318W        W21522   5.178  14.272  12.830  0.0376  0.1690  0.0920
 3319W        W21523  14.798  11.392  11.999 -0.1693  0.0510  0.1062
 3320W        W21524   4.488   8.419   3.864 -0.1101  0.1709 -0.2866
 3321W        W21525  14.530   1.352  12.935 -0.0532 -0.0059  0.0269
 3322W        W21526   2.413   0.532  14.030 -0.1119 -0.2021 -0.0611
 3323W        W21527   6.925  14.138  14.632 -0.0432  0.5162 -0.1947
 3324W        W21528  17.427  15.570   1.720  0.1861 -0.1470 -0.2390
 3325W        W21529   1.384   0.890  11.852 -0.0881 -0.0886  0.0357
 3326W        W21530  13.367  10.224   1.021  0.1833  0.0192 -0.2861
 3327W        W21531  12.468   4.708  11.156 -0.0836  0.1416 -0.0008
 3328W        W21532  10.298  13.863   3.634 -0.0595  0.2192  0.0200
 3329W        W21533  11.636  17.106  12.604  0.0647 -0.3647 -0.1757
 3330W        W21534  13.297   7.552   3.528  0.0881 -0.2128 -0.2615
 3331W        W21535   0.493  16.029   4.277  0.2851 -0.0488 -0.4055
 3332W        W21536  13.084  14.660   1.463  0.0480  0.0157 -0.1384
 3333W        W21537  14.270   2.160  12.094 -0.0172 -0.0296  0.5243
 3334W        W21538   2.378   1.017   2.418 -0.2393 -0.0857  0.0764
 3335W        W21539  13.411   2.493  12.072 -0.1027 -0.1524  0.2133
 3336W        W21540  12.012  16.540   0.670 -0.2996  0.0118  0.4260
 3337W        W21541   4.790   3.572  11.636 -0.2536 -0.0140 -0.1342
 3338W        W21542   7.253   9.876  14.797 -0.3059 -0.0835 -0.1587
 3339W        W21543   5.079   4.758   1.816  0.2335 -0.2507  0.0943
 3340W        W21544   3.007   7.247  11.818 -0.1271  0.0344  0.2954
 3341W        W21545   5.977   6.137  12.795  0.0385 -0.1833 -0.1501
 3342W        W21546   1.247   9.830   1.255  0.1820 -0.2011 -0.0607
 3343W        W21547  16.755   3.470   1.171 -0.0076  0.2686 -0.2223
 3344W        W21548   9.105   9.994   0.840  0.0890 -0.0929  0.2486
 3345W        W21549  14.297  10.531   0.648  0.2100  0.1565 -0.3321
 3346W        W21550   1.305   4.767  12.052 -0.2335  0.0477  0.2709
 3347W        W21551  17.615   6.981  10.346  0.1774 -0.0808 -0.0704
 3348W        W21552   1.420   6.544   3.678 -0.2162  0.0937 -0.1611
 3349W        W21553   4.832  11.498   3.075  0.0587 -0.1126 -0.2019
 3350W        W21554  11.399  16.737  10.832 -0.1051 -0.0139 -0.0011
 3351W        W21555  13.789   6.408   2.196 -0.2209  0.2442 -0.1714
 3352W        W21556   3.282  10.706   2.692  0.1089  0.2905  0.3071
 3353W        W21557  14.887   2.953   3.729  0.1992  0.0218 -0.1516
 3354W        W21558   8.374   4.512  12.384  0.1017 -0.2770 -0.2189
 3355W        W21559  17.376  15.570  13.212 -0.0042  0.2658 -0.0861
 3356W        W21560   0.542   6.226   3.872  0.1106 -0.0160 -0.2659
 3357W        W21561  12.707  17.026  11.287  0.1276  0.4109 -0.0046
 3358W        W21562   7.022  14.831  12.167  0.0813 -0.0566 -0.1761
 3359W        W21563   7.496  15.709  11.418  0.0705  0.1183 -0.0637
 3360W        W21564   2.414   9.282   2.012  0.1612 -0.6057 -0.0956
 3361W        W21565  12.940   6.809  14.070 -0.0543 -0.0912 -0.0609
 3362W        W21566  12.812   3.772  12.449  0.0956 -0.1201 -0.0169
 3363W        W21567   6.759   4.745  13.348  0.2725 -0.2767 -0.1934
 3364W        W21568  17.408   2.100   4.358 -0.0774  0.1123  0.0376
 3365W        W21569  16.335   8.323  13.547 -0.0311 -0.1907  0.0177
 3366W        W21570   2.427   9.911   4.352 -0.0986  0.0280  0.0338
 3367W        W21571  16.484   0.834  13.177 -0.0414 -0.0829 -0.1842
 3368W        W21572   6.656  14.259   1.973 -0.0269  0.1555  0.2526
 3369W        W21573   1.518  10.231  10.595 -0.1756  0.3978 -0.0919
 3370W        W21574   1.094  14.255   0.839  0.0955 -0.1413  0.0567
 3371W        W21575  13.166  17.668  13.322 -0.0271 -0.0643  0.1169
 3372W        W21576   3.846  10.129  11.701 -0.0948 -0.2215  0.0675
 3373W        W21577   1.970  14.118   0.146  0.0687 -0.0690  0.1086
 3374W        W21578  16.899   8.739  15.380  0.0816 -0.0695  0.0746
 3375W        W21579  17.370   3.967  14.873 -0.1898  0.0259  0.1219
 3376W        W21580  18.374   9.623   0.646  0.3218 -0.2519  0.0045
 3377W        W21581  16.380   1.318   3.744  0.1608 -0.0179  0.0407
 3378W        W21582  15.149   7.144  11.623  0.1271  0.2735  0.1350
 3379W        W21583  11.341  10.296  15.175 -0.1581  0.0839 -0.0763
 3380W        W21584  10.101  17.728   2.974 -0.0941  0.0548 -0.0331
 3381W        W21585   6.857  10.585   1.184  0.2364 -0.0729 -0.2580
 3382W        W21586  16.496   0.742  15.495 -0.0708 -0.3098  0.1610
 3383W        W21587  11.338  11.431   2.483  0.1452  0.0743  0.2584
 3384W        W21588  15.959   9.931  13.500  0.2271  0.4127  0.0901
 3385W        W21589  16.501   9.186  12.075 -0.1314 -0.0529  0.0929
 3386W        W21590   7.398  11.663   3.071  0.3153  0.0624 -0.3212
 3387W        W21591  17.782   1.001   3.541  0.1362 -0.2156  0.1232
 3388W        W21592  16.172  10.665   4.708  0.0229 -0.2992 -0.1877
 3389W        W21593   4.020   9.976  12.944  0.0003  0.0665  0.3698
 3390W        W21594  18.055   4.674   3.306  0.0745 -0.0753 -0.0547
 3391W        W21595   6.980   1.661   1.713 -0.0290 -0.1196 -0.1126
 3392W        W21596  12.568   3.064   4.259  0.0814 -0.4914  0.3552
 3393W        W21597  16.942   6.554   2.944  0.2159 -0.0932  0.0877
 3394W        W21598  11.892  13.194  13.089  0.3683  0.0927  0.5234
 3395W        W21599   2.710   2.040   4.910 -0.0848 -0.0800 -0.1597
 3396W        W21600   9.962   5.236  12.142  0.1801 -0.1779  0.0169
 3397W        W21601   0.574   8.048  14.475 -0.0118  0.1368 -0.0184
 3398W        W21602   7.314  11.731  12.894 -0.2018 -0.1588  0.0870
 3399W        W21603   5.660  13.918  11.208 -0.1262 -0.0843  0.0654
 3400W        W21604  12.257  10.390  15.271 -0.1803 -0.0580  0.0518
 3401W        W21605  18.282   8.542   3.742 -0.1526  0.0227  0.2046
 3402W        W21606  10.137  14.201   0.498  0.3662  0.0133 -0.0561
 3403W        W21607   4.187   2.721   2.586  0.1141 -0.1904  0.1450
 3404W        W21608  13.147  14.854  13.681  0.0826  0.0533 -0.0565
 3405W        W21609  16.517   2.713  11.754 -0.1545 -0.0796 -0.4463
 3406W        W21610  11.726   9.433  12.051  0.0672 -0.2043 -0.0563
 3407W        W21611  11.116  12.218  13.670  0.3905 -0.1991 -0.4147
 3408W        W21612   7.549  15.450  13.588 -0.0390 -0.0600 -0.1574
 3409W        W21613  16.066  17.640   2.274  0.0138  0.3771  0.2027
 3410W        W21614   5.363   3.218  12.493  0.0664  0.0631  0.0539
 3411W        W21615  14.610   1.739   2.043  0.1497 -0.0091 -0.0242
 3412W        W21616  14.526  12.618  13.349  0.0883 -0.0769 -0.0306
 3413W        W21617   8.631   6.686   5.040  0.1138 -0.1246 -0.4565
 3414W        W21618   4.020   7.969  15.566  0.0311  0.0995  0.1626
 3415W        W21619  11.800   2.160  11.234 -0.3887 -0.0959  0.0306
 3416W        W21620   7.186  10.266   2.567 -0.1649  0.1084  0.2761
 3417W        W21621  10.125   0.964  15.531  0.1965 -0.0699  0.0652
 3418W        W21622  15.248   8.697  14.876  0.0687 -0.1254 -0.0077
 3419W        W21623   6.070  14.920  13.559  0.3396  0.0735  0.2233
 3420W        W21624   0.440   8.370   3.406 -0.3187  0.1575  0.1318
 3421W        W21625  12.134   8.687   4.170  0.0301  0.2435 -0.0830
 3422W        W21626  12.750  11.331  14.455  0.0760 -0.0917  0.0768
 3423W        W21627   3.785  15.023  13.682 -0.1013 -0.0374  0.2191
 3424W        W21628  14.269  17.354  11.034  0.0801  0.1619 -0.1058
 3425W        W21629   5.279  18.085   4.654 -0.2931  0.0832 -0.1845
 3426W        W21630  10.712   5.620   3.303 -0.0616 -0.1453  0.0814
 3427W        W21631   9.307   4.851  12.739 -0.0410 -0.2221  0.0895
 3428W        W21632  16.241   5.203   1.692  0.2060 -0.0520 -0.0048
 3429W        W21633  11.297   8.816   1.099 -0.0078 -0.0083  0.0442
 3430W        W21634  15.912   7.372  14.425 -0.0474 -0.3755 -0.2409
 3431W        W21635   6.188  17.092  14.778 -0.0075 -0.0828  0.0395
 3432W        W21636  14.823   5.536   4.290  0.0021  0.1254  0.0062
 3433W        W21637   7.421   6.135   1.726  0.1636 -0.2104 -0.1398
 3434W        W21638   3.835   8.620  12.005  0.0918  0.0961  0.0641
 3435W        W21639  14.127   9.305  11.736  0.0182 -0.0016  0.1963
 3436W        W21640  10.024   8.856   3.866  0.1066 -0.1955  0.0326
 3437W        W21641   8.764   8.005   1.716  0.3743 -0.0289 -0.0783
 3438W        W21642  16.485  12.179   4.604  0.1047  0.3258 -0.0183
 3439W        W21643   4.723   0.509   1.347  0.1321 -0.2531 -0.1212
 3440W        W21644  12.292  15.974  10.603  0.2184  0.1477  0.1071
 3441W        W21645   3.277   8.533   0.857 -0.3639  0.2027 -0.1832
 3442W        W21646   4.400   5.610  14.314 -0.0573 -0.0561  0.3134
 3443W        W21647   7.657   1.274  14.084 -0.2226  0.1867  0.0764
 3444W        W21648   7.538   8.194  11.277 -0.0374  0.1143  0.0350
 3445W        W21649   0.131   0.498   3.440 -0.2084  0.1146  0.1818
 3446W        W21650  10.663   4.845  13.302 -0.0719 -0.0325  0.1447
 3447W        W21651  15.812  14.597  14.405  0.2476 -0.1784 -0.3236
 3448W        W21652  17.999   3.646   1.361 -0.0647  0.0162 -0.3335
 3449W        W21653  11.590   9.446  14.999  0.3272  0.0411  0.0922
 3450W        W21654   3.912   5.970  13.021  0.0850  0.2489  0.1404
 3451W        W21655   8.384  13.567   5.652  0.2038  0.0714  0.3412
 3452W        W21656   1.092   1.101  11.450 -0.2057  0.0139  0.2237
 3453W        W21657  15.975   6.406   1.917  0.0043 -0.1450  0.0018
 3454W        W21658   5.972  11.637   5.182  0.2663  0.0817  0.1228
 3455W        W21659  18.282   2.173  15.352 -0.1100  0.1529  0.0390
 3456W        W21660  11.714  15.864   3.888  0.0912 -0.1941 -0.0243
 3457W        W21661  10.732  15.544   1.875  0.0094 -0.0410 -0.3100
 3458W        W21662   5.837   2.249   2.463 -0.2167  0.1942  0.0013
 3459W        W21663   5.326   6.172   0.202  0.0141 -0.1239 -0.1747
 3460W        W21664   6.726   1.201  14.749  0.1705 -0.1680 -0.0777
 3461W        W21665   7.367   4.087  12.574 -0.1724  0.2694  0.2187
 3462W        W21666   4.120   6.580   0.434 -0.2732 -0.0551 -0.0373
 3463W        W21667  17.034   9.299  11.248  0.3143 -0.1221 -0.0813
 3464W        W21668  12.959   3.779   0.620 -0.0450 -0.1486  0.1894
 3465W        W21669  13.691  17.939  12.827  0.0717 -0.1016 -0.0616
 3466W        W21670  17.091   2.672   1.687  0.1805 -0.1113 -0.3376
 3467W        W21671   8.841  17.038   1.471 -0.0709  0.0059 -0.2460
 3468W        W21672  15.897   0.576   1.066  0.0524  0.1438 -0.2134
 3469W        W21673  10.336   1.832   5.118 -0.2555 -0.0457  0.2812
 3470W        W21674   5.087   1.393   2.481 -0.2064 -0.1415  0.1115
 3471W        W21675   3.733  13.224  10.677 -0.0437 -0.0183  0.2536
 3472W        W21676   7.813  16.741   2.951  0.1310 -0.0136  0.0287
 3473W        W21677   7.173  11.033   1.156  0.2505 -0.0068 -0.1997
 3474W        W21678  14.123   4.603   2.243  0.0722  0.0880 -0.0940
 3475W        W21679   1.481  13.483   2.745  0.1758 -0.0533 -0.2188
 3476W        W21680   9.679   1.463  13.439 -0.0657  0.2567 -0.1549
 3477W        W21681  12.810   1.694   1.107  0.2195  0.0372 -0.2424
 3478W        W21682   1.576   4.776  14.250 -0.2121  0.2855 -0.0666
 3479W        W21683   2.752   1.539   4.082  0.2366  0.0465 -0.1111
 3480W        W21684   3.565  15.114  10.823  0.1225  0.0133 -0.0038
 3481W        W21685   5.323   7.134   4.361  0.2047  0.3726  0.4054
 3482W        W21686   2.503   7.753   3.077  0.1779 -0.0291 -0.0278
 3483W        W21687   6.120   4.850   5.639 -0.2543  0.2037 -0.3332
 3484W        W21688   9.477  12.294  14.707 -0.1413 -0.0955 -0.0793
 3485W        W21689  17.666   5.021  12.232 -0.3654  0.0010 -0.1163
 3486W        W21690  15.138   6.413   0.404  0.2602  0.1481  0.3002
 3487W        W21691   1.084   9.165  14.312  0.1143 -0.0663  0.1828
 3488W        W21692  17.114  13.022  14.427  0.3765  0.2357  0.1529
 3489W        W21693   2.597  17.183  12.883 -0.1821  0.1123 -0.2508
 3490W        W21694  10.671   3.880  13.443 -0.1204  0.0055  0.2012
 3491W        W21695   5.549   0.573  12.666  0.0470  0.1771  0.2013
 3492W        W21696   9.017   6.191   0.544 -0.1650 -0.0029  0.1827
 3493W        W21697   0.379  18.065  12.551  0.1266 -0.0675  0.0106
 3494W        W21698   3.457   2.546  15.028 -0.2237  0.0003 -0.0952
 3495W        W21699  11.708   8.453  14.169 -0.2196  0.2639  0.0027
 3496W        W21700  15.241   9.654  12.726  0.1331  0.0928 -0.1590
 3497W        W21701  10.009  14.338   1.094 -0.1931  0.5317  0.1226
 3498W        W21702  12.966  17.420   0.997  0.1591 -0.1715 -0.2236
 3499W        W21703  10.054   0.011   5.705  0.1454 -0.1010  0.2282
 3500W        W21704  12.088  17.301  15.276 -0.0381  0.0482 -0.1083
 3501W        W21705   9.125  13.384  10.150  0.0392  0.1222 -0.0347
 3502W        W21706  13.183  17.360  13.889  0.1085 -0.2628 -0.1453
 3503W        W21707   8.846  14.079  11.047 -0.0060  0.0989  0.1159
 3504W        W21708   1.200   6.848  11.722  0.0271 -0.0868  0.1123
 3505W        W21709   2.685  16.853  11.960  0.1913  0.1463 -0.0898
 3506W        W21710  13.737  17.786   0.495 -0.1173 -0.2218 -0.0535
 3507W        W21711   4.279  13.908   3.413  0.2398 -0.0685  0.0176
 3508W        W21712   0.196  13.288  12.570  0.0968 -0.5088  0.0377
 3509W        W21713  11.983   6.832   3.223  0.1339 -0.1338 -0.1243
 3510W        W21714   3.253   0.120   1.723  0.1290  0.1528  0.0974
 3511W        W21715   6.220   9.517   3.702  0.1663 -0.2020 -0.1433
 3512W        W21716  16.574  11.018   2.053 -0.3034 -0.2776  0.2806
 3513W        W21717   6.679   8.772   0.826 -0.0373 -0.0019  0.1043
 3514W        W21718  13.195  14.325   2.539  0.0774 -0.2510 -0.0906
 3515W        W21719   2.103   6.927   3.258  0.0004  0.1524 -0.0505
 3516W        W21720  16.980   8.485   2.461  0.1089 -0.1105 -0.2028
 3517W        W21721  16.192  12.549   2.311 -0.1407  0.1480  0.3670
 3518W        W21722  12.207  16.375   2.179 -0.1115 -0.2052 -0.2780
 3519W        W21723   5.347  17.222   5.793 -0.0820  0.1510 -0.0376
 3520W        W21724  17.883  10.219  15.537 -0.0990  0.2731 -0.1276
 3521W        W21725   7.643  17.723  15.345  0.0606 -0.2586  0.2089
 3522W        W21726  11.093   1.628   4.243 -0.1300 -0.0864 -0.2726
 3523W        W21727   7.212  14.403  10.338 -0.1265  0.2658 -0.0657
 3524W        W21728   9.827  13.901   0.234  0.0347  0.0121 -0.2739
 3525W        W21729  17.330  16.592   4.835 -0.3684 -0.1244 -0.0021
 3526W        W21730  16.874   7.450  11.685 -0.2622  0.0342 -0.3766
 3527W        W21731  16.157   4.797   2.005 -0.1250 -0.0369  0.0800
 3528W        W21732   3.666   6.508   4.029 -0.1871 -0.0364 -0.0624
 3529W        W21733   0.668  11.947   1.034 -0.2766 -0.4939 -0.1953
 3530W        W21734  13.773  16.793   0.528 -0.0980 -0.0307 -0.2214
 3531W        W21735   5.379  10.896   1.676  0.1157 -0.0741  0.2099
 3532W        W21736   1.932  12.333   0.627  0.2550 -0.2874  0.0990
 3533W        W21737   3.041   6.389   1.955  0.1089  0.0330  0.1575
 3534W        W21738  16.446  10.839  12.717  0.0325  0.0465  0.0293
 3535W        W21739  15.639   7.892   3.159 -0.1479  0.2910  0.0742
 3536W        W21740  11.467  10.506  14.713 -0.1073  0.3105 -0.0453
 3537W        W21741  16.851  11.131   2.442 -0.0887  0.0083 -0.3560
 3538W        W21742  14.992   9.650  14.441 -0.2358 -0.0748 -0.0037
 3539W        W21743  13.896   0.910  15.541  0.3251 -0.2437  0.1910
 3540W        W21744  16.648  16.363  12.290 -0.1436  0.1942 -0.1792
 3541W        W21745  10.335  12.578   4.669  0.1329  0.0689  0.0371
 3542W        W21746   8.903  14.220   2.634  0.0645  0.2344  0.0555
 3543W        W21747   9.353  10.705   1.402 -0.3013 -0.0528 -0.0115
 3544W        W21748   3.195  14.406   0.060 -0.2886 -0.0370  0.1800
 3545W        W21749   6.268   4.948  12.572  0.3100 -0.0575  0.2755
 3546W        W21750   2.411   3.784  12.261 -0.0094 -0.2361 -0.1320
 3547W        W21751   4.780  12.607   0.690  0.0353  0.1801 -0.1345
 3548W        W21752  13.711   6.801   1.270 -0.1353  0.0652  0.0093
 3549W        W21753   7.249  16.508  15.583 -0.3355  0.0406 -0.1520
 3550W        W21754  18.233   8.670   2.914  0.1425 -0.3377  0.0243
 3551W        W21755   9.621  10.373   3.157  0.3058  0.1091 -0.1897
 3552W        W21756   9.833   8.663   4.654 -0.0509  0.0251 -0.1734
 3553W        W21757  14.506   2.722  14.807 -0.0102  0.1777  0.0532
 3554W        W21758   8.783  10.043  11.135 -0.1694  0.0833  0.1238
 3555W        W21759   9.003  15.592   1.414  0.4439  0.1907  0.1171
 3556W        W21760   3.686   8.765   4.020  0.4535 -0.0632  0.1070
 3557W        W21761   0.376  13.920   4.101 -0.1784 -0.0905 -0.0108
 3558W        W21762   4.992  10.548   0.063  0.0328  0.1340 -0.0925
 3559W        W21763   2.384  16.175  15.483  0.0574 -0.0502  0.1383
 3560W        W21764   7.555   1.407  15.001  0.0823  0.0959 -0.1656
 3561W        W21765  10.577  14.152  14.842  0.1723  0.0268  0.1773
 3562W        W21766  14.783   2.420   0.526 -0.1164 -0.1289  0.3704
 3563W        W21767   6.265   1.731  13.087  0.0722  0.1332 -0.2253
 3564W        W21768  15.534   6.918   3.943 -0.0646 -0.1732  0.1007
 3565W        W21769   6.648  14.999   2.424  0.1676  0.2498 -0.0768
 3566W        W21770   4.812   6.774   1.063 -0.1588 -0.2690  0.0867
 3567W        W21771  12.319   3.248   3.361 -0.0274 -0.1315  0.0069
 3568W        W21772   1.232   8.738  13.118  0.2340  0.1892  0.1573
 3569W        W21773  14.650   9.668   3.077 -0.0942 -0.1278 -0.0558
 3570W        W21774   9.688  16.328   2.758  0.0212 -0.0218 -0.2441
 3571W        W21775   4.605   3.323  13.570  0.3026 -0.2184  0.0612
 3572W        W21776   2.034   8.113  15.106 -0.2047  0.0106 -0.0439
 3573W        W21777   3.166   5.247  14.024 -0.0380  0.0918 -0.2112
 3574W        W21778   7.395   2.501   3.472 -0.3419  0.3110  0.1832
 3575W        W21779   9.466   9.290   1.555  0.0783 -0.0939 -0.0815
 3576W        W21780  12.431  17.174  11.875  0.0316 -0.2089 -0.0996
 3577W        W21781   2.921  10.669   2.225 -0.1587  0.2403 -0.1080
 3578W        W21782   0.849  16.351  13.292 -0.1318 -0.3870 -0.0637
 3579W        W21783   7.410  14.360  14.711  0.0403  0.1200 -0.1225
 3580W        W21784   2.876  11.480   1.646  0.0608  0.0580 -0.0119
 3581W        W21785  17.606  14.173  14.306 -0.0942 -0.1736  0.2380
 3582W        W21786  16.713  10.446   0.343 -0.0997 -0.0098 -0.1853
 3583W        W21787  12.765  17.160   4.437  0.1606 -0.0703  0.0932
 3584W        W21788   4.212  10.080   3.682  0.0610  0.1929 -0.1796
 3585W        W21789  12.986   5.171  13.397  0.0427  0.3488  0.0497
 3586W        W21790  10.154  14.835   2.413 -0.0461  0.0247  0.1355
 3587W        W21791   9.589   0.567   1.961 -0.0546  0.2298 -0.2783
 3588W        W21792   3.426   4.012  14.593 -0.1618  0.0001 -0.0290
 3589W        W21793  14.236  18.037   4.556  0.2113 -0.2771 -0.2222
 3590W        W21794   8.973   9.849  15.205  0.4149 -0.1488 -0.1713
 3591W        W21795   2.969   1.110   2.478  0.1869 -0.1376 -0.2355
 3592W        W21796   1.031   9.067  10.701 -0.3214 -0.1694 -0.0500
 3593W        W21797   2.105  13.819   2.800 -0.0661  0.1490 -0.1732
 3594W        W21798   5.644   6.015   2.314 -0.0280 -0.1064  0.2576
 3595W        W21799   8.122   5.374   4.942 -0.0015 -0.3365 -0.1777
 3596W        W21800  13.431  15.795   0.456  0.1295 -0.0573 -0.0718
 3597W        W21801  16.879   1.167  14.170 -0.0241  0.0421 -0.0368
 3598W        W21802  14.163  14.133   0.803  0.2113  0.0982  0.0604
 3599W        W21803  10.710  11.534   0.588 -0.0463 -0.0242 -0.1301
 3600W        W21804  11.858  11.321   3.585 -0.1613 -0.0192 -0.1057
 3601W        W21805   4.453   7.802  13.520  0.1867  0.1316 -0.2351
 3602W        W21806  10.920   1.585   3.012 -0.0369  0.0177  0.1086
 3603W        W21807  17.028  12.757   1.006 -0.2412 -0.0681  0.1170
 3604W        W21808  18.377  16.256  11.093  0.0800  0.1268 -0.1853
 3605W        W21809  11.684   5.957  14.031 -0.0971 -0.1047  0.0766
 3606W        W21810  15.409  11.184   4.843 -0.0737 -0.2860  0.1349
 3607W        W21811   9.569  10.188   2.688  0.3080  0.2697 -0.0215
 3608W        W21812  16.186  10.182  14.705  0.0185 -0.1389 -0.0692
 3609W        W21813   8.036  17.697  11.302 -0.1140 -0.3153  0.1584
 3610W        W21814   6.397   7.327   2.817  0.1364  0.2737 -0.0757
 3611W        W21815  13.454  12.873  11.724  0.2291  0.1667 -0.3550
 3612W        W21816   8.195   6.299   2.180  0.1348 -0.1291 -0.1731
 3613W        W21817  16.983   2.306   0.223  0.1069 -0.2462 -0.0147
 3614W        W21818   6.798  18.243  10.260 -0.1256 -0.2230  0.3685
 3615W        W21819  10.986   9.896   4.145  0.1326 -0.1594 -0.1595
 3616W        W21820   2.248  14.378   1.788  0.2812  0.0687 -0.2478
 3617W        W21821  14.634   6.476   1.060  0.1772  0.1488 -0.0452
 3618W        W21822  17.210   0.720   4.620  0.0803  0.2177 -0.2618
 3619W        W21823  11.634  11.206   3.131  0.1221 -0.2845  0.3476
 3620W        W21824   2.984  14.469  14.716  0.3362  0.0262  0.1722
 3621W        W21825   8.732   8.731   1.650 -0.0860 -0.0296 -0.1899
 3622W        W21826  14.456   0.781  13.932  0.1242  0.0061 -0.0661
 3623W        W21827   0.724   6.168   4.362 -0.1266 -0.0856  0.0138
 3624W        W21828  10.117   6.958  15.037 -0.1821 -0.1075 -0.1896
 3625W        W21829   3.599  11.556  11.403 -0.0607 -0.2470 -0.1406
 3626W        W21830   9.429  16.776   2.712 -0.2467 -0.0620  0.1147
 3627W        W21831   5.914   6.456  13.606  0.1545 -0.0610 -0.0144
 3628W        W21832   5.888   2.304   3.289 -0.2736  0.2010 -0.0904
 3629W        W21833  16.343  12.752  11.647  0.1116 -0.0552 -0.0045
 3630W        W21834   0.258   8.900  11.896  0.0378  0.1589 -0.1983
 3631W        W21835  14.964  13.510  15.681 -0.1468  0.1737 -0.1143
 3632W        W21836  12.606   7.166   4.845  0.2579  0.0488  0.1194
 3633W        W21837   3.993  10.649  14.142  0.0625 -0.0261 -0.0342
 3634W        W21838   7.003  10.580  14.451  0.0145  0.0363 -0.0732
 3635W        W21839  16.591  17.439  13.681  0.1755  0.0236 -0.1423
 3636W        W21840  12.593  12.713   0.458 -0.1097 -0.1608  0.1178
 3637W        W21841   7.666  16.062  11.718  0.1547 -0.1153 -0.1169
 3638W        W21842  16.429   9.977   2.025  0.0080 -0.2484  0.2238
 3639W        W21843  17.240   5.896  14.516  0.3291  0.0057 -0.0416
 3640W        W21844   8.776   4.416   3.655  0.3287  0.2548  0.0850
 3641W        W21845   1.468  16.864   5.091  0.1100 -0.0394  0.0616
 3642W        W21846   2.439  14.541   2.360  0.1060 -0.0052  0.0144
 3643W        W21847  12.003   7.649   4.099  0.1796  0.2813  0.0700
 3644W        W21848  11.938   8.279   2.450  0.4374 -0.0736  0.1123
 3645W        W21849  12.579   6.940  11.607  0.0097  0.1491 -0.1534
 3646W        W21850  17.224  16.536  14.504 -0.0059  0.0783  0.0014
 3647W        W21851   9.703  14.962  13.918 -0.1137  0.0351 -0.1846
 3648W        W21852   9.552  13.360   1.959  0.3789 -0.1927  0.0155
 3649W        W21853  13.340   0.926   9.946 -0.1468  0.0455 -0.2538
 3650W        W21854   1.221  10.529  15.088 -0.1819  0.1498 -0.2628
 3651W        W21855  10.248   2.188  11.724  0.0443 -0.2939  0.1132
 3652W        W21856  13.996   5.288   4.040 -0.1384 -0.1696 -0.0832
 3653W        W21857  15.667   9.238   1.321  0.1944 -0.1970 -0.4950
 3654W        W21858  14.579   7.604  15.229 -0.1810 -0.1351  0.1454
 3655W        W21859  13.397   1.708   0.570  0.1714 -0.1573 -0.1522
 3656W        W21860   6.816   9.239   3.579  0.0771  0.0435 -0.0487
 3657W        W21861  17.643  16.480  11.957 -0.1933 -0.0966 -0.1329
 3658W        W21862  14.037  16.958   2.177  0.0609  0.1134 -0.1936
 3659W        W21863  15.146  13.850  11.578 -0.0652 -0.0011 -0.0376
 3660W        W21864  10.435   7.588   1.746 -0.2148 -0.0236  0.0658
 3661W        W21865  17.300  13.229   2.355  0.1700  0.1917 -0.0152
 3662W        W21866   9.096   6.922   4.282  0.0985 -0.3151 -0.1360
 3663W        W21867  15.811   3.858  13.626 -0.0279  0.0428 -0.1683
 3664W        W21868   3.887  11.008   2.541 -0.0327 -0.1364  0.0992
 3665W        W21869  17.030   4.387   4.259  0.0979  0.2303  0.3292
 3666W        W21870  14.292  10.027   1.325  0.0091  0.0433  0.4952
 3667W        W21871   8.065  18.083  14.873 -0.2591  0.1024  0.2388
 3668W        W21872   1.620   5.971   2.060  0.0029  0.3166  0.1139
 3669W        W21873  10.560  12.970  13.009  0.0772 -0.1922 -0.0074
 3670W        W21874   2.227   1.934   5.158 -0.2696 -0.0328  0.0820
 3671W        W21875   9.223   2.981  11.067 -0.1693 -0.0840  0.1203
 3672W        W21876  14.056  10.238  14.673  0.1567 -0.3025 -0.0398
 3673W        W21877   3.186   7.790   5.839 -0.0539  0.0509 -0.2200
 3674W        W21878   4.134  16.317   3.510 -0.0078 -0.0303  0.1237
 3675W        W21879   3.211   6.179  12.686  0.0178 -0.2365  0.0404
 3676W        W21880  17.656   3.789  15.304  0.2389 -0.0691 -0.0034
 3677W        W21881  15.593  13.865   2.236  0.0567 -0.0266 -0.0959
 3678W        W21882  17.109  14.436   0.183  0.0988 -0.0188 -0.0496
 3679W        W21883   6.694   6.403   3.126  0.0041 -0.1117 -0.0035
 3680W        W21884   4.418   0.726  15.533 -0.2637 -0.2591  0.2612
 3681W        W21885   2.453  14.092   4.387 -0.3033  0.5085  0.1318
 3682W        W21886  11.645   4.516   0.229  0.2075 -0.2321 -0.0800
 3683W        W21887  17.831   6.129  11.118  0.1713 -0.0528 -0.0782
 3684W        W21888  12.182  14.982  14.136  0.0353 -0.1485 -0.1232
 3685W        W21889  13.862  11.821   2.691 -0.3566  0.1598  0.0181
 3686W        W21890  16.194  12.336   3.020  0.2514  0.4995  0.0196
 3687W        W21891  14.600  15.015   3.523 -0.1866  0.0106  0.0422
 3688W        W21892  17.548   6.106  12.307 -0.0501 -0.0028 -0.2594
 3689W        W21893  10.013  12.264  14.015  0.3217 -0.0354 -0.2529
 3690W        W21894  15.285  13.269   3.887 -0.0767  0.1764  0.2577
 3691W        W21895   4.355   9.107  14.381 -0.2372  0.0888 -0.0171
 3692W        W21896   8.689  15.935   4.202 -0.0433  0.1169 -0.1015
 3693W        W21897   3.507   6.087   3.271  0.0997  0.1912 -0.0735
 3694W        W21898   1.799  16.577   2.207  0.0258  0.0675  0.2137
 3695W        W21899   7.920   6.613  13.274 -0.1076 -0.1464  0.2663
 3696W        W21900   6.245   1.579   0.575  0.1989 -0.2408 -0.3136
 3697W        W21901   4.537   8.149  15.404 -0.0093  0.3330 -0.0505
 3698W        W21902  11.725  17.507   3.527  0.1592  0.2399 -0.0767
 3699W        W21903  10.739   5.654  13.941 -0.0945  0.0694 -0.3434
 3700W        W21904   9.855  17.342  14.603 -0.6365  0.2320  0.4656
 3701W        W21905   7.862   9.326   4.962 -0.0509  0.1193 -0.1137
 3702W        W21906   7.304  12.132   2.827  0.5184 -0.1053  0.2219
 3703W        W21907   7.638   0.338   3.699 -0.1297 -0.0341  0.0327
 3704W        W21908   8.565   0.227   2.800  0.0139 -0.0099  0.3542
 3705W        W21909  11.786   1.790   4.257 -0.2325  0.2338 -0.2027
 3706W        W21910  15.861  13.730  12.503  0.2032 -0.1058 -0.2611
 3707W        W21911   0.258   3.980  12.286  0.2262  0.1752  0.0634
 3708W        W21912  14.244   5.833  12.737  0.2051 -0.0004  0.3066
 3709W        W21913   8.047  13.140  13.950 -0.0938  0.1085  0.1860
 3710W        W21914   0.518   2.468   1.742 -0.1242 -0.0315 -0.1301
 3711W        W21915   4.343   9.003   0.972  0.4577  0.4072  0.0647
 3712W        W21916   2.073  10.215  10.048 -0.0300  0.1407 -0.2690
 3713W        W21917  18.048  12.388  14.474  0.3024 -0.2004 -0.0006
 3714W        W21918  14.410  15.975   3.860 -0.0852 -0.0498  0.0439
 3715W        W21919   2.336  14.585  14.963 -0.2934 -0.0570  0.1852
 3716W        W21920  18.143  12.998  13.344  0.2455  0.0046  0.0660
 3717W        W21921   4.789  13.081   3.675  0.0666  0.0258 -0.0978
 3718W        W21922   2.541   7.488  13.069  0.3743 -0.0489  0.1648
 3719W        W21923  15.493   0.254  10.441 -0.1887  0.2404 -0.0556
 3720W        W21924   2.798   4.971   0.093  0.0688  0.0630  0.0901
 3721W        W21925   7.231  13.360   1.821 -0.0155 -0.0042 -0.0791
 3722W        W21926   2.818  10.576   3.133 -0.0164 -0.1107  0.0668
 3723W        W21927  15.873   8.059  15.517 -0.0926 -0.2250  0.0592
 3724W        W21928   5.651   7.941   2.753  0.2300  0.0184  0.1202
 3725W        W21929   7.239   2.253  15.524  0.3226  0.1094 -0.1030
 3726W        W21930   1.617  13.461   0.572  0.1398 -0.2498  0.0016
 3727W        W21931  11.264  12.772  15.080  0.0988  0.0385 -0.0480
 3728W        W21932  15.360   8.433   0.446 -0.2731  0.2326 -0.2776
 3729W        W21933   5.738   5.681  12.045 -0.2466 -0.3637  0.2078
 3730W        W21934   5.511   0.401   1.003 -0.1494 -0.2888 -0.2476
 3731W        W21935  14.451  12.896  11.363 -0.0423  0.2623  0.1347
 3732W        W21936   0.778  13.201  13.899 -0.0218  0.0817 -0.2389
 3733W        W21937   0.573   7.088  13.855  0.4663 -0.1080 -0.2960
 3734W        W21938   1.894  13.343  13.818  0.0205 -0.0044 -0.0403
 3735W        W21939   1.506   8.657   3.309  0.0244 -0.1729  0.3982
 3736W        W21940   8.183  14.815   2.247 -0.0380 -0.0652  0.1290
 3737W        W21941   9.866   9.978  14.408 -0.0735  0.0621  0.0755
 3738W        W21942   0.414   2.360  12.323 -0.2333  0.0259  0.3053
 3739W        W21943   1.089   7.188  15.511 -0.1296  0.2587 -0.0365
 3740W        W21944  12.923   6.532   4.860  0.2272 -0.0059 -0.2129
 3741W        W21945   9.006  16.188  11.052  0.4571 -0.1454 -0.2285
 3742W        W21946   3.743   4.674   2.424  0.2741  0.0203  0.3270
 3743W        W21947  11.702   8.136  15.053  0.2365  0.0249 -0.0073
 3744W        W21948  12.647   0.271  12.623  0.1661  0.3824  0.0437
 3745W        W21949  14.369  13.996  14.104 -0.1193  0.2302  0.1849
 3746W        W21950  14.301   9.820   1.741 -0.1053  0.0813  0.0359
 3747W        W21951   6.838  11.594   1.703  0.0674  0.0518  0.3963
 3748W        W21952   2.676   5.647   4.769  0.1557  0.0624 -0.1409
 3749W        W21953  15.082  16.605  12.760  0.2947 -0.3461  0.0388
 3750W        W21954  14.511   7.607  12.342  0.1342  0.0744 -0.1915
 3751W        W21955  16.577  14.111  14.547  0.2394 -0.1712  0.0018
 3752W        W21956   9.809  14.667  11.733  0.3350  0.0841 -0.0598
 3753W        W21957  16.584   9.342   0.887 -0.0564 -0.0648 -0.2966
 3754W        W21958   3.726  14.860  11.345 -0.0417 -0.1679 -0.2751
 3755W        W21959   3.896   4.120   4.212  0.1368 -0.1650 -0.1044
 3756W        W21960   5.643  11.399   0.587  0.0065  0.0578 -0.1125
 3757W        W21961  12.581  10.881   4.815 -0.2223  0.0747  0.2995
 3758W        W21962   7.364  11.580   4.533  0.1570 -0.0356  0.2448
 3759W        W21963  14.398  11.466  15.033  0.0485  0.1756 -0.2704
 3760W        W21964  16.727   9.614   0.084 -0.0737 -0.1696 -0.1003
 3761W        W21965   0.410   8.775   1.154  0.1276  0.0091 -0.0870
 3762W        W21966  11.967   4.022  13.453 -0.0564 -0.0093 -0.1627
 3763W        W21967   1.395  11.210  13.887  0.1523 -0.1146  0.1502
 3764W        W21968  14.109   9.728  13.943 -0.0150  0.2770 -0.3879
 3765W        W21969   2.051  12.540  10.844  0.1298  0.0538 -0.1766
 3766W        W21970  11.395   0.579   2.013  0.1791  0.1619  0.4708
 3767W        W21971   6.601   6.434   0.525 -0.1399  0.1333 -0.1051
 3768W        W21972  14.095   6.346   3.572 -0.1429  0.0945 -0.0182
 3769W        W21973  17.015   2.049   2.879  0.1278 -0.1056 -0.1922
 3770W        W21974   1.192   3.939  14.718 -0.0237 -0.0290 -0.0716
 3771W        W21975  11.587   8.134   4.362 -0.0474 -0.0202 -0.1024
 3772W        W21976   2.273   8.179   3.994 -0.3438  0.1284  0.1566
 3773W        W21977  14.869  14.454   2.599 -0.0904  0.0490 -0.0707
 3774W        W21978   1.736   3.329   3.398 -0.1938 -0.2097  0.2151
 3775W        W21979   6.962  18.088   1.964 -0.0282  0.2337 -0.1102
 3776W        W21980  13.239   6.849   0.075  0.1454 -0.3064  0.1061
 3777W        W21981   9.960   8.795  12.125 -0.0709 -0.0117  0.2079
 3778W        W21982  10.411   2.847   4.026  0.0212 -0.0042 -0.3436
 3779W        W21983   2.372   1.360  12.367  0.0312 -0.0061 -0.0136
 3780W        W21984   1.560  13.165  14.345 -0.1531 -0.3194 -0.0288
 3781W        W21985   2.237   5.440  15.264 -0.2402  0.1363  0.0250
 3782W        W21986  12.312   9.770  11.169  0.0786 -0.0926 -0.0303
 3783W        W21987  11.346   0.003   1.679  0.2107 -0.0153  0.0275
 3784W        W21988   6.922   3.864  14.195 -0.0677 -0.0514  0.1657
 3785W        W21989  15.397  15.828   4.214 -0.0859  0.1572 -0.0016
 3786W        W21990   1.596   7.644   4.266  0.0598 -0.0222  0.0374
 3787W        W21991   6.429   0.137  12.086  0.0935 -0.3841  0.1508
 3788W        W21992   8.021   8.746  12.309 -0.4638  0.0445  0.0537
 3789W        W21993  11.137   5.395  11.044  0.2600  0.0781 -0.0224
 3790W        W21994  15.503  14.547   3.927  0.0551 -0.0928  0.0290
 3791W        W21995   2.193   6.881   4.350 -0.0209  0.0654 -0.1804
 3792W        W21996   8.483  14.074  10.454  0.1247 -0.0897  0.1388
 3793W        W21997  10.004  14.671   0.605  0.0597 -0.3417  0.1627
 3794W        W21998   6.690  10.448   5.362  0.0583 -0.0660 -0.0355
 3795W        W21999  14.314   2.370  12.555  0.2290  0.1579  0.1431
 3796W        W22000   9.782   1.849   1.623 -0.1618  0.2132 -0.0583
 3797W        W22001  14.074  16.462   3.786 -0.0062  0.2546 -0.0267
 3798W        W22002   2.789  17.120   3.285  0.0769  0.2802 -0.1207
 3799W        W22003   7.234  14.531  15.586 -0.1556 -0.1610 -0.0087
 3800W        W22004  16.705  16.499   0.624  0.1909  0.0618  0.0669
 3801W        W22005   0.366  18.127  14.260 -0.2743 -0.0120 -0.0426
 3802W        W22006  16.006   5.717   1.766  0.0203 -0.2598 -0.1168
 3803W        W22007  15.261   0.953  13.848  0.1315 -0.2129  0.2507
 3804W        W22008  12.586   6.615  10.780  0.1190 -0.4062  0.0226
 3805W        W22009   8.070   4.665   2.965  0.0212 -0.1953 -0.0597
 3806W        W22010  14.314   6.394  14.090 -0.0711  0.2116 -0.1988
 3807W        W22011   8.302  12.534   1.893 -0.1262 -0.0763  0.2015
 3808W        W22012  18.309   8.690  15.058 -0.0047  0.0355 -0.1945
 3809W        W22013   7.343  17.118  14.235 -0.0292  0.1297  0.1538
 3810W        W22014   6.154   5.005   3.924 -0.0778  0.0418 -0.2770
 3811W        W22015   6.222  16.150  12.183 -0.2682  0.0159 -0.1415
 3812W        W22016   7.793  10.203   1.790 -0.1387 -0.0297 -0.1844
 3813W        W22017  15.335   5.924   0.510  0.1113 -0.0567 -0.0144
 3814W        W22018   2.751  16.625   3.536 -0.2419  0.0786 -0.1918
 3815W        W22019   5.682   2.728   2.669 -0.2186  0.1284 -0.0933
 3816W        W22020   7.143   3.078  12.800 -0.0964 -0.2528  0.3052
 3817W        W22021  17.351  16.537  13.261 -0.0685 -0.0461 -0.1341
 3818W        W22022  16.557   3.947  12.860  0.0831  0.0557  0.0847
 3819W        W22023  15.352  11.022  13.107 -0.1350 -0.4272  0.0897
 3820W        W22024   7.893  13.265   1.305 -0.1842  0.0663 -0.0359
 3821W        W22025  16.033  12.712   1.348  0.2108 -0.0434  0.0023
 3822W        W22026   9.099  15.034   3.946 -0.1374  0.2910  0.1195
 3823W        W22027  11.978   1.216  11.278 -0.2158 -0.0709  0.2556
 3824W        W22028   6.848  10.049  14.515  0.0377 -0.4338 -0.2262
 3825W        W22029  11.977   2.642  12.289 -0.1237 -0.0835  0.1972
 3826W        W22030   7.899   2.464  11.198  0.1123 -0.0648 -0.3310
 3827W        W22031   0.274   5.484  14.298 -0.2715  0.3440 -0.2642
 3828W        W22032   9.118   6.615  13.246 -0.2705  0.1882 -0.1187
 3829W        W22033   5.016   5.487  11.058 -0.0404 -0.0746  0.0070
 3830W        W22034  16.936   8.087   2.746 -0.4707  0.1810 -0.1431
 3831W        W22035   9.556  10.775  11.858 -0.1626 -0.0817 -0.0396
 3832W        W22036   0.365  17.800  13.546  0.0160 -0.3674  0.2068
 3833W        W22037  10.256   3.786   2.333 -0.2353  0.2972 -0.3614
 3834W        W22038   7.624  13.067   1.811 -0.3629 -0.0624  0.1804
 3835W        W22039   0.536   9.043   4.764  0.0583  0.1733  0.0069
 3836W        W22040  10.818   7.702  12.566  0.0150  0.2894  0.1261
 3837W        W22041  16.559  18.350  11.628  0.0408  0.2821 -0.0287
 3838W        W22042   8.096  13.857   4.887 -0.0076 -0.2010 -0.1004
 3839W        W22043   2.306   3.439  13.845 -0.1933 -0.1554  0.0993
 3840W        W22044   8.308  16.330  14.011  0.2806  0.2400 -0.0024
 3841W        W22045   6.629   9.829  14.101  0.1084  0.1628 -0.1881
 3842W        W22046  13.401  18.129  15.020  0.0231  0.1310  0.3962
 3843W        W22047  12.984  10.554   2.816 -0.0140  0.1355  0.0163
 3844W        W22048  11.307   3.144   0.427 -0.0985  0.2884  0.3802
 3845W        W22049   1.386   5.112   3.349  0.0683  0.0663  0.1130
 3846W        W22050  12.918   7.832   2.593  0.1109  0.1543  0.1482
 3847W        W22051   0.177   2.112   0.663  0.2016 -0.1755 -0.4400
 3848W        W22052  16.818  12.221   3.631  0.4018 -0.4519  0.1481
 3849W        W22053  16.608  16.057  13.689 -0.1210 -0.1972 -0.2910
 3850W        W22054  13.118   8.738   4.397 -0.0751 -0.1041 -0.0460
 3851W        W22055  12.301   9.988   2.893 -0.0693 -0.0002  0.5176
 3852W        W22056   9.705   2.027  14.695 -0.1430  0.3597 -0.1565
 3853W        W22057  11.583   1.736  12.244  0.0329  0.1769 -0.2168
 3854W        W22058  12.030   4.579   3.107  0.0136 -0.0185 -0.1268
 3855W        W22059  14.875   4.440   2.571 -0.2333  0.3650 -0.0657
 3856W        W22060  12.910  18.223  13.179 -0.2384 -0.0125  0.2350
 3857W        W22061  10.490   1.629  13.551 -0.0129 -0.1490 -0.0150
 3858W        W22062   5.821   5.090  12.071  0.0442  0.1918  0.0957
 3859W        W22063   0.963  13.836   4.493 -0.1315 -0.1669 -0.1161
 3860W        W22064   0.740   0.599  15.119  0.0497 -0.1217  0.3229
 3861W        W22065   4.174  11.141  12.407  0.1582  0.2623 -0.2357
 3862W        W22066  11.123   7.072  10.525  0.1290 -0.2881  0.0198
 3863W        W22067   1.160  12.408  12.440  0.0737 -0.1755  0.0091
 3864W        W22068   5.937  12.500   0.425 -0.2760 -0.1541  0.2772
 3865W        W22069  10.225   0.478   2.530 -0.0467 -0.0993 -0.1762
 3866W        W22070  16.529  15.944   0.556  0.3811 -0.3806  0.1401
 3867W        W22071  11.193   1.018  13.937 -0.1973 -0.2008 -0.2656
 3868W        W22072   6.173   5.140   0.249 -0.1525 -0.1122  0.2185
 3869W        W22073  10.716  15.501   2.409 -0.3245 -0.0341 -0.2352
 3870W        W22074  15.493  14.168  13.758  0.2741  0.1859 -0.2992
 3871W        W22075  15.078  17.441   4.731 -0.1531 -0.1298  0.1060
 3872W        W22076   1.268  14.687  11.669 -0.1409 -0.1080 -0.1058
 3873W        W22077   2.486   7.786   2.126 -0.0599 -0.3301  0.2705
 3874W        W22078  11.365  11.669   4.799 -0.2571  0.0139 -0.1081
 3875W        W22079   6.678   7.722  11.182  0.3204  0.1215  0.1108
 3876W        W22080  17.498  11.307  13.261  0.0771 -0.0380  0.1096
 3877W        W22081  15.276   3.896  14.295  0.1131 -0.0202  0.0328
 3878W        W22082  17.052   1.864  11.706 -0.1238  0.0267 -0.0339
 3879W        W22083   8.157   8.221   3.797 -0.0903  0.1356  0.0746
 3880W        W22084   3.987   5.752  14.091  0.0102  0.1303 -0.0537
 3881W        W22085   1.731   9.654   3.262  0.2522  0.0703  0.3337
 3882W        W22086   8.404   8.509  12.516 -0.0509 -0.0988  0.1877
 3883W        W22087   4.988   9.961  12.244 -0.1974  0.1199 -0.2459
 3884W        W22088  12.218  11.294  14.462 -0.1511 -0.1135  0.0078
 3885W        W22089  11.236   5.660   3.296  0.0856  0.1523  0.6988
 3886W        W22090  17.845   0.151  15.341  0.1476 -0.0322 -0.1574
 3887W        W22091  13.335  10.695   0.652  0.1054 -0.3855 -0.1170
 3888W        W22092  11.907   3.100  11.449  0.1446  0.1129 -0.1157
 3889W        W22093   3.287   9.935   1.325  0.0616 -0.2727 -0.2011
 3890W        W22094   1.737   6.706  14.716  0.1069 -0.0137  0.1035
 3891W        W22095  10.492   8.334   4.073  0.1008  0.1916  0.1906
 3892W        W22096   1.473  12.956   0.639  0.2568 -0.0250  0.0147
 3893W        W22097  15.779   6.412   1.253  0.0228 -0.4366 -0.1920
 3894W        W22098  13.970   9.460  11.297  0.2378 -0.3888  0.0363
 3895W        W22099  16.889  12.735  14.025 -0.3768 -0.1797  0.2585
 3896W        W22100   7.369  13.274   1.370  0.0027  0.1617  0.3347
 3897W        W22101  11.928  15.375   5.076  0.1805  0.0776  0.0862
 3898W        W22102  15.331   2.395   1.867  0.0043  0.2381  0.0223
 3899W        W22103  18.130   3.113   3.098  0.2878 -0.0017 -0.0309
 3900W        W22104   5.575  17.438   1.230  0.0929  0.1374 -0.0285
 3901W        W22105   4.218  14.538  15.695  0.0349 -0.2722 -0.0955
 3902W        W22106   2.527  17.149  15.446  0.0938 -0.1255 -0.0998
 3903W        W22107  13.941  13.348  15.326  0.3028  0.3507 -0.0002
 3904W        W22108  14.123  16.740  14.332 -0.1092 -0.0525 -0.0126
 3905W        W22109   7.384   2.027  11.601  0.3907 -0.2016  0.2975
 3906W        W22110   8.224  11.790   2.904 -0.1619  0.1254 -0.2453
 3907W        W22111  11.637   2.616  14.216 -0.1662  0.0733  0.3233
 3908W        W22112   0.685   1.845  13.427 -0.1106 -0.2738  0.1528
 3909W        W22113  13.702  11.394   1.204 -0.2950  0.1975  0.0368
 3910W        W22114   1.856   0.607   4.333  0.1845 -0.0374  0.0164
 3911W        W22115   4.666  16.510  12.661 -0.2173 -0.1827 -0.0434
 3912W        W22116  17.431   6.937   0.514  0.0497 -0.0475  0.0633
 3913W        W22117  14.544   4.841   1.212 -0.1089 -0.0998 -0.1522
 3914W        W22118  11.298   0.178  13.439 -0.0484  0.1408  0.2510
 3915W        W22119  14.133   0.321  15.396 -0.2771 -0.0968  0.2676
 3916W        W22120   5.637  12.291   4.623  0.0996  0.1843 -0.1213
 3917W        W22121  10.440   9.537   5.199 -0.0874  0.0035 -0.3556
 3918W        W22122   3.693  14.014  15.236  0.0211  0.0060  0.0434
 3919W        W22123  13.309   3.852  14.259  0.1633 -0.1034  0.1138
 3920W        W22124  10.414  12.264   0.985 -0.1009 -0.1092 -0.1474
 3921W        W22125   7.728   2.169  10.719 -0.0614  0.0709 -0.3406
 3922W        W22126  17.583  18.305   2.553  0.2966  0.0663  0.0193
 3923W        W22127  11.418   8.682   1.699 -0.0726 -0.0599  0.1084
 3924W        W22128  11.338  14.501  13.205  0.1196 -0.0749 -0.1476
 3925W        W22129  13.468  10.679   1.874 -0.0509  0.2838 -0.1604
 3926W        W22130  10.817   9.289   1.986 -0.0482  0.0354 -0.0580
 3927W        W22131  13.099   0.379  12.149  0.0561 -0.0845  0.1394
 3928W        W22132   4.190  13.561   2.027  0.3140  0.0618 -0.2690
 3929W        W22133   3.285   1.508  15.204  0.1323  0.1987 -0.1750
 3930W        W22134  16.597   4.036   4.687  0.0744  0.1603 -0.3492
 3931W        W22135   3.293   8.025   3.782 -0.0671  0.2586 -0.3193
 3932W        W22136  16.461  11.440  12.951  0.0454 -0.0242 -0.1401
 3933W        W22137   5.134  15.094   3.663  0.0577 -0.1887 -0.0199
 3934W        W22138   1.422  11.654   1.799  0.0227 -0.2678 -0.0270
 3935W        W22139  13.696  16.342   2.650  0.2652  0.0353  0.0094
 3936W        W22140  17.960   5.366  13.493 -0.4378  0.2760 -0.1519
 3937W        W22141   7.900   3.647  14.138 -0.0261  0.0424 -0.3781
 3938W        W22142   0.924  12.325  11.067 -0.0889  0.2421 -0.0638
 3939W        W22143   5.209   4.960   1.353  0.1386 -0.2016 -0.1576
 3940W        W22144   3.108  16.903   2.462 -0.1908  0.0315 -0.0212
 3941W        W22145   6.191   2.208  13.200 -0.1471  0.1713 -0.1454
 3942W        W22146  17.294   3.571  11.235 -0.0241 -0.1325  0.2196
 3943W        W22147   1.628   1.917  13.154 -0.1301  0.0978  0.0420
 3944W        W22148   5.512  14.582   3.008 -0.1666 -0.1178 -0.1719
 3945W        W22149   2.152  17.860   2.240 -0.0849  0.0414  0.1432
 3946W        W22150  17.804   4.057   4.016  0.3107  0.2463 -0.1856
 3947W        W22151  13.247  14.568   4.816  0.1792 -0.0794 -0.1114
 3948W        W22152   4.779  11.466   2.034  0.2263 -0.1080 -0.0134
 3949W        W22153  16.288  13.545  14.827 -0.3135  0.0025  0.0817
 3950W        W22154   5.926  13.177  15.669  0.0171 -0.1291  0.0045
 3951W        W22155   0.607   0.633   3.745 -0.0655 -0.3194  0.0796
 3952W        W22156   6.998   0.118  12.407 -0.0328 -0.2365 -0.1362
 3953W        W22157   4.905   6.139  11.897  0.0043 -0.1159 -0.1791
 3954W        W22158  15.419   0.420   2.287 -0.0522 -0.1536 -0.1422
 3955W        W22159   7.350   0.735   0.582  0.3397 -0.0109 -0.0021
 3956W        W22160  16.716   8.178   0.178  0.1220  0.1411 -0.1646
 3957W        W22161   7.319   3.472  11.896 -0.0034 -0.0335 -0.0071
 3958W        W22162  10.488   0.647   4.914 -0.1100  0.1152 -0.1656
 3959W        W22163   7.200  13.744   1.511 -0.1474  0.0160 -0.0564
 3960W        W22164   4.614   2.270  15.134 -0.2394 -0.0484 -0.1339
 3961W        W22165  16.970  16.978  15.508  0.2032  0.2716 -0.1387
 3962W        W22166  10.317   1.735   2.762 -0.1252  0.3546 -0.1138
 3963W        W22167  18.311   2.525  13.503  0.0560  0.1881  0.2853
 3964W        W22168  18.320  12.923   2.336  0.1909 -0.0553 -0.3374
 3965W        W22169   5.032  18.220   0.632 -0.2565  0.1821  0.0126
 3966W        W22170   7.224  18.094   4.868  0.1585 -0.0626  0.1038
 3967W        W22171   8.169  12.738   2.555  0.3573 -0.1943 -0.1375
 3968W        W22172   8.425   3.333   3.095 -0.1087 -0.1030 -0.1277
 3969W        W22173   8.888   4.951   5.666 -0.1520  0.1381 -0.0840
 3970W        W22174  17.460   0.982   1.684 -0.2794 -0.1064  0.2789
 3971W        W22175  10.168  14.409  12.958 -0.1676 -0.0338 -0.2778
 3972W        W22176  11.428   5.738  14.493 -0.2514 -0.1082  0.0217
 3973W        W22177  11.195   4.994  14.517  0.1413 -0.2380  0.1306
 3974W        W22178  17.353  10.033   0.951 -0.0495 -0.2649  0.0397
 3975W        W22179   5.801  12.171  14.465  0.0933  0.1633 -0.0030
 3976W        W22180  18.267  17.472   4.469 -0.0415 -0.0724 -0.1816
 3977W        W22181  16.740   5.684  14.603 -0.0846 -0.3660  0.1164
 3978W        W22182  16.780  17.154  14.785  0.0143  0.2329 -0.0343
 3979W        W22183   9.082  11.413   2.673 -0.1645 -0.0535  0.1331
 3980W        W22184   7.200   9.190   0.104 -0.0358 -0.2292  0.0269
 3981W        W22185   5.960   0.547   4.049 -0.0098 -0.1915 -0.0780
 3982W        W22186  18.304   4.474  13.858 -0.2169 -0.0204 -0.0403
 3983W        W22187  15.088  14.760   1.503 -0.4140 -0.0086 -0.0488
 3984W        W22188  15.933   8.488  14.353  0.1743  0.0763  0.0336
 3985W        W22189  11.236   6.018   2.511  0.0089  0.0555  0.2671
 3986W        W22190  17.411  13.992  13.525 -0.1744  0.0744 -0.2053
 3987W        W22191   1.338   1.009  13.501  0.0218  0.3309  0.3409
 3988W        W22192  11.756   7.993  12.821 -0.1720 -0.1626  0.0607
 3989W        W22193  18.199   3.907   2.137  0.1184 -0.0394 -0.1957
 3990W        W22194   2.394  14.684  13.271 -0.1040 -0.0413 -0.0784
 3991W        W22195   5.859   1.988   2.894  0.0202 -0.2116 -0.0508
 3992W        W22196  18.379  15.204   0.948  0.0336  0.1064 -0.2259
 3993W        W22197   2.656   3.287  13.464  0.0300  0.0262  0.0650
 3994W        W22198  14.448   9.911  15.080 -0.3350 -0.0318  0.0402
 3995W        W22199  18.017   4.443  10.755  0.0577  0.0631  0.1833
 3996W        W22200  14.686  11.794  13.455  0.0983 -0.0125 -0.1331
 3997W        W22201  15.101  16.770  14.932  0.0805 -0.2634 -0.0282
 3998W        W22202   5.050   4.472   2.206 -0.1457  0.1330  0.0782
 3999W        W22203  16.616   3.519   4.335  0.2169 -0.0901  0.0882
 4000W        W22204  13.611   3.392  11.970 -0.2313  0.2768  0.0872
 4001W        W22205   4.328   9.524   0.887  0.4286 -0.2133 -0.0398
 4002W        W22206  15.707   2.241   1.416  0.0601 -0.0589  0.0854
 4003W        W22207   2.372   6.157  13.019 -0.0367 -0.2292 -0.2796
 4004W        W22208  16.039   4.833  11.660 -0.1873 -0.2287 -0.3696
 4005W        W22209   8.718  15.724   1.994  0.0715  0.0557  0.3369
 4006W        W22210   5.028   9.761   2.738 -0.0924 -0.0904  0.0542
 4007W        W22211  15.919  17.935   2.658 -0.1544 -0.1932  0.0130
 4008W        W22212   9.312  17.209  13.819  0.0617  0.1248 -0.2323
 4009W        W22213  18.303  14.187  13.788 -0.2271 -0.1988  0.3573
 4010W        W22214  15.827  13.541   0.365  0.1110 -0.2752  0.0123
 4011W        W22215  14.303   7.886   2.555  0.1864  0.0857  0.0373
 4012W        W22216  16.594   7.264   2.704  0.0626  0.1484 -0.1342
 4013W        W22217   0.960   1.549  11.817  0.2201  0.1342  0.1760
 4014W        W22218   0.598  12.501   4.104 -0.1860  0.3920  0.0042
 4015W        W22219   0.841   4.253   0.674  0.0281 -0.3854 -0.1264
 4016W        W22220  16.661  17.430  10.091  0.3273 -0.0241 -0.0023
 4017W        W22221   0.122  11.164   1.601  0.0807  0.1705  0.2773
 4018W        W22222  15.004   4.011   4.913  0.1063 -0.0691 -0.1621
 4019W        W22223   3.008   3.108   0.433 -0.0236 -0.2394 -0.0198
 4020W        W22224  13.522   1.461  12.947 -0.1783  0.1684 -0.0301
 4021W        W22225  15.818  15.579  15.299 -0.0493  0.1339 -0.0341
 4022W        W22226   6.886  17.325  14.024 -0.0086 -0.1724 -0.0080
 4023W        W22227  10.809  17.304   2.550 -0.1333  0.0961 -0.4201
 4024W        W22228   0.401   6.619   2.067 -0.0279  0.0277 -0.1510
 4025W        W22229   6.580  15.628  13.593 -0.0243  0.0996  0.1330
 4026W        W22230   0.644  17.093   3.146  0.0074  0.0810 -0.1460
 4027W        W22231   8.863   3.703  11.881 -0.0182 -0.0383 -0.2168
 4028W        W22232  13.348  10.663  11.608 -0.1323  0.1912  0.1471
 4029W        W22233   2.991   4.920   4.455 -0.0989  0.1419 -0.0215
 4030W        W22234  10.667  10.618  14.708 -0.2225 -0.1526 -0.0649
 4031W        W22235   0.569  13.548  15.429 -0.2946  0.1701  0.0989
 4032W        W22236   6.981   2.528   0.732 -0.1416 -0.0630 -0.4007
 4033W        W22237  13.751   3.930   1.865  0.3210 -0.0821 -0.1629
 4034W        W22238  14.730   3.610   2.924 -0.2255  0.2667  0.0770
 4035W        W22239   7.539   1.371  13.360  0.0279 -0.0650  0.3996
 4036W        W22240   3.251  10.015   3.900  0.2429 -0.5391  0.1108
 4037W        W22241  13.023   1.615   3.619  0.1321 -0.0369 -0.1484
 4038W        W22242  18.178   8.337   4.757  0.2438 -0.1317  0.4838
 4039W        W22243  18.127  16.449  15.136 -0.0446 -0.6912 -0.2185
 4040W        W22244   8.315  14.880   1.237  0.2878 -0.0735  0.0052
 4041W        W22245  16.547  13.963  11.639  0.0598  0.0053  0.0054
 4042W        W22246   9.746  10.692   1.695  0.1681 -0.1896 -0.1650
 4043W        W22247   0.757  11.641  11.780 -0.0444  0.0199 -0.5367
 4044W        W22248  13.079  17.445   2.285  0.3260 -0.0557 -0.1082
 4045W        W22249  16.740   4.892  13.207 -0.0074  0.0318 -0.2960
 4046W        W22250   1.280   1.172   1.420 -0.0807  0.0678  0.0928
 4047W        W22251   3.600   1.597  13.020 -0.2286  0.0625 -0.0238
 4048W        W22252   5.855   4.424   3.108  0.6445 -0.1585 -0.2916
 4049W        W22253  11.180  15.386   2.250 -0.0120 -0.1019  0.1471
 4050W        W22254   0.085  17.392  13.698  0.0564 -0.1046 -0.1480
 4051W        W22255  14.146  12.405  12.260  0.0071  0.2860  0.2187
 4052W        W22256  11.530  18.009   1.929 -0.2434  0.2482  0.1869
 4053W        W22257  17.769  13.034   4.313 -0.0185  0.1206  0.0306
 4054W        W22258  13.013   7.035  10.552 -0.2110  0.0679  0.0283
 4055W        W22259  15.047   0.297  11.229  0.0062 -0.1524 -0.2280
 4056W        W22260  17.644  17.332   2.985 -0.1216  0.0503 -0.4214
 4057W        W22261  16.531  13.467  15.291 -0.1293  0.2407  0.0728
 4058W        W22262   7.263  15.620   1.289 -0.0402 -0.0836 -0.2078
 4059W        W22263   6.983   2.059  11.286 -0.1704 -0.1534  0.3785
 4060W        W22264  12.923  16.585   0.511 -0.1801 -0.1658 -0.0988
 4061W        W22265  12.358   0.772  11.078  0.0468  0.0288 -0.0262
 4062W        W22266   5.397   4.930   2.293 -0.2621  0.0423  0.0568
 4063W        W22267  14.261  11.046  12.004  0.1513  0.0970 -0.0271
 4064W        W22268   6.780  14.150  10.049  0.1134  0.0852  0.2597
 4065W        W22269  14.954  15.195  13.910  0.3519 -0.2094  0.1392
 4066W        W22270   4.498   0.228   3.920 -0.1137  0.0018  0.1191
 4067W        W22271  11.281  17.975   4.300  0.3210  0.2251 -0.0646
 4068W        W22272   8.513  12.834   0.737 -0.2328 -0.0541  0.0406
 4069W        W22273   4.010   0.309  12.375 -0.2069  0.1797 -0.0130
 4070W        W22274   5.522  17.345   4.517  0.1799  0.1543 -0.1571
 4071W        W22275   3.253  13.365  11.835 -0.2531 -0.0663 -0.2691
 4072W        W22276   4.555   3.009   1.026  0.0159 -0.1076  0.0421
 4073W        W22277   5.944   0.177  11.054 -0.0834  0.0332 -0.1956
 4074W        W22278   7.179  12.462  11.692 -0.0478  0.0033 -0.0528
 4075W        W22279   5.178   2.990  14.696 -0.1176  0.3472 -0.3975
 4076W        W22280   2.686   5.803  15.111 -0.0748  0.0599 -0.1331
 4077W        W22281  13.653  17.176   1.378  0.0460 -0.1556  0.4283
 4078W        W22282   2.272   9.507  14.382  0.2961  0.0354 -0.1565
 4079W        W22283  13.432   9.915   4.143 -0.1930 -0.2619  0.2981
 4080W        W22284   9.516  18.129   4.411  0.3389  0.0134  0.1918
 4081W        W22285  14.466   3.453   4.517  0.1414 -0.0521  0.3518
 4082W        W22286   6.821  16.307  14.333 -0.1206 -0.2707 -0.0164
 4083W        W22287   6.472  14.008  13.193  0.0784  0.2074  0.2809
 4084W        W22288  14.577   6.617   3.726 -0.0697  0.1893  0.0379
 4085W        W22289  16.386   1.485   1.973  0.2422 -0.4335 -0.2731
 4086W        W22290   4.342   2.966  13.186 -0.2056 -0.4336 -0.2718
 4087W        W22291  14.566   7.346   1.480 -0.0051  0.0435  0.0668
 4088W        W22292  14.940  12.051   1.888  0.0646 -0.0426  0.0073
 4089W        W22293  18.302  18.093  12.854  0.0195 -0.2070 -0.1405
 4090W        W22294  15.346   9.385   3.954 -0.2690 -0.0302 -0.2373
 4091W        W22295  14.553  14.000  14.743  0.1284  0.3443  0.0117
 4092W        W22296  16.337   0.455  11.160 -0.1334 -0.0889  0.0077
 4093W        W22297   7.796   0.653  12.844  0.1818 -0.1916 -0.0282
 4094W        W22298  11.924   1.477   0.354  0.0341  0.3090  0.1414
 4095W        W22299  10.710  12.850   0.783  0.0929  0.2982  0.1740
 4096W        W22300   7.163   6.394  13.044  0.3879  0.2127  0.2494
 4097W        W22301  13.597   5.557   3.845  0.0084 -0.1618 -0.0473
 4098W        W22302   8.681   0.644   0.693 -0.1618  0.1193 -0.0236
 4099W        W22303  12.977  18.000  14.631  0.2457 -0.2225 -0.2279
 4100W        W22304  18.042   4.657   3.881  0.2398 -0.1977 -0.1743
 4101W        W22305   9.572  15.054   0.216  0.1440  0.0339 -0.1755
 4102W        W22306   5.016   4.326  14.020 -0.5220  0.0602  0.3793
 4103W        W22307   8.564  13.703  11.444  0.2214  0.2201  0.1544
 4104W        W22308   2.893   2.049   3.226  0.0872  0.1341 -0.0608
 4105W        W22309   7.911   5.967   3.512 -0.4068 -0.0420  0.2685
 4106W        W22310  13.674   9.389  12.108  0.3280 -0.1568  0.2806
 4107W        W22311   4.625  14.002  14.533  0.1507  0.0720 -0.0934
 4108W        W22312   0.959   4.614   1.677  0.0713  0.0304  0.1446
 4109W        W22313  17.727   0.081   0.238  0.0376  0.1415 -0.0147
 4110W        W22314  14.099   6.071  15.088 -0.1180  0.0277 -0.0185
 4111W        W22315  12.968   0.924  15.221 -0.3101 -0.2744 -0.0362
 4112W        W22316  16.982  11.025   1.308  0.1401  0.4476  0.2154
 4113W        W22317   7.225   5.142  14.020 -0.4283  0.1139 -0.1675
 4114W        W22318  13.933  15.068   3.846  0.1111 -0.0321 -0.1536
 4115W        W22319  13.604  16.624  11.318 -0.2240  0.0055  0.0453
 4116W        W22320  12.492   5.739   4.247 -0.2424  0.0492  0.3184
 4117W        W22321   7.750   1.388   1.827 -0.0256  0.0138  0.3080
 4118W        W22322  16.930   5.187  11.566  0.1091  0.0840  0.0476
 4119W        W22323  16.552  16.752   2.005 -0.2684 -0.2555  0.3331
 4120W        W22324  14.136   2.397   1.095 -0.0113 -0.2019  0.0307
 4121W        W22325   9.790   6.400  14.979  0.0849  0.2887  0.2528
 4122W        W22326  10.614   9.825   0.134 -0.1185  0.3829  0.0219
 4123W        W22327   0.202  14.816  14.170 -0.0230 -0.0600  0.1892
 4124W        W22328   5.526  16.531   0.799  0.0957 -0.0392  0.0278
 4125W        W22329   8.117   4.867   1.544  0.2331  0.2235  0.0593
 4126W        W22330  11.186  12.689  11.144 -0.0094 -0.2125  0.1687
 4127W        W22331   0.648   2.133   3.984  0.1642  0.1850  0.0131
 4128W        W22332   0.882  15.596  13.336  0.2015  0.3037  0.2693
 4129W        W22333   6.000   3.840   0.190 -0.1800  0.0677  0.4743
 4130W        W22334   8.611   7.898  12.100 -0.0550 -0.1207  0.2749
 4131W        W22335  16.340  16.857   2.456 -0.3154 -0.0697 -0.0290
 4132W        W22336  16.198   6.742   1.578 -0.0294  0.1529 -0.2276
 4133W        W22337   6.359   9.302   5.532 -0.0577 -0.1422  0.1664
 4134W        W22338   6.903   6.312  15.046  0.1753 -0.1201 -0.3169
 4135W        W22339  12.640   6.909   0.970 -0.0118 -0.3584 -0.0301
 4136W        W22340   5.625   4.053   0.447  0.1835 -0.3452  0.1631
 4137W        W22341  15.299  10.777  11.135 -0.0869  0.0894 -0.2388
 4138W        W22342   4.782   1.972   0.888  0.2405 -0.1250  0.1491
 4139W        W22343  16.330   7.649  14.622  0.2069 -0.0902 -0.3258
 4140W        W22344  18.207   7.917   0.456 -0.2598  0.0216  0.1946
 4141W        W22345   6.225   3.782  15.463 -0.1235  0.2550  0.1268
 4142W        W22346   7.135   3.642  12.781 -0.1647  0.2065  0.1332
 4143W        W22347   4.963  10.042   0.135 -0.1833 -0.0232 -0.0441
 4144W        W22348   2.508   3.579  14.274  0.1441 -0.0629  0.2137
 4145W        W22349   2.710  10.317   4.304 -0.0243 -0.0035  0.3499
 4146W        W22350   8.622  15.562  12.775  0.0227 -0.1548 -0.0742
 4147W        W22351   0.103  14.454  15.204 -0.3024 -0.1642  0.1523
 4148W        W22352   4.817   4.565  11.171  0.0763  0.2089  0.0514
 4149W        W22353  12.720  16.012  15.513 -0.1870  0.0571 -0.0859
 4150W        W22354   8.626  13.283  15.372 -0.0244  0.2994  0.2376
 4151W        W22355  17.568   4.919   0.758  0.1376  0.1306 -0.0651
 4152W        W22356   9.646   3.596   1.191 -0.0154  0.1201 -0.0044
 4153W        W22357  15.539   6.984  10.767  0.3288 -0.0327 -0.1011
 4154W        W22358   7.876  10.815   2.620 -0.0345  0.1416  0.0147
 4155W        W22359   7.637   1.383   0.294 -0.2165 -0.1460 -0.0489
 4156W        W22360  11.789   7.115   0.977  0.0601 -0.2263 -0.0188
 4157W        W22361  13.084   9.550   2.512  0.1041  0.0753 -0.2093
 4158W        W22362  16.212   5.751  12.895  0.1464 -0.1779 -0.0691
 4159W        W22363  10.632  13.245   4.653 -0.1290  0.1800 -0.1678
 4160W        W22364  13.457   0.559   0.997 -0.2228 -0.0264  0.0997
 4161W        W22365  10.122  17.730   1.569  0.1482  0.4434 -0.1015
 4162W        W22366   7.585   0.814   3.386  0.3487  0.3082  0.0711
 4163W        W22367  17.562   2.189  11.910  0.3002 -0.0775 -0.1978
 4164W        W22368   6.255  17.322  11.301 -0.0552 -0.0439  0.2003
 4165W        W22369   5.782   1.023  13.825 -0.0067 -0.1714 -0.2101
 4166W        W22370   8.304   5.624   3.761  0.1012 -0.2678  0.0658
 4167W        W22371  11.467   9.644   3.117 -0.0522  0.0079  0.2956
 4168W        W22372   4.932  15.571  11.795  0.0300 -0.4325  0.0525
 4169W        W22373   5.774  10.956  12.745 -0.0359 -0.0167 -0.2073
 4170W        W22374   0.433   7.508   3.306  0.0031  0.1783  0.0335
 4171W        W22375   0.579  11.009  13.532  0.1419 -0.0842  0.0655
 4172W        W22376   6.861   4.494   4.136  0.0514  0.3091 -0.0645
 4173W        W22377  10.723   5.250   2.687 -0.1515  0.0821 -0.2077
 4174W        W22378   2.445   5.234   0.365  0.0746  0.0088 -0.0778
 4175W        W22379   1.508  17.585  15.434 -0.0735  0.1631 -0.0131
 4176W        W22380   3.372  11.522  12.759 -0.0427 -0.0188 -0.0073
 4177W        W22381  12.121   0.578  11.986  0.1570  0.3671  0.1706
 4178W        W22382   5.787  18.261   2.448 -0.0576 -0.0978 -0.2103
 4179W        W22383   1.706   6.793   4.046 -0.4061 -0.3627  0.1460
 4180W        W22384   3.937   9.786  12.102 -0.1944  0.0174 -0.0574
 4181W        W22385   4.171  16.808   2.985 -0.1529 -0.0754 -0.2581
 4182W        W22386   2.783   2.771  12.178 -0.0883 -0.1009  0.2285
 4183W        W22387  10.534   1.321  11.135  0.1155  0.0668 -0.1426
 4184W        W22388   0.553   2.222  14.832  0.0621  0.0775 -0.4336
 4185W        W22389  13.041   4.963  12.852 -0.0540 -0.0213 -0.0974
 4186W        W22390   3.507   2.411   2.072 -0.1288 -0.2029  0.1553
 4187W        W22391   0.437  18.227  11.355  0.1630  0.0720  0.1109
 4188W        W22392   7.982  12.904  10.633 -0.0232 -0.0372  0.1659
 4189W        W22393  18.013   9.132   0.042 -0.0808 -0.2991 -0.2745
 4190W        W22394  18.323  16.412   2.273  0.2395  0.0732  0.0272
 4191W        W22395   8.698  10.210  14.925  0.0590  0.0806  0.0126
 4192W        W22396  10.575  15.850   0.010 -0.0119 -0.1488  0.1533
 4193W        W22397   2.245   3.456  11.823 -0.2752 -0.0833 -0.2772
 4194W        W22398  12.785   8.727   2.918 -0.1110 -0.1605 -0.2176
 4195W        W22399  11.238   3.697  11.591  0.1629 -0.2610  0.0036
 4196W        W22400   0.921  14.260   1.309  0.2939  0.0193 -0.0779
 4197W        W22401  18.106  18.264  15.626 -0.0491 -0.0603  0.1544
 4198W        W22402   6.373  14.290   3.823 -0.1913  0.3060 -0.0100
 4199W        W22403   2.917  10.192   0.498  0.0294  0.0292 -0.2678
 4200W        W22404  14.142  10.585   1.326 -0.0054 -0.6476  0.0507
 4201W        W22405  11.547  18.251   3.992  0.0461 -0.1043  0.1857
 4202W        W22406  13.173   1.643  11.879  0.2868 -0.1826  0.1543
 4203W        W22407   8.712  17.897   1.555  0.1743  0.2155 -0.2230
 4204W        W22408   3.836  13.572  11.043 -0.2706  0.0414 -0.2711
 4205W        W22409   1.552  17.096   4.199  0.3844 -0.1743 -0.3335
 4206W        W22410  16.316   6.936  14.088  0.1247 -0.0859 -0.1848
 4207W        W22411   4.546   7.637   0.451  0.1151  0.1443  0.1191
 4208W        W22412   2.226  10.496  11.706 -0.0718 -0.0308 -0.1287
 4209W        W22413  17.004  11.476   1.052  0.1391 -0.0006 -0.0799
 4210W        W22414   3.947   9.012   1.923  0.1116 -0.1681 -0.2812
 4211W        W22415   6.032   2.717  11.884 -0.1939 -0.0875  0.2264
 4212W        W22416   9.834   8.004   2.034  0.2952 -0.5538 -0.2710
 4213W        W22417   4.322   2.209   1.005  0.1133  0.2815 -0.1300
 4214W        W22418   4.388  12.733   0.911 -0.0614  0.0429  0.0415
 4215W        W22419   7.045   3.087   1.250 -0.1295 -0.2179 -0.0906
 4216W        W22420   1.510   0.544   3.327  0.2845 -0.2741  0.2717
 4217W        W22421  14.842   8.348   1.225  0.1116  0.1614 -0.1317
 4218W        W22422   2.994   6.984  10.550  0.0404 -0.1251  0.1058
 4219W        W22423   5.880   1.687   2.454 -0.0170 -0.0118 -0.2630
 4220W        W22424   6.123  10.136   0.092 -0.1905 -0.2106  0.2045
 4221W        W22425   1.308  15.745   2.372  0.2581 -0.0690 -0.0778
 4222W        W22426  12.065  13.252  13.917  0.1099 -0.1785 -0.0155
 4223W        W22427  16.854  14.389   4.788  0.0380  0.1110  0.2122
 4224W        W22428  13.862  10.471  12.133 -0.0576 -0.1362  0.0832
 4225W        W22429   9.150   7.448  12.215 -0.2534 -0.3151  0.0366
 4226W        W22430   7.334   3.833   4.952 -0.0808  0.0157 -0.1769
 4227W        W22431   0.992  10.761   2.835  0.0943  0.1122 -0.1802
 4228W        W22432  14.918   7.873  15.634  0.0775  0.0222  0.0871
 4229W        W22433  14.513   4.442   0.580  0.1007  0.0299 -0.1721
 4230W        W22434   3.066  11.495   3.405 -0.0673  0.1303 -0.1382
 4231W        W22435  15.564  17.458  12.761 -0.2176 -0.0722 -0.0034
 4232W        W22436  11.558  12.817   3.618  0.7264 -0.3326  0.1092
 4233W        W22437   5.671  14.062   2.249  0.1136 -0.0807 -0.0277
 4234W        W22438  12.319  16.151   1.074  0.0058  0.1717 -0.0106
 4235W        W22439   7.627  14.816  13.767 -0.1547  0.0145  0.0843
 4236W        W22440  17.507   2.996  15.329 -0.1571 -0.1680 -0.3705
 4237W        W22441  12.517  16.732  13.047  0.0253  0.1024 -0.2198
 4238W        W22442  12.554   7.010   2.036 -0.1328 -0.1764  0.0666
 4239W        W22443   1.523   8.532   0.690 -0.2300 -0.1896 -0.0227
 4240W        W22444   1.226  18.276   4.118 -0.0170  0.0853 -0.2093
 4241W        W22445   8.457   3.798  15.606  0.2904  0.1207 -0.0010
 4242W        W22446   3.918   1.720   3.701  0.0159 -0.2758  0.1179
 4243W        W22447   8.626  14.654  14.731  0.2859  0.3286 -0.1376
 4244W        W22448  13.324   5.684  11.673  0.0028 -0.1371 -0.2142
 4245W        W22449   4.575  16.862  15.000 -0.0147  0.2954  0.1575
 4246W        W22450   0.555   8.766   4.219  0.0108  0.1641  0.3257
 4247W        W22451  10.183  10.955   3.502  0.1175 -0.2256 -0.0592
 4248W        W22452   1.040   5.880  14.276 -0.0593 -0.3383  0.1458
 4249W        W22453  12.380  16.242  12.988 -0.0321  0.3238 -0.1469
 4250W        W22454   1.065   8.866   1.984  0.1581  0.0509  0.0094
 4251W        W22455   7.839   5.292   4.470  0.0134  0.0263 -0.1927
 4252W        W22456  13.251   3.544  14.880  0.0643 -0.0697  0.2439
 4253W        W22457   2.708   9.516   2.382 -0.2298  0.0987  0.1319
 4254W        W22458  14.094   0.158   0.135  0.0567  0.1120 -0.1380
 4255W        W22459  18.078   8.577   4.263  0.0100 -0.1454  0.1602
 4256W        W22460   9.290  12.482   1.960 -0.0939 -0.0528  0.0785
 4257W        W22461   4.421  11.666   0.962  0.0473  0.1013  0.2455
 4258W        W22462   5.129  13.939   3.580 -0.1113 -0.0932  0.4222
 4259W        W22463   4.748  16.307  11.980 -0.0178 -0.2181 -0.2011
 4260W        W22464  10.791   3.118   3.975 -0.2139 -0.1394 -0.1689
 4261W        W22465  17.303   9.847   2.166  0.0990 -0.3661  0.5153
 4262W        W22466   2.806  18.176  11.286  0.0139 -0.1654  0.1048
 4263W        W22467  17.520  11.701   1.040  0.3495 -0.0181 -0.1836
 4264W        W22468   5.560  15.139   0.184  0.0913  0.4950  0.0158
 4265W        W22469   0.567  14.687   1.400  0.3593 -0.2255 -0.1665
 4266W        W22470  17.026  11.753  15.426 -0.0409 -0.0204  0.2835
 4267W        W22471  17.103  17.152  11.896 -0.1691 -0.0525 -0.1095
 4268W        W22472   8.034  16.891   3.391 -0.0352  0.0221 -0.1416
 4269W        W22473   4.691  17.973  11.378 -0.3473  0.2221  0.0214
 4270W        W22474   8.166   3.424   0.009  0.2727 -0.1692 -0.0604
 4271W        W22475   6.432  18.112  12.374 -0.1645 -0.1555  0.0350
 4272W        W22476  16.626  12.672   2.877 -0.1188 -0.0587  0.0420
 4273W        W22477  14.291  15.928  14.554 -0.0655 -0.0219 -0.1777
 4274W        W22478  11.289   2.686  13.812 -0.0712 -0.1486  0.0494
 4275W        W22479  10.627  12.933  12.484 -0.1503  0.0636 -0.2253
 4276W        W22480  13.476   0.902   3.480  0.0693 -0.2161  0.1133
 4277W        W22481  11.429   3.338   4.705 -0.0020 -0.0501 -0.3327
 4278W        W22482   9.621  15.047   3.643  0.0065 -0.1857 -0.0185
 4279W        W22483  11.299   9.418   4.887  0.2145 -0.5997  0.0380
 4280W        W22484  13.864  16.772   4.132  0.0384 -0.0409  0.0643
 4281W        W22485   1.720   0.173   4.094 -0.0366  0.0913  0.4131
 4282W        W22486   4.861  17.195  12.310  0.1346 -0.0324  0.0214
 4283W        W22487   6.353   5.434  15.218  0.1672 -0.1286  0.1482
 4284W        W22488   4.567   3.766  15.432 -0.2732  0.4010 -0.0737
 4285W        W22489   4.262  14.228   5.177 -0.1133 -0.3938 -0.1518
 4286W        W22490   1.346  15.079  13.876  0.0901 -0.1669  0.1234
 4287W        W22491  11.836  16.955   1.656 -0.2608 -0.0611  0.0775
 4288W        W22492  11.529   2.023  10.870  0.5337  0.0945  0.1178
 4289W        W22493   2.331   4.017  14.448 -0.1766 -0.0702 -0.0931
 4290W        W22494   3.129   0.214  14.307  0.2003 -0.1264 -0.2024
 4291W        W22495   6.889   9.104   1.175  0.0499 -0.1849 -0.0773
 4292W        W22496  13.175   8.853  15.181  0.0287  0.2290 -0.1781
 4293W        W22497   4.711  17.238   1.456 -0.1841 -0.0605 -0.4283
 4294W        W22498  12.817   5.721   1.810 -0.3704 -0.3057 -0.0571
 4295W        W22499   6.080  16.745   4.313 -0.1440  0.0486 -0.1046
 4296W        W22500   6.476  16.818   0.099  0.0097 -0.0868 -0.2080
 4297W        W22501   7.556   6.009  15.333  0.0635 -0.0934 -0.2216
 4298W        W22502   3.585  14.681  15.521  0.0270 -0.2417 -0.2430
 4299W        W22503  12.315  12.951   5.736 -0.0744  0.0687  0.1796
 4300W        W22504  13.433   8.113  13.811  0.0517  0.1739  0.0398
 4301W        W22505   5.151  13.121  11.629  0.0341 -0.3800  0.0777
 4302W        W22506   1.236   0.769  14.920  0.0628 -0.0395 -0.2576
 4303W        W22507  15.522   6.116  13.652 -0.0081 -0.0014 -0.0594
 4304W        W22508  10.651  11.261  12.956 -0.0124 -0.0170 -0.3328
 4305W        W22509  16.192  17.695  15.288  0.1965  0.2686  0.0473
 4306W        W22510  11.608   1.184  12.142  0.0811  0.0504 -0.4655
 4307W        W22511   5.111  16.307  14.508 -0.0323 -0.1136 -0.0082
 4308W        W22512   6.763  17.375  13.506  0.1911  0.0080 -0.2760
 4309W        W22513   6.617   7.494   1.303  0.0489 -0.0235 -0.3007
 4310W        W22514  10.389   1.795   5.640 -0.1842  0.1391  0.0323
 4311W        W22515   8.878  14.227  11.597 -0.1726 -0.1860  0.0770
 4312W        W22516  13.046  17.441  15.700  0.4475 -0.0262 -0.0700
 4313W        W22517   8.024   9.493  11.466  0.0076  0.0587 -0.3264
 4314W        W22518   9.449  11.937   0.562 -0.0569 -0.0251  0.1246
 4315W        W22519   0.184  14.752   1.088 -0.1890 -0.3135  0.0533
 4316W        W22520   6.874   1.984  15.255 -0.1155  0.2367 -0.0708
 4317W        W22521   8.443   2.990   3.849  0.0418  0.0066  0.1232
 4318W        W22522   2.321   2.219   2.634 -0.1594 -0.0207 -0.1611
 4319W        W22523   1.161   5.868   4.467  0.1286 -0.1710 -0.1879
 4320W        W22524  16.104  16.189  14.927  0.4374 -0.1539  0.1842
 4321W        W22525  10.057  11.029   4.405  0.2809 -0.1126  0.1127
 4322W        W22526   1.316  10.555   1.667 -0.1401  0.0001 -0.0340
 4323W        W22527   8.184  17.168  11.779  0.0721  0.0205  0.1809
 4324W        W22528  12.108  16.278   0.096  0.0136  0.0725  0.0150
 4325W        W22529   8.653  11.191  14.246  0.3709  0.2275  0.1687
 4326W        W22530   6.731  13.948   1.285 -0.3025 -0.2485 -0.1262
 4327W        W22531   9.477   5.872   2.915  0.1542  0.0252  0.0334
 4328W        W22532  16.419   4.604  11.195  0.0914  0.1805  0.0387
 4329W        W22533   0.902   2.570  13.713  0.0772  0.0067  0.3924
 4330W        W22534   2.100  16.498   0.330  0.1423  0.0507  0.2524
 4331W        W22535   4.758  15.780  12.194 -0.0065 -0.1909  0.0989
 4332W        W22536   0.493   7.122  15.498  0.1349 -0.0427  0.0827
 4333W        W22537   1.773  17.853   1.453  0.0595 -0.0153  0.3002
 4334W        W22538  14.959  15.853   4.555  0.0474  0.1009 -0.3425
 4335W        W22539  18.000  11.595   0.084  0.0380 -0.1315  0.0471
 4336W        W22540  13.007  12.319   0.980  0.3504 -0.2176  0.1308
 4337W        W22541  15.506  14.561   2.332 -0.1321 -0.0612  0.2218
 4338W        W22542  15.665  13.748  12.018 -0.1775  0.2483  0.0712
 4339W        W22543  13.612   3.467  14.533  0.3243 -0.2200 -0.0441
 4340W        W22544  15.966   4.262   4.038  0.1956 -0.1176  0.0320
 4341W        W22545   2.776   5.740   0.676 -0.1872 -0.0514  0.3592
 4342W        W22546  13.128   7.851   0.271  0.1350 -0.0224 -0.2407
 4343W        W22547  14.064   6.572   0.249 -0.3391  0.0354  0.1893
 4344W        W22548  15.831  13.384  11.125  0.0892  0.0504  0.1908
 4345W        W22549   9.076   9.497   4.717  0.2562  0.4881  0.0609
 4346W        W22550  12.104   4.756   4.086  0.2920  0.0703  0.0381
 4347W        W22551  17.438  10.376   4.061 -0.1144  0.1601 -0.0869
 4348W        W22552   5.768  11.095  11.506 -0.2299 -0.0222  0.1554
 4349W        W22553   9.196   3.802   4.240 -0.2191 -0.4564  0.1165
 4350W        W22554   4.522   8.644   1.394 -0.0737  0.2475 -0.5247
 4351W        W22555  13.842  17.017   4.544 -0.0178  0.0569  0.1376
 4352W        W22556  15.914  13.305   5.152  0.1273  0.0533 -0.3223
 4353W        W22557  11.051  17.296  13.751 -0.0555  0.2151  0.0317
 4354W        W22558   8.545  16.629   3.435 -0.0931 -0.1179  0.0107
 4355W        W22559   2.603  15.987   2.603 -0.3226 -0.1254  0.1780
 4356W        W22560   7.348  15.678   0.276  0.0840  0.0778  0.0541
 4357W        W22561   6.116   6.518   5.196 -0.1116  0.1244  0.0348
 4358W        W22562   5.271   4.734  11.205 -0.0141  0.1221  0.0984
 4359W        W22563   6.120  11.587   4.249  0.0239 -0.1012 -0.3294
 4360W        W22564   6.473   8.362  13.477 -0.0986  0.4099  0.0565
 4361W        W22565  16.142   8.080   0.907 -0.0376 -0.1804  0.3615
 4362W        W22566  14.799  14.171  11.821  0.1263  0.0459 -0.1772
 4363W        W22567   5.367   6.742   3.453 -0.2210 -0.1679  0.2465
 4364W        W22568  11.911  15.360   0.507 -0.1218  0.3204 -0.0015
 4365W        W22569   1.249  15.987   3.491 -0.0292  0.1214  0.1774
 4366W        W22570  12.086  10.321  12.153 -0.3066 -0.1439  0.3411
 4367W        W22571   3.391  15.277   3.628  0.1627 -0.0775  0.0377
 4368W        W22572   8.674   7.875   3.136  0.2196  0.1763  0.1497
 4369W        W22573   5.954  12.172   4.239  0.0711 -0.0256 -0.0234
 4370W        W22574   7.045   4.622  13.765  0.2541  0.1157 -0.1482
 4371W        W22575   7.583  14.897  13.005 -0.1396  0.3413  0.1603
 4372W        W22576  10.917  16.371   2.286  0.1557 -0.1921  0.1040
 4373W        W22577   1.933  10.355  13.608  0.2080 -0.3046 -0.0321
 4374W        W22578  13.014   1.725  14.587  0.0312 -0.0307  0.0091
 4375W        W22579   1.360   8.933  13.586  0.1004 -0.0743  0.0834
 4376W        W22580   6.245   3.391   2.081 -0.0559  0.0652  0.2140
 4377W        W22581  13.948   8.913   2.087  0.1523  0.2760  0.1870
 4378W        W22582  12.570   2.584   0.899 -0.0550 -0.1489  0.0832
 4379W        W22583  17.111   9.675  12.800 -0.0343  0.0114 -0.2480
 4380W        W22584  14.188   9.925   2.735  0.0227 -0.0957 -0.0268
 4381W        W22585  11.064  13.943   4.244 -0.3195 -0.0255  0.1438
 4382W        W22586   0.273   1.060  13.550  0.1380  0.3141 -0.0060
 4383W        W22587  10.810  18.201   4.479  0.1286 -0.1150  0.2691
 4384W        W22588  17.312   5.623   1.379 -0.1769 -0.2058 -0.0313
 4385W        W22589  12.915  14.295  13.999 -0.0016 -0.0534  0.1881
 4386W        W22590   9.575   8.008  14.101 -0.0903  0.2127  0.0228
 4387W        W22591  15.509   7.426  13.738 -0.0056 -0.0814 -0.1928
 4388W        W22592   4.072   7.072   2.261  0.2257  0.2260 -0.0150
 4389W        W22593   9.771  13.938  13.807 -0.2259  0.2258 -0.2306
 4390W        W22594  11.890   0.675   3.759 -0.2943  0.1072 -0.4656
 4391W        W22595   7.204  11.783  13.575 -0.1393  0.1606  0.0282
 4392W        W22596   3.953  14.529   4.280  0.0196  0.0539  0.1975
 4393W        W22597  15.687  10.522   3.923  0.0535  0.1092  0.0427
 4394W        W22598   0.930   4.168   1.231 -0.1159 -0.0189 -0.0726
 4395W        W22599  15.930  16.872   5.005  0.0964  0.1201  0.0310
 4396W        W22600   3.539  11.375   4.407  0.3427 -0.3774  0.2625
 4397W        W22601  13.392   5.511   1.781  0.0415  0.2176  0.2876
 4398W        W22602   2.747  14.502  14.231  0.0168  0.5246  0.1376
 4399W        W22603  14.321   0.301   3.554  0.2872 -0.2048  0.3069
 4400W        W22604   7.156   4.216   3.768 -0.0599 -0.2715  0.0097
 4401W        W22605  16.076   8.763  12.656 -0.1108  0.0931 -0.1106
 4402W        W22606  16.138   6.248   4.623  0.3336 -0.1662 -0.0486
 4403W        W22607  10.142   5.190  13.505  0.0439 -0.1481  0.1037
 4404W        W22608   9.710  17.695  10.900 -0.1736 -0.1540  0.1067
 4405W        W22609   0.248  13.666   1.714  0.1589  0.0333 -0.0380
 4406W        W22610   3.586   4.685  11.676  0.2587 -0.2551  0.0956
 4407W        W22611   9.116   2.446  13.616 -0.0662  0.0958  0.1837
 4408W        W22612   3.123   4.200   2.846  0.0851 -0.2187 -0.0882
 4409W        W22613   1.834  10.302   1.769  0.0866 -0.3141 -0.0004
 4410W        W22614   0.271   8.174  13.163  0.2163 -0.4784  0.1689
 4411W        W22615  15.588  14.659  13.742 -0.3138 -0.2361  0.0863
 4412W        W22616  10.046  16.017  15.641 -0.1311  0.1473  0.1732
 4413W        W22617  15.343  10.347   5.968  0.0117  0.2247  0.1843
 4414W        W22618   3.879   4.023  14.952  0.2018 -0.0196  0.3841
 4415W        W22619   3.205   3.902   2.183  0.0255 -0.0105 -0.2267
 4416W        W22620   9.420   8.872  13.048 -0.0591 -0.1592  0.1061
 4417W        W22621  17.738   2.067  11.432  0.0419 -0.2659 -0.3584
 4418W        W22622   0.339   0.917   4.793  0.0204  0.1584 -0.0420
 4419W        W22623  12.834   9.136   4.580 -0.1632 -0.0743 -0.2194
 4420W        W22624  18.346  11.636   1.481 -0.0223 -0.2774 -0.2497
 4421W        W22625  15.173  11.224   1.419 -0.2410 -0.2324  0.1849
 4422W        W22626  18.352   7.597  14.067 -0.0152 -0.0085 -0.1801
 4423W        W22627   6.206  17.041   2.453  0.1146  0.4169  0.0337
 4424W        W22628   8.139   3.973   4.586  0.1142 -0.0652  0.1601
 4425W        W22629  16.412  10.986  11.790  0.2170 -0.3436 -0.1146
 4426W        W22630   2.630   2.138  14.499  0.0647  0.2125 -0.1975
 4427W        W22631  11.922   9.890  12.059  0.0473  0.0032  0.0673
 4428W        W22632   8.828   3.768  11.392 -0.2100  0.3668 -0.2631
 4429W        W22633   3.866   0.170  13.735  0.2844  0.2867  0.3248
 4430W        W22634   8.175   9.167   3.258 -0.0464  0.3250 -0.1386
 4431W        W22635   5.899   6.040   1.861 -0.0391  0.0514  0.0847
 4432W        W22636   8.622   6.035   0.180  0.1136  0.2982  0.0398
 4433W        W22637  14.614   8.414  11.576 -0.1251 -0.1126 -0.0160
 4434W        W22638  16.193   0.673  12.830  0.2056 -0.0812 -0.0950
 4435W        W22639  11.980   0.377   3.326  0.0879 -0.0054 -0.0018
 4436W        W22640  17.282  10.515  12.172  0.2100 -0.0060  0.1572
 4437W        W22641  16.232  10.416   1.703 -0.1090 -0.0769 -0.1042
 4438W        W22642  13.315  15.745  11.790 -0.0411 -0.1641 -0.0598
 4439W        W22643   2.840   1.182   4.967  0.0931  0.1411  0.1210
 4440W        W22644  14.295   9.239   0.087 -0.2285  0.1519 -0.2301
 4441W        W22645  17.636  17.830   3.844 -0.1820 -0.2068  0.0628
 4442W        W22646  14.315   2.807  14.369  0.1508 -0.1611  0.2429
 4443W        W22647   7.148  15.159  15.647 -0.0127  0.0637 -0.1369
 4444W        W22648  13.943   0.503   0.690 -0.1369 -0.3198 -0.0292
 4445W        W22649  18.273   1.711   0.334  0.0225 -0.2594 -0.0836
 4446W        W22650   6.186  13.093  14.347 -0.0730  0.1345  0.3109
 4447W        W22651   8.371   2.466  11.346 -0.0842  0.1605  0.0652
 4448W        W22652  12.556   3.963  15.044  0.0181 -0.0214  0.1021
 4449W        W22653   8.515  18.369   1.371  0.2482 -0.2918 -0.0757
 4450W        W22654   5.548   7.319  10.361 -0.0800  0.4998 -0.0047
 4451W        W22655   3.922  12.650  15.235 -0.4119  0.1852  0.3463
 4452W        W22656  17.225  13.476   3.451 -0.2872 -0.0443  0.1774
 4453W        W22657  12.585  12.697  13.264 -0.0620 -0.3059  0.0354
 4454W        W22658   7.443  12.591   0.865 -0.0898 -0.0548 -0.0171
 4455W        W22659  12.215   3.084  12.138 -0.0988  0.1124 -0.2021
 4456W        W22660   4.116   5.737  11.906  0.2432  0.1330 -0.1284
 4457W        W22661  16.963   8.553  14.152 -0.0525 -0.1487 -0.0195
 4458W        W22662  17.309   5.282  11.883 -0.2883  0.0527 -0.1838
 4459W        W22663  16.047  10.341  12.917  0.2288  0.0023 -0.0373
 4460W        W22664  11.911  10.117  15.446  0.1093  0.0581 -0.1112
 4461W        W22665  13.317  12.672   3.105  0.0707 -0.0473 -0.0200
 4462W        W22666   4.285  10.619  14.633  0.1267 -0.1659  0.3921
 4463W        W22667   4.049   3.178  15.297 -0.1413 -0.2447 -0.0929
 4464W        W22668  12.183  18.097  14.858 -0.0746  0.2135  0.0547
 4465W        W22669   8.180   9.944   1.228 -0.1595  0.2802 -0.0095
 4466W        W22670   7.278  11.428   0.699  0.3247 -0.1026 -0.0159
 4467W        W22671  12.279   8.668   4.636  0.1116  0.0302  0.4254
 4468W        W22672   2.331   7.882  12.789 -0.4407  0.0549  0.1397
 4469W        W22673  11.179   7.270   0.208 -0.0458  0.0176  0.0631
 4470W        W22674  15.971   2.482  13.082  0.1007 -0.2417 -0.2616
 4471W        W22675   2.576  11.208  12.591  0.2670  0.1126 -0.0692
 4472W        W22676   3.189  13.024  15.158  0.0575  0.1301 -0.0116
 4473W        W22677   1.313   3.966  15.175  0.0606 -0.2805  0.0857
 4474W        W22678  13.547   3.462   3.549  0.2639  0.1192  0.0737
 4475W        W22679   2.267  14.696  11.265 -0.2372 -0.0750  0.2884
 4476W        W22680  16.656  17.868  13.230  0.0679  0.1995 -0.0502
 4477W        W22681   7.250   4.948  13.367  0.0205 -0.2309  0.0416
 4478W        W22682  17.320  13.565  12.251 -0.0989 -0.1394 -0.3775
 4479W        W22683   9.974  12.215  12.564  0.0264  0.0995 -0.1371
 4480W        W22684   8.236  15.032  15.608 -0.0513  0.0339 -0.1601
 4481W        W22685   8.097  18.331  10.128  0.1040  0.1093  0.3218
 4482W        W22686   2.717  10.016   2.973  0.1091 -0.2451  0.0786
 4483W        W22687   4.303  12.799   2.296  0.0792  0.1195 -0.1517
 4484W        W22688  10.882   4.460  11.703  0.0118  0.1211  0.3261
 4485W        W22689  16.802  11.805  11.323 -0.1034  0.0105 -0.1309
 4486W        W22690  13.567  12.690   2.036  0.0518 -0.1728 -0.1285
 4487W        W22691  18.330   8.256   3.309 -0.1395 -0.0795 -0.1726
 4488W        W22692  16.563  11.056  12.296 -0.1475 -0.0820  0.1556
 4489W        W22693   1.585   7.042  11.430  0.3136 -0.0618  0.1379
 4490W        W22694   1.069   5.853   2.014  0.1332 -0.1465  0.2514
 4491W        W22695  15.901  11.072   3.304  0.1632  0.1981  0.1368
 4492W        W22696  14.039   0.525  13.873 -0.0875  0.0157 -0.1153
 4493W        W22697   9.890   9.495  14.070  0.1840 -0.1097  0.2268
 4494W        W22698  16.501  11.426  11.556  0.0036  0.0044  0.0522
 4495W        W22699   1.926  10.050  10.891 -0.1142 -0.1204 -0.0743
 4496W        W22700   5.726  10.094  15.357  0.2288 -0.0794 -0.0699
 4497W        W22701  14.210   8.480  11.964 -0.4053  0.1368  0.0943
 4498W        W22702  14.399  18.150   0.067  0.1272 -0.1703 -0.0165
 4499W        W22703   3.351  15.738   3.807 -0.0541 -0.0754  0.1827
 4500W        W22704   8.448  14.502   2.570 -0.0701 -0.0931 -0.2623
 4501W        W22705   5.023   2.758   0.893  0.1552 -0.2081  0.0451
 4502W        W22706  12.017   6.570  12.899 -0.0204 -0.2901  0.3585
 4503W        W22707  15.609   4.113  14.591 -0.1664  0.1371  0.1154
 4504W        W22708   3.893   3.276  14.373  0.0983  0.0394 -0.1283
 4505W        W22709  14.630   0.684   2.748 -0.0870 -0.0985 -0.2480
 4506W        W22710   7.211   4.858   4.039 -0.1464  0.0480  0.0220
 4507W        W22711   5.190  15.954   2.801  0.2090 -0.2729  0.1432
 4508W        W22712  10.519   9.956  12.370 -0.0619  0.1574  0.3807
 4509W        W22713   7.302  14.922  11.714 -0.1043  0.0745  0.1103
 4510W        W22714  15.603  14.190  12.770  0.2959 -0.0650 -0.0204
 4511W        W22715  11.060   5.881   1.989  0.0297 -0.1765 -0.0082
 4512W        W22716   3.611  14.582   0.340 -0.0365  0.1626  0.2448
 4513W        W22717  10.059   7.960   5.362  0.1994  0.1792 -0.1883
 4514W        W22718  14.392  11.630   0.663  0.0985 -0.2681 -0.3586
 4515W        W22719  15.988   4.961   1.064  0.1497  0.0759 -0.0916
 4516W        W22720  17.109  14.360   2.168  0.0557  0.1061  0.0162
 4517W        W22721  11.699   3.623   1.202  0.2546 -0.2365 -0.0106
 4518W        W22722  16.550  10.047  14.313  0.0451  0.0509  0.3448
 4519W        W22723  13.188   1.788   2.227 -0.0973 -0.3616 -0.0321
 4520W        W22724  14.234   8.582   5.026  0.0296  0.1328 -0.0828
 4521W        W22725   1.571   8.732   2.831 -0.0348  0.0752  0.2213
 4522W        W22726   1.808   6.778  15.259 -0.1790 -0.0047 -0.1737
 4523W        W22727  16.470  17.405  13.163 -0.0884 -0.1821 -0.0693
 4524W        W22728   7.708   6.243  13.054 -0.1457 -0.1101 -0.2838
 4525W        W22729  15.978   6.501  13.726 -0.0574  0.1721 -0.0582
 4526W        W22730   9.062  14.152   4.051 -0.0002 -0.0818  0.1469
 4527W        W22731   8.770   7.800   4.473 -0.1527 -0.2661  0.1761
 4528W        W22732   3.674   4.805   0.296  0.2918  0.2907 -0.0373
 4529W        W22733   3.377  16.632  11.429 -0.0845  0.0887 -0.0743
 4530W        W22734   3.306   1.633   4.286 -0.2438  0.1974  0.0747
 4531W        W22735  16.642   7.341  12.892  0.0414 -0.1219 -0.1884
 4532W        W22736  10.217  10.849  13.081 -0.1230  0.3150 -0.0368
 4533W        W22737  11.581  16.405  14.555 -0.2270 -0.1253 -0.0860
 4534W        W22738   6.127  17.504  14.287  0.0127  0.0077  0.1554
 4535W        W22739  10.533  14.718  13.033  0.1929 -0.1095  0.0962
 4536W        W22740   0.163   8.567   4.462 -0.1030 -0.0161 -0.1324
 4537W        W22741   7.944   5.651   1.230  0.2989  0.0122 -0.2759
 4538W        W22742   8.550  12.213   2.357  0.2092 -0.1547 -0.0711
 4539W        W22743   1.092  10.277  13.264  0.1010 -0.0259  0.1336
 4540W        W22744  10.058  12.271   2.341  0.1230  0.0507  0.4675
 4541W        W22745  14.387  15.634   2.408  0.0660  0.0037 -0.1645
 4542W        W22746  15.084  12.997  15.663  0.1482 -0.1180 -0.0956
 4543W        W22747   4.971  14.941   0.102  0.1915 -0.1564  0.3521
 4544W        W22748   7.428   6.978   1.542 -0.0212 -0.2114 -0.0070
 4545W        W22749  15.940   7.873  11.534  0.1171 -0.0452  0.1160
 4546W        W22750   4.688  14.021  13.419 -0.1319 -0.2125 -0.0869
 4547W        W22751  13.701   5.799  13.735  0.0706 -0.1061  0.1633
 4548W        W22752  12.322  15.986  13.876  0.1490  0.0713 -0.0878
 4549W        W22753  12.260   9.700   5.341 -0.0534  0.0476 -0.1987
 4550W        W22754  16.715   8.477  11.275  0.1224 -0.3285  0.1432
 4551W        W22755   7.113  14.319  15.108 -0.4439  0.0067  0.1222
 4552W        W22756  17.207   7.843   0.018  0.2357 -0.3154  0.0005
 4553W        W22757   2.430   4.014  13.888 -0.1147  0.1762 -0.1946
 4554W        W22758   0.667  17.601   3.246 -0.1535  0.1903 -0.1167
 4555W        W22759   8.530   6.937  11.630 -0.0445  0.1338  0.1192
 4556W        W22760   7.008  14.926   1.563 -0.2198 -0.0759 -0.1423
 4557W        W22761  12.836   9.116   3.235  0.3966 -0.0159  0.2147
 4558W        W22762   5.451  16.257   2.557  0.1590 -0.1343 -0.3516
 4559W        W22763  12.925  16.353  14.645 -0.2787 -0.0596 -0.3166
 4560W        W22764  13.917   4.756   1.424  0.3520 -0.3660 -0.1844
 4561W        W22765   3.520   9.565   2.298 -0.4234  0.2439  0.0951
 4562W        W22766  15.636  10.452   0.397  0.0663  0.0690  0.0378
 4563W        W22767  13.585  16.266   1.737  0.1269 -0.1636 -0.1262
 4564W        W22768   8.983  17.819   3.044 -0.1634  0.2299 -0.0720
 4565W        W22769   2.391  13.607  13.620  0.0803 -0.0822 -0.0692
 4566W        W22770   2.133  16.423  11.318  0.0571  0.1629  0.0606
 4567W        W22771  13.306  10.675  12.123 -0.2172 -0.0801 -0.1772
 4568W        W22772   0.998   3.033   0.347  0.1546  0.1474 -0.0548
 4569W        W22773   1.733  10.544  15.321 -0.2908 -0.3208 -0.1820
 4570W        W22774  18.090  10.190  11.631  0.3835  0.0826 -0.0754
 4571W        W22775  12.689  13.245   3.795  0.0632  0.2818  0.6512
 4572W        W22776   2.903   7.395   3.279 -0.2840 -0.1228 -0.0154
 4573W        W22777  14.419   9.126   3.213  0.0502  0.1902  0.0511
 4574W        W22778   7.511   3.140  10.743 -0.0295 -0.0016  0.2149
 4575W        W22779   1.864   0.316  12.434 -0.1268  0.1866  0.0957
 4576W        W22780   8.181   2.960  15.115  0.1016  0.1638  0.3106
 4577W        W22781  16.412   3.499   2.711 -0.0465 -0.0600  0.1439
 4578W        W22782  12.927   2.497   0.524 -0.3727  0.1184 -0.1838
 4579W        W22783  10.466  10.868  11.485  0.2731 -0.0711 -0.0498
 4580W        W22784  13.394  15.472   4.628 -0.1570  0.2857  0.0121
 4581W        W22785  14.259   6.989  14.202  0.0867  0.2444  0.0717
 4582W        W22786   1.595   3.407   0.947 -0.1528 -0.0751  0.2432
 4583W        W22787   2.395  15.727   5.082  0.1705  0.0943  0.2711
 4584W        W22788   6.904   9.010   0.425  0.0585  0.0983 -0.2033
 4585W        W22789   5.999   1.358   3.769 -0.0131  0.0769  0.3307
 4586W        W22790  10.749   0.847   9.671  0.2412  0.2973 -0.0188
 4587W        W22791   7.679  14.014  11.842 -0.2121 -0.2355  0.0244
 4588W        W22792  10.965  11.054  15.337  0.0299  0.0430 -0.1140
 4589W        W22793  15.935   7.702   4.762  0.0648  0.0779  0.2900
 4590W        W22794  18.254   6.441  15.362 -0.1639  0.3554 -0.3451
 4591W        W22795   0.447   7.503  10.406 -0.1095 -0.1555  0.1005
 4592W        W22796   7.047  10.869   2.612  0.2644 -0.0510  0.1570
 4593W        W22797  11.464   7.227  15.096 -0.1689  0.1363 -0.0431
 4594W        W22798  11.095   0.720   3.106  0.3299  0.0576  0.0421
 4595W        W22799  11.560   4.032   1.526  0.1869  0.1569 -0.3757
 4596W        W22800   6.906  14.156  15.516  0.2026  0.0018  0.2440
 4597W        W22801   7.095   2.871  11.060  0.0029  0.0423  0.1277
 4598W        W22802   0.912   1.152  15.139  0.1962 -0.1001 -0.2582
 4599W        W22803  16.762   7.650  14.113  0.0421 -0.1735  0.3109
 4600W        W22804  10.183  11.328  12.999  0.2696  0.0160 -0.1598
 4601W        W22805  16.675   9.353  10.853  0.0271 -0.2424 -0.0573
 4602W        W22806   9.959   5.259   3.489  0.1621  0.1953 -0.1696
 4603W        W22807   3.143  13.444   4.794  0.0132  0.0117 -0.2822
 4604W        W22808   4.392  12.913   1.360  0.2908  0.0549 -0.3411
 4605W        W22809  15.906   4.353  11.810  0.2272  0.0969 -0.0722
 4606W        W22810  11.427  11.507  15.598  0.2802 -0.0159  0.0553
 4607W        W22811   3.218   5.086  14.600 -0.4947  0.1360 -0.3753
 4608W        W22812  13.103   9.755  13.433 -0.2027 -0.0523  0.0917
 4609W        W22813   2.981  16.973   1.719  0.0478 -0.0462 -0.3215
 4610W        W22814   9.169   7.864   5.046 -0.0616 -0.1317  0.0490
 4611W        W22815   3.834  11.206  13.610 -0.0225 -0.0722  0.2045
 4612W        W22816   1.275   6.389   4.582  0.0644 -0.0675  0.1828
 4613W        W22817  15.454   3.224   2.590 -0.2488 -0.2225 -0.2183
 4614W        W22818   6.694   3.533   3.862 -0.0351  0.1047  0.0936
 4615W        W22819   6.225   5.176   1.415  0.2442 -0.0409  0.1455
 4616W        W22820   2.894  17.124   4.482  0.0983 -0.0417  0.0071
 4617W        W22821  14.613  16.055   1.413 -0.1190 -0.0650 -0.2422
 4618W        W22822  17.061  10.723   2.154  0.1079 -0.0848 -0.0833
 4619W        W22823  12.047  11.228  11.014 -0.2239 -0.2964 -0.0199
 4620W        W22824   5.693   9.472   0.019  0.0626 -0.0211 -0.3997
 4621W        W22825  16.423   3.070   0.689 -0.3354 -0.2189  0.0406
 4622W        W22826  13.313  16.148   1.299 -0.1656 -0.2910  0.0377
 4623W        W22827  10.887  11.075   0.746 -0.2131 -0.1620  0.1227
 4624W        W22828  11.834   5.918   4.029 -0.2682 -0.0904  0.2250
 4625W        W22829  12.044   6.722   1.952  0.0140  0.2098  0.0266
 4626W        W22830  10.310  18.350  14.071 -0.0391  0.0637  0.2236
 4627W        W22831  15.341   3.683   2.393 -0.3295  0.2247 -0.0431
 4628W        W22832  17.232   4.576  13.704  0.1320 -0.2958  0.1334
 4629W        W22833   8.277   4.956   2.053  0.0462 -0.2496 -0.0320
 4630W        W22834   6.457  16.977   5.553 -0.1570 -0.2357 -0.0364
 4631W        W22835   4.995  15.348   2.836  0.2256 -0.0473  0.1187
 4632W        W22836   3.116   6.489  12.231  0.0150 -0.0773  0.0353
 4633W        W22837   6.052  13.714   1.323  0.2172  0.0813 -0.0505
 4634W        W22838   5.994   1.811  14.427  0.0794 -0.2251  0.2739
 4635W        W22839  11.992   9.982  14.252  0.5127  0.3848 -0.2222
 4636W        W22840  16.557   3.518  14.696 -0.2530  0.0289  0.2180
 4637W        W22841  17.713  10.556  12.337  0.0145 -0.1431 -0.1077
 4638W        W22842  10.789  13.343  12.759 -0.0284  0.1866  0.3429
 4639W        W22843   2.500   6.253  14.817  0.0969  0.0117  0.0063
 4640W        W22844  10.315   7.501   3.849  0.0726  0.3307 -0.1091
 4641W        W22845  15.501   7.040   0.066 -0.4700  0.2948  0.0139
 4642W        W22846   7.879  10.710   2.095 -0.2123  0.0395 -0.0801
 4643W        W22847  12.700  10.837  14.146  0.3081  0.1404 -0.0731
 4644W        W22848  17.994   7.193   1.695 -0.0588  0.3459  0.1532
 4645W        W22849   7.595   5.730   4.500  0.2283 -0.3267  0.1393
 4646W        W22850   6.391  16.876   1.372 -0.1781 -0.0729  0.0697
 4647W        W22851   3.811  12.814   2.436 -0.2097 -0.0577 -0.0425
 4648W        W22852  16.388   4.492   4.979 -0.0578 -0.1044 -0.3755
 4649W        W22853   7.694   8.608   2.666 -0.1083  0.2043  0.2906
 4650W        W22854   7.529   9.504  14.966 -0.3660 -0.1616  0.2554
 4651W        W22855  18.258   4.170   3.727 -0.2468  0.0222 -0.3204
 4652W        W22856   2.438   1.132   3.940  0.1156 -0.1491 -0.1198
 4653W        W22857  12.115  13.112  14.915 -0.3583 -0.1508  0.0037
 4654W        W22858   3.179  14.302   2.012  0.1683  0.0973 -0.2678
 4655W        W22859  13.848  11.715   1.589  0.3114  0.4500 -0.0780
 4656W        W22860   6.900   9.827  12.595  0.0681  0.3827 -0.0811
 4657W        W22861  10.686  13.800   2.094 -0.0712  0.1361  0.1384
 4658W        W22862   3.462   1.091  14.556 -0.2676  0.2166 -0.1263
 4659W        W22863   4.971   0.600   3.305  0.0512 -0.2227  0.3194
 4660W        W22864  14.129   6.400  13.583 -0.2300  0.0987 -0.0724
 4661W        W22865  15.837  13.148   1.037  0.0672  0.0038  0.0113
 4662W        W22866  13.536  18.283  11.250 -0.2401 -0.1151 -0.1369
 4663W        W22867   5.075  17.959   2.904  0.1119 -0.1594  0.0417
 4664W        W22868   3.901  14.171   4.731 -0.2303  0.1532  0.3566
 4665W        W22869  15.078   2.088  14.443  0.2331 -0.1568 -0.4203
 4666W        W22870   4.114  18.265  12.650 -0.0544 -0.0115 -0.0220
 4667W        W22871   6.003   9.771   2.508 -0.0138  0.1137 -0.0859
 4668W        W22872   2.399  17.073   3.626  0.1419  0.1197 -0.0564
 4669W        W22873  13.957   8.711   1.149  0.1547  0.2064 -0.1783
 4670W        W22874  13.812   3.231  13.646  0.2837  0.1216 -0.0016
 4671W        W22875   5.862  17.610  13.806 -0.3055 -0.0221 -0.0227
 4672W        W22876  11.083   7.010  13.542  0.3578 -0.2960  0.0420
 4673W        W22877   5.144   1.308   1.941  0.0070 -0.0149 -0.0985
 4674W        W22878  13.826   0.408   3.494 -0.2121 -0.0026  0.2840
 4675W        W22879   6.861   8.132   1.232  0.0884 -0.2943  0.1821
 4676W        W22880   8.699  14.293  15.070 -0.2291  0.0960 -0.2099
 4677W        W22881  16.940   1.526  12.481  0.0655  0.0414  0.4307
 4678W        W22882   8.687   7.850  12.955  0.1285 -0.1466  0.3513
 4679W        W22883  17.664  12.207   1.055  0.1748  0.1503  0.2388
 4680W        W22884   5.727   9.842  11.225 -0.1080  0.1275  0.2134
 4681W        W22885  13.627   0.214  13.751  0.0768 -0.1217 -0.0360
 4682W        W22886   9.529   7.375  15.444 -0.1373 -0.2354 -0.0727
 4683W        W22887  17.059   2.831   0.392 -0.2292  0.0044  0.0890
 4684W        W22888   7.847  18.037  13.928 -0.0892 -0.2316  0.1085
 4685W        W22889   3.611   6.051   4.233 -0.1402 -0.0848  0.2466
 4686W        W22890   6.297  12.878   2.738 -0.1078  0.1610  0.2010
 4687W        W22891   1.203  10.778   2.238  0.1937 -0.3145 -0.1005
 4688W        W22892  12.504  16.663   0.862  0.1583 -0.0205 -0.1053
 4689W        W22893   5.128   9.968  13.983 -0.2587  0.0521 -0.5002
 4690W        W22894   8.508  16.666  13.740  0.0956  0.0039  0.2518
 4691W        W22895   8.294  18.087  11.986  0.1795  0.0438  0.1503
 4692W        W22896   3.201   5.414  12.871  0.2355  0.1093  0.1930
 4693W        W22897   3.911  14.585  13.442 -0.3275 -0.1124  0.0082
 4694W        W22898  10.051   4.912  15.638  0.1019 -0.3161  0.1649
 4695W        W22899   6.704  14.674  15.402  0.1783 -0.0351  0.0885
 4696W        W22900   8.794   5.421   1.046  0.1282  0.0016  0.1477
 4697W        W22901  16.129  13.290  10.743 -0.0490 -0.5351  0.1288
 4698W        W22902  17.651  13.536   4.180  0.2394 -0.0261  0.0514
 4699W        W22903  14.551   2.302   1.448  0.1337 -0.1073  0.2224
 4700W        W22904   6.020  10.794   3.914 -0.2734 -0.1531  0.1879
 4701W        W22905  15.770   6.046   2.189  0.1348  0.0737 -0.0254
 4702W        W22906  14.694   2.902  11.698 -0.0098 -0.1720 -0.3387
 4703W        W22907  13.247   6.577  15.331 -0.0154 -0.2832 -0.1258
 4704W        W22908  17.968  13.866  13.608 -0.0406  0.1481 -0.3634
 4705W        W22909  10.043   8.461  15.584 -0.1992 -0.2520 -0.1942
 4706W        W22910  11.382  15.162  12.888 -0.0625 -0.2958  0.1009
 4707W        W22911  17.619   9.491   4.450 -0.0536 -0.2296 -0.2889
 4708W        W22912  10.416   3.513   3.853  0.1921 -0.2689  0.0086
 4709W        W22913  17.995  15.000   0.402  0.0743  0.0311  0.1599
 4710W        W22914   2.290   5.056  10.861  0.0848 -0.1375 -0.0754
 4711W        W22915   0.818   2.862   0.803 -0.1591  0.2860  0.0538
 4712W        W22916  14.557   6.839   4.839  0.0083  0.0667  0.0559
 4713W        W22917  11.317   8.218  12.947 -0.1423 -0.1001 -0.0609
 4714W        W22918  13.009   7.572  14.702  0.0096  0.1603 -0.1342
 4715W        W22919  11.695   0.354   4.151 -0.0434 -0.3904  0.0613
 4716W        W22920  14.170  15.908   1.039 -0.0956  0.1371  0.0288
 4717W        W22921   6.648  12.140   2.002 -0.0681 -0.0732  0.2351
 4718W        W22922   4.826   4.039  14.816 -0.1902 -0.1068 -0.0655
 4719W        W22923   5.591  13.461   4.000 -0.1479 -0.1492  0.3295
 4720W        W22924  16.108  12.716  12.764  0.0755  0.0824 -0.0403
 4721W        W22925   3.112   7.275   4.175  0.1671 -0.0261  0.0945
 4722W        W22926   5.297  15.237  14.069 -0.0320 -0.0161 -0.2259
 4723W        W22927  11.212   3.754  12.430  0.2049 -0.2664 -0.0048
 4724W        W22928  16.484  18.339  12.154  0.0177 -0.0422 -0.2052
 4725W        W22929  14.209   6.785  11.867 -0.0155 -0.0889  0.0301
 4726W        W22930   8.322   2.759   0.698 -0.0664 -0.1028 -0.2316
 4727W        W22931  14.167   2.645   4.093 -0.1122  0.0606 -0.1818
 4728W        W22932   5.113   4.593   1.027  0.1834  0.1932 -0.1780
 4729W        W22933  17.101   7.713  10.294 -0.0729  0.2856 -0.0389
 4730W        W22934   3.849   0.370  11.773  0.2476  0.3338  0.1456
 4731W        W22935   7.117  13.339  14.200  0.2480  0.2531 -0.0773
 4732W        W22936   9.908  12.504   3.764  0.1090  0.0181 -0.0045
 4733W        W22937   5.895   8.394   5.801 -0.1406 -0.1017  0.2141
 4734W        W22938   1.971   5.194   0.444  0.1398 -0.1200 -0.1716
 4735W        W22939   1.106   0.407   0.125  0.0360  0.2080 -0.1422
 4736W        W22940   5.476  16.644   0.200  0.0867 -0.0099  0.2864
 4737W        W22941   9.325   0.244   1.549  0.1874 -0.0210  0.2708
 4738W        W22942   6.823   1.288  10.280  0.1086 -0.4376 -0.1273
 4739W        W22943  10.341   1.101  13.257 -0.0271 -0.1785 -0.2559
 4740W        W22944  13.070  16.371   1.665  0.2477 -0.1009  0.2729
 4741W        W22945  17.542   0.557   0.494  0.1395  0.1153  0.0383
 4742W        W22946   6.207  17.492  12.407  0.2341 -0.4211 -0.0389
 4743W        W22947   4.170   5.444   4.350 -0.0803 -0.2136 -0.1413
 4744W        W22948  14.456   7.794   4.289 -0.0295  0.1582  0.0342
 4745W        W22949  15.691   5.990   1.474 -0.4201 -0.0060 -0.0164
 4746W        W22950  13.813  16.886  13.116  0.3295  0.2021  0.0192
 4747W        W22951   5.251   6.981  13.466 -0.0100 -0.2434  0.1264
 4748W        W22952  16.509   2.606  13.875  0.2331  0.4374 -0.1923
 4749W        W22953  16.632   1.723   2.882  0.2316  0.1594  0.0440
 4750W        W22954  16.062   7.204   3.637  0.0046 -0.1613 -0.1773
 4751W        W22955  17.932  13.982  12.847 -0.2305  0.0307 -0.0291
 4752W        W22956   6.965   6.385   3.969 -0.2246 -0.1180 -0.1190
 4753W        W22957  13.166   3.433  12.636  0.2540  0.1363 -0.1191
 4754W        W22958   8.324   9.907   4.048 -0.1958 -0.4184  0.0979
 4755W        W22959   9.640   3.256   1.613 -0.2357  0.1959  0.2944
 4756W        W22960   9.280  14.193  10.055  0.0233  0.0507  0.1762
 4757W        W22961  11.831   3.181   1.596  0.0247  0.3600 -0.0519
 4758W        W22962   6.384   1.602   4.756  0.0765 -0.0571 -0.2664
 4759W        W22963  11.902  13.243   1.477 -0.5267 -0.0564  0.2409
 4760W        W22964   8.236  16.796  12.159  0.0987 -0.2360 -0.4025
 4761W        W22965   2.546  17.165  11.429 -0.2567  0.4554  0.0665
 4762W        W22966  17.742  12.936   2.433 -0.1834 -0.1195  0.0312
 4763W        W22967  11.785   1.133   3.613 -0.0935 -0.0873 -0.0550
 4764W        W22968  17.650   7.912  13.258  0.1323 -0.3228 -0.0222
 4765W        W22969   5.537   5.372  13.022 -0.2556 -0.4716 -0.0301
 4766W        W22970  18.334  17.815   3.127 -0.1475 -0.0933  0.0600
 4767W        W22971  15.857  15.592  12.608  0.0365  0.1691 -0.0134
 4768W        W22972  17.542  13.209  11.018 -0.1700 -0.0674  0.1169
 4769W        W22973   5.417  11.640   3.684 -0.2346  0.2129  0.0179
 4770W        W22974  14.739   4.512   1.700  0.0957 -0.1287  0.1039
 4771W        W22975  11.795   1.437   2.535  0.0646  0.0388  0.1541
 4772W        W22976  14.930   5.802   2.630 -0.2928  0.4000 -0.1768
 4773W        W22977  14.666   9.164   0.957  0.1405  0.2427  0.1243
 4774W        W22978   6.479   2.520   3.171  0.0635  0.1841 -0.1566
 4775W        W22979   7.019  17.797  14.064 -0.5280  0.2862  0.2503
 4776W        W22980   5.864  11.024   1.463 -0.0216  0.0443 -0.1482
 4777W        W22981  17.389   2.094  12.995 -0.3549  0.2834  0.1368
 4778W        W22982   1.169  12.394   0.015 -0.3330  0.1385 -0.2486
 4779W        W22983  13.304   4.229   2.092 -0.0158 -0.2294 -0.0306
 4780W        W22984  12.306  16.844   2.422 -0.0560 -0.0640  0.0325
 4781W        W22985   6.538   2.771  12.012  0.0554  0.0050 -0.0346
 4782W        W22986  17.519  17.623   0.152  0.0025 -0.0424  0.1831
 4783W        W22987  13.600  13.149   1.159 -0.2486 -0.0875 -0.0041
 4784W        W22988  15.852  15.981  12.315  0.0424 -0.1187 -0.0481
 4785W        W22989   7.346  12.557   3.204  0.0243 -0.2441 -0.0133
 4786W        W22990  17.896   2.479  12.244  0.2360 -0.1982 -0.0476
 4787W        W22991   0.269   3.653  11.064 -0.5559  0.0405  0.3708
 4788W        W22992  17.553  13.205  11.574 -0.1044  0.0965 -0.2751
 4789W        W22993  12.431   1.289   0.603  0.1824  0.0259 -0.0473
 4790W        W22994   7.310   4.398  10.972 -0.0807  0.4095 -0.0879
 4791W        W22995   1.531  16.916  10.667 -0.1742 -0.3885  0.3006
 4792W        W22996  12.974  14.735  14.732  0.0083 -0.2525  0.3145
 4793W        W22997   6.350  13.933   9.828 -0.1792  0.0240  0.1589
 4794W        W22998  16.895   6.379  13.752 -0.0403  0.2485 -0.1757
 4795W        W22999   1.138   5.587  12.805  0.0282  0.0414 -0.0275
 4796W        W23000   9.432  13.109  14.781 -0.1551  0.1421 -0.0431
 4797W        W23001  16.614  11.926  13.701 -0.0160  0.1101  0.2472
 4798W        W23002   1.996   2.625   1.373 -0.1726  0.0217  0.0704
 4799W        W23003  17.302  17.004   1.726  0.1260 -0.1077 -0.1883
 4800W        W23004   5.659  10.691  14.599 -0.0161 -0.2199 -0.3617
 4801W        W23005   6.280  13.732  14.891  0.0903  0.0876  0.1221
 4802W        W23006   8.792  13.268  13.125 -0.0127  0.1402  0.2602
 4803W        W23007  16.559   7.207  12.004 -0.1988  0.1726 -0.1201
 4804W        W23008  10.891  16.219  15.672  0.0439 -0.1386 -0.2572
 4805W        W23009   1.747   5.399   0.926 -0.0949  0.0224  0.0098
 4806W        W23010  17.851  10.675   1.636  0.1078  0.3433  0.3319
 4807W        W23011  14.097   5.159   2.696  0.0702  0.1754  0.3290
 4808W        W23012   8.512  11.147  11.066  0.2727  0.0451  0.0649
 4809W        W23013  16.258   6.297  15.706  0.2141 -0.0447  0.3961
 4810W        W23014   7.985   4.367   4.285 -0.0833 -0.2273  0.0447
 4811W        W23015   6.918  13.944   3.888 -0.1740 -0.1252 -0.3374
 4812W        W23016  18.233   5.823  13.472 -0.0206 -0.0127 -0.0102
 4813W        W23017   0.133   3.470   4.762 -0.0140  0.1863 -0.2254
 4814W        W23018  17.683  14.235  15.131  0.0466  0.2059  0.0862
 4815W        W23019   2.588  16.387  11.136  0.2383 -0.1198 -0.0805
 4816W        W23020  10.220   8.965   2.184 -0.2004 -0.1206  0.1324
 4817W        W23021   7.957  10.225  14.261 -0.0548 -0.1664  0.1958
 4818W        W23022  14.941  14.440   3.092  0.1052  0.0589  0.4131
 4819W        W23023  11.247  17.514   2.439 -0.3549 -0.1587 -0.2526
 4820W        W23024   8.798  14.695  11.967  0.1310  0.0834  0.0233
 4821W        W23025   2.812  15.828  15.315  0.1652 -0.1312 -0.1758
 4822W        W23026  11.440  10.862   5.897  0.0535 -0.0909  0.1707
 4823W        W23027  13.238   7.530  12.747  0.0568 -0.1246  0.0135
 4824W        W23028  11.833  16.098   0.918  0.2355  0.0607  0.0819
 4825W        W23029  12.048   7.662  15.531 -0.0316 -0.0060  0.3835
 4826W        W23030   7.616  16.253   1.805 -0.2411 -0.2349 -0.1982
 4827W        W23031   7.373  12.060  11.926  0.0887 -0.2299  0.0404
 4828W        W23032  14.678   1.674  14.196  0.0913 -0.2382  0.0399
 4829W        W23033  13.093   8.669  11.350 -0.2332 -0.1713 -0.0851
 4830W        W23034   0.111   2.331   5.411 -0.1502 -0.0494 -0.0965
 4831W        W23035   5.427  15.355  12.211  0.2022 -0.0043 -0.1401
 4832W        W23036  16.400   4.442  12.650 -0.2341  0.1064  0.0247
 4833W        W23037  13.868   8.141  13.097 -0.1568  0.2500  0.1042
 4834W        W23038   5.921  10.113   3.533  0.0884 -0.0443  0.0526
 4835W        W23039   1.761   9.710   2.591  0.0694  0.2299 -0.2409
 4836W        W23040   5.555  16.893   4.347 -0.0418 -0.0720 -0.1254
 4837W        W23041   8.725  16.335   0.338  0.4547  0.0564  0.0516
 4838W        W23042  17.140   9.266   1.691  0.0866  0.0801 -0.3877
 4839W        W23043   4.545  12.575  14.755 -0.3683  0.1393  0.0962
 4840W        W23044  16.189   0.492   3.355  0.0721  0.1446 -0.1927
 4841W        W23045  15.337   8.415  13.574 -0.0718  0.3250  0.3298
 4842W        W23046   4.919  13.882  12.676  0.0458  0.1088 -0.0996
 4843W        W23047  14.458   9.823  12.501  0.3118 -0.1887  0.1449
 4844W        W23048  16.059  13.214   1.917  0.0639 -0.3905  0.3270
 4845W        W23049   8.386   7.271  13.808 -0.2407 -0.0980  0.2583
 4846W        W23050  15.267  15.331  12.992  0.0019 -0.0824 -0.0444
 4847W        W23051   0.342   5.276  12.342 -0.0661 -0.1837  0.0440
 4848W        W23052   1.399   1.794  14.938  0.0405 -0.1071  0.0919
 4849W        W23053  15.018  14.641   4.790  0.1392 -0.2456  0.0001
 4850W        W23054   4.023   1.053   1.190  0.1301 -0.0904 -0.2406
 4851W        W23055  15.673  14.700  12.891  0.0323 -0.1785  0.1552
 4852W        W23056   6.615   6.676  11.164 -0.0129 -0.0843 -0.1598
 4853W        W23057   7.256   7.842  13.138 -0.0002  0.0186 -0.2187
 4854W        W23058  12.883  14.918   3.105 -0.0843 -0.1052 -0.2585
 4855W        W23059  17.332   1.460   5.394  0.0852 -0.0659  0.0346
 4856W        W23060   9.727  10.749   3.549 -0.2992  0.0586 -0.0203
 4857W        W23061  12.238  13.940  11.326 -0.1538  0.1310 -0.0737
 4858W        W23062   2.773  14.913  12.986  0.2210  0.3092  0.0604
 4859W        W23063  12.817   8.316  13.482  0.0737 -0.2299  0.0381
 4860W        W23064   6.870  18.204  12.049  0.0631  0.0964  0.1028
 4861W        W23065  16.583   2.208   0.610  0.2747 -0.1433 -0.2562
 4862W        W23066   3.913  13.563  14.259 -0.1191 -0.1432  0.0587
 4863W        W23067   5.941  18.277  11.953  0.0216 -0.0254  0.0035
 4864W        W23068   1.753  12.434   2.717  0.0525 -0.0995 -0.1728
 4865W        W23069   7.112  17.697  13.594 -0.0484  0.0394  0.0928
 4866W        W23070   0.019  12.224  15.587 -0.2219  0.1074  0.1514
 4867W        W23071  16.611   0.034   0.953 -0.3391  0.0600 -0.1222
 4868W        W23072  16.382  17.748  14.555 -0.1042 -0.3830 -0.3666
 4869W        W23073   2.469   3.559  15.297 -0.1094 -0.0334 -0.2378
 4870W        W23074   0.051   1.177  14.974  0.2514 -0.5287 -0.0808
 4871W        W23075   3.054   0.368   5.244  0.1198 -0.1051  0.1165
 4872W        W23076  15.110  11.125  11.698  0.0460  0.0899  0.0343
 4873W        W23077  14.382   8.084  10.109 -0.1050 -0.0231  0.0693
 4874W        W23078  11.166   9.748   0.159 -0.0967 -0.1238  0.0644
 4875W        W23079  12.526   8.100  13.936 -0.2328  0.0709 -0.1611
 4876W        W23080   0.881  14.341   2.247 -0.0947 -0.0175 -0.0429
 4877W        W23081  18.230  13.429  13.098  0.2082  0.0037 -0.0036
 4878W        W23082   0.937   1.250  15.691 -0.0038  0.0959 -0.1955
 4879W        W23083  11.716  16.263  15.419  0.2270 -0.3774 -0.3254
 4880W        W23084  14.059  12.224   1.949 -0.3516 -0.4122  0.0361
 4881W        W23085  16.079   2.455   4.362 -0.1139 -0.1002  0.1719
 4882W        W23086   2.378   9.044  14.197  0.2284  0.3040 -0.3056
 4883W        W23087   4.661  17.224   0.568  0.0314 -0.0773 -0.2123
 4884W        W23088   6.308  11.352   5.381 -0.1365  0.0068 -0.1155
 4885W        W23089   3.218  15.264   3.164 -0.0333 -0.1759  0.0695
 4886W        W23090   6.850   5.221  13.176  0.0218  0.1724  0.1520
 4887W        W23091   4.635   9.003  11.005 -0.3770  0.2037  0.1645
 4888W        W23092   2.800  17.665   0.526 -0.1138  0.1663  0.1143
 4889W        W23093   8.083  13.023   4.887 -0.1481  0.1361 -0.1908
 4890W        W23094  18.275  17.464  14.685 -0.1230 -0.0111 -0.2553
 4891W        W23095  16.112   9.509   4.369  0.1896  0.3918 -0.3354
 4892W        W23096   8.865   0.544   4.028  0.3151  0.1629  0.0107
 4893W        W23097   9.477  16.007   4.898 -0.0130 -0.1280 -0.2055
 4894W        W23098   2.253  16.841   1.226 -0.1384 -0.1185 -0.1195
 4895W        W23099  14.183   1.347  12.101 -0.5108 -0.1422 -0.2210
 4896W        W23100  15.185   0.445   3.406  0.1675  0.0484 -0.3841
 4897W        W23101   0.967  10.805  13.182  0.1548  0.2866  0.1003
 4898W        W23102  17.680  10.324   0.668  0.0560 -0.2569  0.3123
 4899W        W23103  15.003  16.105   1.720  0.2796 -0.1196 -0.2104
 4900W        W23104   4.327  14.497  12.752  0.1114  0.0036  0.3500
 4901W        W23105   5.942   7.478   4.822  0.1187 -0.2842 -0.0239
 4902W        W23106  14.688  11.785  15.301  0.1233 -0.0193  0.0095
 4903W        W23107  16.281   5.132  13.448 -0.2300 -0.2851  0.1535
 4904W        W23108  16.007   4.262   0.615 -0.1421  0.0065 -0.0429
 4905W        W23109  13.611   0.543   3.041 -0.3111  0.1856 -0.1660
 4906W        W23110   0.327  15.955  15.213  0.0582 -0.2066 -0.4580
 4907W        W23111  12.619  13.322  15.494  0.1067 -0.0424 -0.2429
 4908W        W23112   1.148   1.694  12.279 -0.2311 -0.1820 -0.1697
 4909W        W23113   4.834   0.140  15.692  0.1938 -0.1354  0.0929
 4910W        W23114  14.228   3.663  11.213 -0.0101  0.0040  0.4042
 4911W        W23115  17.614   1.189  12.692  0.0619  0.1270 -0.0525
 4912W        W23116   9.347  15.542  15.031 -0.0949 -0.0242  0.0988
 4913W        W23117  16.878   6.937  11.545  0.1168 -0.0385 -0.1120
 4914W        W23118   7.783   3.725   9.861  0.0275 -0.1095 -0.1778
 4915W        W23119  11.848  14.789   2.207  0.0486  0.1325 -0.1825
 4916W        W23120  17.586  13.650  12.758 -0.1701 -0.3378  0.0376
 4917W        W23121   5.023  17.365  10.788  0.2212 -0.0302 -0.0842
 4918W        W23122  13.404  15.849  13.790 -0.0055  0.0482  0.2727
 4919W        W23123  17.464  12.239   4.092  0.0309 -0.0653 -0.1183
 4920W        W23124   2.751  13.746  15.399  0.0982 -0.0025  0.4202
 4921W        W23125   5.297  13.832   0.650 -0.2228 -0.0894  0.0670
 4922W        W23126   5.609  13.802  13.791 -0.0316  0.1198 -0.4289
 4923W        W23127  16.517   2.499   2.189  0.3519  0.0518 -0.1910
 4924W        W23128   6.620   7.576  15.178 -0.1522  0.0639 -0.0338
 4925W        W23129   2.585  12.761   0.157 -0.2016  0.0348  0.0216
 4926W        W23130   0.710   1.137   3.760 -0.0747 -0.0224  0.2643
 4927W        W23131   5.809   5.953   3.941 -0.2204  0.0800 -0.0794
 4928W        W23132  17.802  16.880  12.270  0.0372 -0.0697 -0.2241
 4929W        W23133  14.100   3.788   4.498 -0.1242  0.1163  0.0226
 4930W        W23134  15.634  15.503  11.593 -0.2204  0.1232  0.0064
 4931W        W23135   3.286  16.081  11.941 -0.4945  0.0088 -0.1332
 4932W        W23136   9.416  17.499  14.789  0.0459  0.0437  0.1159
 4933W        W23137  15.726   0.739  13.002  0.2758  0.0054  0.2321
 4934W        W23138  11.032   0.779   2.346 -0.0239 -0.0138  0.1334
 4935W        W23139   4.507  17.564  11.574 -0.1773 -0.1156 -0.0853
 4936W        W23140   9.921   1.531   2.949  0.2448 -0.0022  0.1203
 4937W        W23141   4.230   1.425  15.000  0.0142  0.0783  0.0695
 4938W        W23142   6.505  16.446  13.985 -0.0758 -0.0417 -0.0183
 4939W        W23143  14.883   4.657  14.217  0.0185 -0.1533 -0.2074
 4940W        W23144  14.808  11.452   4.106  0.1383  0.2232 -0.2869
 4941W        W23145  10.265   5.568  13.912 -0.1673 -0.1976  0.0756
 4942W        W23146   3.080  11.781   2.786  0.0988 -0.0587  0.3167
 4943W        W23147  11.818   9.272   3.462  0.2598 -0.0712  0.2424
 4944W        W23148  16.898  11.892   2.636 -0.0681  0.1517 -0.4358
 4945W        W23149   4.150  12.703  13.446 -0.0292  0.0113  0.2869
 4946W        W23150   7.824   0.356   5.501 -0.1810  0.1515  0.3548
 4947W        W23151  11.746   3.263   4.166 -0.1579  0.1189  0.1555
 4948W        W23152   7.084   9.783  11.092 -0.0761  0.0254 -0.0361
 4949W        W23153   3.472   8.523  11.617  0.2012  0.0700 -0.0155
 4950W        W23154   7.441   3.102  14.006 -0.0528  0.4020 -0.0934
 4951W        W23155   6.256  13.766  12.036 -0.2251  0.0830 -0.0132
 4952W        W23156  15.160  10.413  15.330  0.1613  0.1621 -0.0627
 4953W        W23157  11.453  11.938  13.165  0.1066  0.1864  0.2620
 4954W        W23158  16.189   7.346   1.908 -0.0225 -0.1872 -0.2233
 4955W        W23159   3.176  14.741   4.826  0.1697 -0.4359  0.0810
 4956W        W23160  13.681   1.506  11.770  0.0126  0.0888 -0.1337
 4957W        W23161  14.016   8.475  11.504 -0.2385  0.0255  0.1236
 4958W        W23162  13.608   8.616  13.912 -0.0062  0.1121  0.1405
 4959W        W23163   8.937   0.595  11.899  0.2131  0.3083  0.0194
 4960W        W23164  13.848   4.199   2.289  0.1081  0.0037  0.0694
 4961W        W23165   7.740   2.437  11.829 -0.0441 -0.0539  0.0304
 4962W        W23166   4.054   5.850  10.879  0.0500  0.1723  0.0962
 4963W        W23167  11.716  12.239   2.113  0.1022  0.1644  0.0686
 4964W        W23168  11.909  18.040  13.656  0.0689  0.1529 -0.0574
 4965W        W23169   7.364  11.604  12.103  0.1279 -0.2204 -0.2768
 4966W        W23170   6.564   9.006  14.067  0.3196 -0.0899  0.0345
 4967W        W23171   3.811  13.220   9.836 -0.3366  0.2030  0.1085
 4968W        W23172   4.674   8.104  12.052  0.1298  0.2670 -0.2626
 4969W        W23173  17.317  14.416   4.945  0.0721  0.0375 -0.1394
 4970W        W23174  15.288   6.273  11.306  0.1090 -0.0963 -0.1439
 4971W        W23175  11.929   3.967  13.967  0.1403  0.2884 -0.1178
 4972W        W23176   2.055  18.251   3.143 -0.1017 -0.0771 -0.1080
 4973W        W23177  12.176   8.244   0.762  0.1310 -0.0160 -0.0109
 4974W        W23178  17.373  14.297   0.814  0.1978  0.1437  0.2469
 4975W        W23179   8.175   4.652  15.132  0.0660  0.0371  0.0286
 4976W        W23180   4.396  12.134   2.726  0.3779 -0.0039  0.1156
 4977W        W23181  16.796  16.563   4.852 -0.5261 -0.1852  0.2001
 4978W        W23182   3.551  12.588   1.686 -0.1945 -0.1549  0.0060
 4979W        W23183  18.328   9.614   3.795 -0.2966 -0.0169  0.2286
 4980W        W23184   1.026  10.145   4.375  0.1418  0.0871 -0.0017
 4981W        W23185   6.413   4.276   2.424  0.1532  0.0523 -0.0355
 4982W        W23186  18.338  15.451   2.310  0.1028 -0.0310  0.0220
 4983W        W23187  10.990   4.106  14.791  0.3204  0.1305 -0.0925
 4984W        W23188   9.958  12.000   4.069 -0.0706 -0.1384  0.2187
 4985W        W23189  16.429   0.385  13.535 -0.1060  0.0381  0.0980
 4986W        W23190  17.224  15.767   0.167  0.2404  0.1132  0.2455
 4987W        W23191  10.025  12.171   1.332  0.1885  0.2845 -0.1745
 4988W        W23192   6.275  16.383   0.253  0.0673 -0.2765 -0.1561
 4989W        W23193   2.197   3.109  15.448 -0.1204 -0.1999 -0.1995
 4990W        W23194  14.695  13.448   0.353  0.0485  0.0855 -0.1917
 4991W        W23195   0.821   5.753  11.637 -0.0265  0.1236  0.0092
 4992W        W23196   1.102  15.959  14.577 -0.2443  0.0163  0.1672
 4993W        W23197  17.965  11.391   3.205  0.0928 -0.1364 -0.1574
 4994W        W23198   4.319   7.821  14.361  0.2257  0.1274  0.0535
 4995W        W23199  12.489  14.188  12.505 -0.0329 -0.0360  0.0617
 4996W        W23200  11.288  14.682   3.772  0.3230  0.1416  0.0132
 4997W        W23201   5.004   3.546   3.471 -0.1643 -0.2090  0.2042
 4998W        W23202   4.218   2.604  12.388 -0.0288  0.1674 -0.1815
 4999W        W23203   5.521  13.687   2.515  0.0204 -0.3258 -0.0480
 5000W        W23204  11.347   8.613   3.655  0.1909  0.0874 -0.2668
 5001W        W23205   4.870   2.571  14.089  0.0569 -0.7115 -0.0511
 5002W        W23206   2.749  11.694   3.131  0.0456  0.1997 -0.2279
 5003W        W23207   2.178  11.811   0.386 -0.2487 -0.2209  0.2534
 5004W        W23208   4.768   7.844   2.418 -0.0877  0.1074  0.0116
 5005W        W23209  18.083   9.216   0.580 -0.0082  0.1406  0.2043
 5006W        W23210  10.441  10.574   1.662 -0.0082  0.3759 -0.1437
 5007W        W23211  18.253   6.830  10.138  0.0852  0.2670 -0.0374
 5008W        W23212  12.996   2.436   1.070 -0.0385 -0.0051 -0.0503
 5009W        W23213  13.829   9.691  12.920 -0.1246  0.0994  0.2464
 5010W        W23214  16.892  16.006   0.951 -0.1175  0.1220 -0.1489
 5011W        W23215  12.591  14.296   1.893  0.0720  0.0519 -0.0931
 5012W        W23216   2.909  15.043   4.441  0.0733 -0.1729  0.0041
 5013W        W23217   2.406  15.328  12.724 -0.1509 -0.3950  0.0406
 5014W        W23218  11.560  16.463  13.058 -0.1394  0.1587 -0.5033
 5015W        W23219  14.143  11.312   1.690  0.1671  0.1761 -0.1565
 5016W        W23220  15.466   5.753   1.901  0.1429  0.0352 -0.0490
 5017W        W23221   6.620  15.884   2.829 -0.0529  0.2432 -0.0218
 5018W        W23222  17.639   9.421   0.277  0.4209 -0.2528 -0.1711
 5019W        W23223   6.746   4.303   2.066 -0.1560 -0.0889  0.1455
 5020W        W23224   4.394   5.743  14.784  0.0794 -0.0065  0.3732
 5021W        W23225  12.500  15.573  13.581  0.0291  0.1072  0.0960
 5022W        W23226  16.349  17.218   0.732 -0.0301  0.3544  0.0748
 5023W        W23227   5.317   2.312   2.497 -0.2428 -0.1063 -0.1178
 5024W        W23228  11.462  13.862  15.161 -0.0263 -0.0325 -0.0927
 5025W        W23229   0.051   6.630   4.091  0.0368 -0.0124  0.0219
 5026W        W23230  16.996   5.599  15.025 -0.0368 -0.0182  0.0917
 5027W        W23231   7.607  16.913   4.691  0.1215 -0.0610  0.0231
 5028W        W23232   1.631  14.790   3.854  0.0305 -0.1098 -0.2462
 5029W        W23233  10.469  11.770   0.983  0.1573 -0.0339 -0.2669
 5030W        W23234   2.865  12.100   0.223  0.1041 -0.1237 -0.0499
 5031W        W23235  16.229   9.474   3.253  0.1401 -0.0020 -0.1816
 5032W        W23236  14.793  12.769   2.354  0.0430  0.0390  0.0994
 5033W        W23237  12.477  17.933   0.285 -0.2686  0.0168  0.1089
 5034W        W23238   4.927  16.490   2.934  0.0941 -0.1843  0.1393
 5035W        W23239  11.990  10.270   3.235  0.0118 -0.2255  0.2339
 5036W        W23240   3.964   5.987  15.015  0.2677 -0.1042  0.0210
 5037W        W23241   3.305   2.125  11.295  0.3575 -0.1639  0.0573
 5038W        W23242   8.305  10.841   2.332  0.0616  0.1049 -0.3336
 5039W        W23243  14.561  16.143   0.865  0.2338  0.0296  0.1641
 5040W        W23244   9.546  12.913   4.546  0.3704 -0.1023  0.5578
 5041W        W23245  14.872   9.486   0.624  0.1491 -0.0937 -0.0816
 5042W        W23246   1.680  17.909   2.013 -0.1558 -0.2527 -0.3077
 5043W        W23247  11.884  13.596  11.022  0.2840 -0.0490 -0.0846
 5044W        W23248   0.069   5.242  15.181  0.3161  0.0295  0.1273
 5045W        W23249   9.208  17.941   1.803  0.0784 -0.1366 -0.2070
 5046W        W23250  14.413   1.447   2.482 -0.0224  0.0515 -0.1519
 5047W        W23251  14.499   1.059   0.076 -0.1199 -0.0163  0.0559
 5048W        W23252   2.993  14.946  12.547 -0.0008  0.0911 -0.3317
 5049W        W23253   9.656   2.557   3.914 -0.1053  0.0336 -0.0857
 5050W        W23254   1.485   7.887   4.732 -0.0527  0.2326 -0.1435
 5051W        W23255   5.177   0.019   4.177  0.0544 -0.2405 -0.2027
 5052W        W23256   9.406  15.357  12.402  0.0710  0.2300  0.0410
 5053W        W23257  17.423   3.059  11.584 -0.0107  0.0534 -0.0608
 5054W        W23258  14.884   0.265   0.639  0.2048  0.3035 -0.2444
 5055W        W23259   2.438  14.954   1.154  0.2708 -0.1239 -0.4177
 5056W        W23260   3.290   4.869   3.686  0.1354  0.1402  0.2682
 5057W        W23261  18.288   6.707   3.309  0.0444  0.3839 -0.1716
 5058W        W23262   9.138  15.127   4.450 -0.0266 -0.0071  0.1397
 5059W        W23263   4.988  11.865   1.806  0.1380 -0.3544 -0.2460
 5060W        W23264   2.518  12.317   0.488  0.0093  0.2205 -0.0769
 5061W        W23265   8.651   1.653   4.571  0.1962 -0.1202 -0.1711
 5062W        W23266   5.311   4.408   3.008 -0.1074  0.2276  0.1021
 5063W        W23267   6.755  15.310   2.781 -0.0799 -0.1942  0.0145
 5064W        W23268   5.481   1.669   3.639 -0.3441  0.1836  0.0278
 5065W        W23269   9.886  12.569   1.097  0.0511  0.1578  0.0528
 5066W        W23270   3.447  11.270   2.874 -0.1796  0.3062  0.2218
 5067W        W23271   3.821   0.757  14.586 -0.0607 -0.1649 -0.1032
 5068W        W23272  12.543   3.640   2.343 -0.1864 -0.1080 -0.1877
 5069W        W23273   9.385   9.265  15.371  0.0333 -0.0944 -0.1815
 5070W        W23274   7.784   6.882  14.337 -0.1123  0.0541  0.0479
 5071W        W23275  12.239  16.772  14.053 -0.0400  0.0639  0.1805
 5072W        W23276   2.678   8.946  11.458  0.0319 -0.0968  0.2772
 5073W        W23277   9.768   3.296  11.865 -0.1112 -0.1819 -0.0861
 5074W        W23278   7.943  14.749   0.241  0.2132  0.0551 -0.1995
 5075W        W23279   9.110   6.584   4.640  0.0910 -0.0381  0.0210
 5076W        W23280  17.230   6.889   1.011 -0.3295  0.0497 -0.0558
 5077W        W23281  11.832   0.740  15.480  0.0491 -0.0807 -0.1589
 5078W        W23282  15.759  11.659  13.523  0.1037 -0.1716 -0.1230
 5079W        W23283   0.153   7.537   0.910  0.0470 -0.2135 -0.2218
 5080W        W23284  13.259   3.078   0.393  0.1138 -0.1711  0.1834
 5081W        W23285   2.488   1.784   0.829  0.0894 -0.1459 -0.1219
 5082W        W23286   0.889   8.931  15.254 -0.1285 -0.0757 -0.0008
 5083W        W23287  13.363  12.101   5.415  0.3127 -0.1318  0.1982
 5084W        W23288  11.430   2.738  13.229 -0.3232  0.2851  0.0042
 5085W        W23289  10.618  13.882   2.589  0.0813  0.0363 -0.0794
 5086W        W23290  15.242  17.332  15.206  0.1555  0.2642 -0.0921
 5087W        W23291  10.775  15.842   0.451  0.0071 -0.1163 -0.0184
 5088W        W23292  10.080  15.726  11.726 -0.0508  0.3654  0.0414
 5089W        W23293   4.767   6.847   1.545  0.3847 -0.3118 -0.2095
 5090W        W23294  13.035   6.255   3.892 -0.1728 -0.0109 -0.0661
 5091W        W23295  11.810  13.618  11.843 -0.1466 -0.0264  0.1360
 5092W        W23296   8.112   0.546  14.550 -0.0356  0.1210 -0.1168
 5093W        W23297   4.573   8.351  10.497  0.1223 -0.1885  0.2132
 5094W        W23298  14.472  11.699   0.039 -0.0440 -0.0568 -0.1023
 5095W        W23299   7.044   8.073  12.159 -0.0683 -0.4104 -0.1403
 5096W        W23300   8.669  13.545   1.728 -0.1081 -0.1919 -0.0478
 5097W        W23301  16.243   8.940  13.468 -0.0414 -0.3014 -0.0606
 5098W        W23302  10.516   1.038  12.462  0.1306 -0.0966 -0.1108
 5099W        W23303  11.887   1.736   1.784  0.0270  0.2133  0.1556
 5100W        W23304  15.053   9.047   2.317 -0.1321  0.1036  0.1096
 5101W        W23305   9.014  17.031  14.772  0.2779 -0.0882 -0.1041
 5102W        W23306   5.877   6.018  14.574  0.2493  0.3219  0.2404
 5103W        W23307   7.740   1.836   2.894 -0.1598  0.3253 -0.0203
 5104W        W23308  11.594   0.170  15.526  0.1330 -0.3377 -0.0465
 5105W        W23309   7.994   9.496   3.541  0.0511 -0.1209 -0.1028
 5106W        W23310  16.989  16.154   1.693 -0.1917  0.0925 -0.0948
 5107W        W23311   6.823   3.219  15.699 -0.2008  0.0028 -0.1888
 5108W        W23312  14.194   2.369  13.607 -0.1705 -0.1267 -0.1924
 5109W        W23313   5.492   9.050  11.393 -0.0444  0.0688  0.1392
 5110W        W23314   4.376  13.900   1.606 -0.0162  0.2723  0.1568
 5111W        W23315   9.926   2.844   1.732 -0.0824  0.3434 -0.1889
 5112W        W23316  16.190   5.920  11.051  0.0740 -0.5700 -0.2288
 5113W        W23317   4.642  12.596   3.571  0.4013 -0.2311 -0.3410
 5114W        W23318  14.966   0.268  12.184 -0.4353 -0.3198 -0.2468
 5115W        W23319  11.417   6.398   2.222  0.3266 -0.0227  0.1762
 5116W        W23320  13.313  12.739   1.133  0.0390 -0.0528  0.0277
 5117W        W23321  13.956  12.038  11.698 -0.1133  0.3022  0.2239
 5118W        W23322   8.386   0.225  10.970  0.0204 -0.0949 -0.1025
 5119W        W23323   1.155   3.842  12.584  0.0655  0.2257 -0.2086
 5120W        W23324   7.874   6.424   1.727 -0.0196  0.1267 -0.2053
 5121W        W23325   6.978   9.539   0.451  0.1606  0.2147 -0.1483
 5122W        W23326  14.510   0.512   2.301  0.0563  0.1287 -0.0078
 5123W        W23327   1.867  12.857  14.626  0.1393 -0.0109  0.1427
 5124W        W23328   6.480  17.851  14.123 -0.0872 -0.1403 -0.0473
 5125W        W23329  15.040   5.366  14.843 -0.2148  0.5223  0.0571
 5126W        W23330  18.306  15.716  13.692  0.0905 -0.0519 -0.1229
 5127W        W23331  12.711  15.672  11.185  0.1011 -0.0996 -0.3532
 5128W        W23332   9.673  12.132   5.064 -0.1257  0.0980  0.1832
 5129W        W23333  14.060   0.669   2.151  0.0972 -0.0508  0.2264
 5130W        W23334   1.552   7.096   1.435  0.0732  0.0502  0.2341
 5131W        W23335  10.804  10.053  13.222  0.0056 -0.1077 -0.1020
 5132W        W23336  14.585  14.759   2.855 -0.0748  0.2680 -0.2919
 5133W        W23337   1.550  16.442  14.461  0.0412  0.2273 -0.1487
 5134W        W23338   2.036  11.548  13.200 -0.0301  0.1037 -0.2909
 5135W        W23339   8.308   1.267   4.577 -0.0254  0.0062 -0.1679
 5136W        W23340   5.296  12.989   1.269  0.2030  0.1728 -0.6592
 5137W        W23341  18.091   6.520   2.677  0.2003 -0.2430  0.2417
 5138W        W23342  11.093   5.666  15.369  0.0169 -0.0675  0.0290
 5139W        W23343   9.906   8.354  12.943  0.2536  0.1641 -0.1117
 5140W        W23344   5.638   7.574  13.232 -0.2613  0.3242 -0.0236
 5141W        W23345  10.917   6.072  15.695  0.0088  0.0682 -0.0994
 5142W        W23346  11.693  11.132  11.362  0.0608 -0.0555 -0.1658
 5143W        W23347   5.032  12.322   2.709  0.1073  0.0941 -0.0125
 5144W        W23348  10.103   4.466   4.093 -0.1065 -0.0793 -0.3580
 5145W        W23349   9.999  11.979   5.473  0.1260  0.1018  0.1247
 5146W        W23350  14.964   7.625  13.809  0.1137 -0.1164  0.1190
 5147W        W23351   6.719   7.125  15.346  0.3283  0.2381  0.0332
 5148W        W23352   1.045   9.988   3.402  0.3464 -0.1056 -0.1562
 5149W        W23353  14.527   5.308   2.551 -0.1648  0.0343 -0.2251
 5150W        W23354   2.898   9.334   1.902  0.1021  0.0276 -0.2052
 5151W        W23355  14.258   6.337  12.761 -0.0190 -0.2290 -0.0050
 5152W        W23356  17.547   8.219   4.686 -0.1077 -0.1980  0.1695
 5153W        W23357   0.309  17.660   2.070 -0.2456 -0.0003  0.2930
 5154W        W23358  11.110   8.208  10.982 -0.0561  0.1412 -0.1300
 5155W        W23359   8.866  10.526   1.597  0.1224 -0.0578 -0.1376
 5156W        W23360   4.874   3.818  13.850  0.0903  0.1713  0.1503
 5157W        W23361   5.903  17.937  12.337 -0.0927  0.2214 -0.0410
 5158W        W23362  10.220  15.314  14.850  0.0587  0.1167  0.0644
 5159W        W23363   5.354   3.287  13.371  0.0420 -0.2830 -0.0498
 5160W        W23364   7.266  11.107  13.419 -0.0334  0.0811  0.2738
 5161W        W23365  17.080   6.183   1.587 -0.0100 -0.2242  0.2799
 5162W        W23366  17.242  17.055  13.073 -0.0208  0.0646  0.3652
 5163W        W23367  17.313  11.119   0.874  0.1129  0.0285 -0.1509
 5164W        W23368  12.330  17.644   2.094  0.0978 -0.0171  0.1808
 5165W        W23369   1.555   0.931   2.564 -0.0862  0.2138 -0.0195
 5166W        W23370   4.992  15.333   1.884 -0.2196 -0.0481 -0.0161
 5167W        W23371   7.659   7.894   5.121  0.2144  0.1463  0.1873
 5168W        W23372  12.756   2.067   0.739 -0.1225 -0.2136 -0.0013
 5169W        W23373   4.486   5.244  11.050 -0.1289  0.0869 -0.3931
 5170W        W23374  10.341  16.852   1.065 -0.1289 -0.0066  0.4288
 5171W        W23375  11.886   2.815  11.855 -0.0464  0.1471 -0.1665
 5172W        W23376  14.500   1.521   0.241  0.3533 -0.0444 -0.0163
 5173W        W23377   8.860  15.158  12.013 -0.2539 -0.2062  0.1830
 5174W        W23378  16.076   8.410   1.692  0.1213  0.0568  0.1166
 5175W        W23379   4.734   2.543  13.569  0.1520  0.2249  0.1214
 5176W        W23380  11.463  12.117  12.550  0.0626 -0.0615  0.0632
 5177W        W23381   1.683  12.396   3.682  0.0076  0.0122 -0.0152
 5178W        W23382  16.513  12.132  10.993  0.0975 -0.0489  0.1219
 5179W        W23383   0.474   8.563  13.863  0.1951 -0.0333 -0.0610
 5180W        W23384  15.831  13.634   3.176  0.3869 -0.0478 -0.1800
 5181W        W23385   7.859  17.067  13.514  0.0860  0.1052 -0.0018
 5182W        W23386  15.438   7.234  12.128  0.0434 -0.0374 -0.1062
 5183W        W23387   0.089  16.179  13.866  0.0546  0.2284  0.4520
 5184W        W23388   7.287  11.410   1.560 -0.1514  0.0052 -0.0820
 5185W        W23389   9.103  14.663   2.421  0.0733 -0.0449 -0.1314
 5186W        W23390  16.364  18.220   0.461  0.0672 -0.0134  0.1643
 5187W        W23391   5.973  12.065  13.072  0.0071 -0.0187 -0.0804
 5188W        W23392   5.540  12.496  10.309 -0.0979 -0.1017 -0.0528
 5189W        W23393  15.347  10.707  10.112  0.0654 -0.0351 -0.1535
 5190W        W23394   9.222  14.844  13.072 -0.2189  0.2556  0.2678
 5191W        W23395  17.171  10.367   0.470 -0.1285  0.0368  0.2854
 5192W        W23396  11.021   2.160   3.562 -0.0338 -0.1170  0.1747
 5193W        W23397  12.517  13.638   0.183  0.2557  0.0561 -0.3201
 5194W        W23398  13.153   9.695   0.356  0.0834  0.0277 -0.1355
 5195W        W23399  16.631   5.723   2.329 -0.1941 -0.3556 -0.2192
 5196W        W23400  10.765  18.174   2.781  0.0273 -0.1138  0.2170
 5197W        W23401   8.371  15.808  14.580 -0.0666 -0.1617  0.0709
 5198W        W23402   2.410  17.718  15.098  0.3246 -0.0056 -0.2107
 5199W        W23403  11.412  13.480   1.582  0.2151  0.1038  0.1762
 5200W        W23404   0.934   7.388  13.140  0.2612  0.0035 -0.0730
 5201W        W23405   7.440  16.922  13.272  0.0881  0.3156  0.0548
 5202W        W23406   6.137   4.711  14.614  0.0722  0.0931 -0.1555
 5203W        W23407  14.140   0.100  14.729 -0.0076  0.0065  0.0781
 5204W        W23408  10.491   1.338  15.630  0.0591  0.2700 -0.1146
 5205W        W23409   7.167  13.975  11.718  0.2002 -0.1342  0.0169
 5206W        W23410  16.645  14.086  11.122  0.1375  0.0719  0.1595
 5207W        W23411   8.856   8.257  12.436 -0.1777  0.2612  0.3977
 5208W        W23412  11.878   1.977   3.316  0.2878 -0.0461  0.1676
 5209W        W23413   7.008   0.270   2.143 -0.1145 -0.1900 -0.3216
 5210W        W23414   5.762   0.590  11.463  0.2157  0.0326  0.1433
 5211W        W23415  12.962  10.507   0.883 -0.0744  0.0922 -0.1208
 5212W        W23416  10.289  16.588  13.859 -0.1066 -0.2576 -0.0253
 5213W        W23417   4.275  11.218   2.344  0.1312 -0.2376 -0.1276
 5214W        W23418   2.833   7.044  13.795  0.0289  0.0885 -0.2595
 5215W        W23419   3.788   0.173  13.184 -0.1807  0.0349 -0.1620
 5216W        W23420   2.632   0.193  15.034  0.2677  0.2986 -0.0232
 5217W        W23421   3.907   9.079   2.863  0.3764  0.4098  0.3697
 5218W        W23422  12.896   5.601   3.356  0.3645  0.2263  0.1735
 5219W        W23423  12.487  14.537  15.470  0.3593 -0.3631  0.2225
 5220W        W23424   0.421  13.894  11.593  0.2707 -0.1267  0.5259
 5221W        W23425  10.513   0.799  11.002  0.2138 -0.0161 -0.0226
 5222W        W23426  13.120   9.275   2.033  0.4042  0.0734  0.1090
 5223W        W23427   5.767   2.013   3.837  0.2391  0.2417  0.1088
 5224W        W23428  10.773   2.177  14.246 -0.0593  0.2280  0.0348
 5225W        W23429  17.475   8.486   3.513 -0.1954  0.0124 -0.2298
 5226W        W23430   6.243   7.174  15.240  0.2722 -0.0552  0.0648
 5227W        W23431  17.717   5.759   3.100  0.0992 -0.0278  0.4028
 5228W        W23432   4.088  13.171   0.981  0.1882 -0.0770 -0.1646
 5229W        W23433   8.242   0.040  14.577 -0.2062  0.1462 -0.1660
 5230W        W23434   3.677  14.863  15.025 -0.1534 -0.1410 -0.0341
 5231W        W23435   4.467  15.887  14.307 -0.2967 -0.4727 -0.2623
 5232W        W23436   5.504  15.773  11.216 -0.2170 -0.1160  0.1639
 5233W        W23437   4.146  16.494   1.805 -0.0060  0.1660  0.0497
 5234W        W23438   2.484   4.432  12.944 -0.1090 -0.1007  0.0778
 5235W        W23439   6.258  16.901  15.312  0.0600 -0.0607 -0.1039
 5236W        W23440   0.870   9.249   3.296 -0.1065  0.1249 -0.1106
 5237W        W23441  10.863  13.307  15.607 -0.1524 -0.0798 -0.0603
 5238W        W23442   3.009   0.506  15.622 -0.1723  0.0741 -0.0000
 5239W        W23443   0.910   6.048   3.482 -0.0286  0.3016 -0.2443
 5240W        W23444  18.218  12.426   1.763 -0.0749 -0.0023  0.1197
 5241W        W23445   8.355   5.684   1.489  0.0854  0.2125  0.0349
 5242W        W23446  13.311  12.667  14.180 -0.3220 -0.1301  0.0697
 5243W        W23447  15.577   7.580   1.324  0.0392 -0.2090  0.0865
 5244W        W23448   8.389   8.772  13.179 -0.0627 -0.2222 -0.0166
 5245W        W23449  18.227  15.603  15.358 -0.2535  0.0080 -0.2619
 5246W        W23450   5.555   9.924  14.295  0.0321  0.1946  0.1420
 5247W        W23451   6.928   0.706  12.686 -0.0302  0.0595 -0.0972
 5248W        W23452   4.000   8.499  11.448 -0.0073  0.1394 -0.0470
 5249W        W23453  15.562  11.897  15.075 -0.0128 -0.0014  0.1043
 5250W        W23454   7.474   8.929   4.207 -0.0904  0.4466 -0.0006
 5251W        W23455   1.955  17.934  12.891  0.1365  0.0901  0.1326
 5252W        W23456  18.156  13.984  12.290 -0.1024  0.0893 -0.0211
 5253W        W23457  10.021  13.108  11.629 -0.0054 -0.1826  0.4750
 5254W        W23458  11.706  12.824  14.701  0.0645 -0.1447  0.1245
 5255W        W23459  14.896   8.436   0.700 -0.0318 -0.1023  0.1386
 5256W        W23460   2.204  16.937   2.250 -0.0158  0.0640  0.0978
 5257W        W23461  16.926  10.745   3.562  0.0387  0.0078 -0.0240
 5258W        W23462   0.022   9.426   2.449  0.0356  0.3701 -0.2892
 5259W        W23463   5.204  16.957  13.105  0.2419 -0.1477 -0.1191
 5260W        W23464  13.913   6.845  11.486  0.0103  0.3410  0.0205
 5261W        W23465  15.583  12.957   3.496 -0.0487 -0.0731 -0.0569
 5262W        W23466  12.230  16.467   4.849 -0.3640 -0.1912  0.1618
 5263W        W23467  13.563   0.580  11.883  0.0523 -0.3352  0.1003
 5264W        W23468   6.701  11.458  12.602 -0.0322  0.5027  0.1846
 5265W        W23469   7.391   0.241   0.371 -0.0880  0.0544 -0.0429
 5266W        W23470   0.853   2.603  12.902 -0.0694 -0.2383  0.0653
 5267W        W23471   0.558   9.990   3.009  0.0089  0.1765  0.0278
 5268W        W23472   3.685   9.302   1.496  0.1484 -0.1040 -0.0986
 5269W        W23473   3.384  15.860   0.227  0.1179  0.3828  0.0740
 5270W        W23474   3.253   0.668  14.544 -0.1732 -0.1196  0.0081
 5271W        W23475   5.304   5.707   3.154 -0.0887  0.1045  0.2902
 5272W        W23476   9.216   5.094   3.251  0.0757  0.0136 -0.0746
 5273W        W23477   2.046   7.231   0.876 -0.1975  0.0355  0.1480
 5274W        W23478   9.813  15.864  11.330  0.1799 -0.0151 -0.0950
 5275W        W23479   4.021   7.802   0.299  0.0191  0.0156 -0.2697
 5276W        W23480  17.328  14.562  15.091  0.1432  0.0355  0.2017
 5277W        W23481   9.357   6.385   4.323 -0.0069  0.0179  0.3470
 5278W        W23482   2.351   7.513  11.690  0.2134  0.1007 -0.2202
 5279W        W23483  14.322   7.915   1.496  0.1322 -0.1045 -0.0821
 5280W        W23484  17.517   7.833  12.799 -0.0297  0.0127  0.2743
 5281W        W23485  15.707   2.868  14.293 -0.0526  0.1206 -0.0201
 5282W        W23486   6.477   9.713  13.649 -0.1413  0.0996  0.1041
 5283W        W23487  13.946  17.612  14.776 -0.0954  0.1798 -0.0497
 5284W        W23488   4.993   6.221  13.752 -0.0314 -0.0263 -0.2624
 5285W        W23489   6.211   3.348  11.154 -0.0777 -0.2257 -0.0482
 5286W        W23490  11.945   2.208   0.141  0.2093  0.2803  0.2504
 5287W        W23491   9.226  13.416  12.138  0.0352 -0.0380 -0.1452
 5288W        W23492  11.011  18.330   3.750  0.1797  0.1830  0.1105
 5289W        W23493   7.344   1.690  13.680 -0.2012  0.1697 -0.0661
 5290W        W23494   2.842  10.124   1.613 -0.0424  0.3160  0.0048
 5291W        W23495  11.936   2.600   5.529  0.1412  0.0370  0.1000
 5292W        W23496   2.596   1.368   2.719 -0.2604  0.0427 -0.3460
 5293W        W23497   3.291   4.484  13.365  0.1935  0.2319  0.4248
 5294W        W23498   1.578   5.526   0.083  0.3571 -0.0314  0.0892
 5295W        W23499  15.605  11.724   4.172 -0.0929 -0.4587 -0.2111
 5296W        W23500   1.652  11.497  15.264 -0.2584 -0.0154 -0.0856
 5297W        W23501  16.251   2.253  11.627 -0.5500  0.5439  0.1924
 5298W        W23502   6.176   7.921   4.567  0.2416 -0.2098 -0.1141
 5299W        W23503   6.708   9.726   3.641 -0.1224  0.1830 -0.3558
 5300W        W23504  11.622  12.434   2.671 -0.1768 -0.1213  0.1441
 5301W        W23505  16.737   9.608  13.878  0.0027 -0.0867 -0.0893
 5302W        W23506  12.933   6.955   3.048  0.0829 -0.0390  0.2269
 5303W        W23507   6.374  11.097   3.540  0.0452 -0.0751  0.2096
 5304W        W23508   7.533   3.555  13.176 -0.1047 -0.4236  0.1403
 5305W        W23509  16.817  16.844   1.566  0.4084  0.0849 -0.0768
 5306W        W23510  13.785   7.672   4.972 -0.0038 -0.0267 -0.1715
 5307W        W23511  10.309   3.251  10.329  0.1193  0.2933 -0.0114
 5308W        W23512  11.358   0.183   0.340 -0.0144  0.0303 -0.2705
 5309W        W23513  11.089  11.301   2.850 -0.1397  0.2094 -0.3124
 5310W        W23514   1.315   0.487  13.583 -0.2644  0.0868  0.1872
 5311W        W23515  11.933  11.989   2.442 -0.2427 -0.2324 -0.4751
 5312W        W23516   4.422   2.646   0.196 -0.0375  0.0658  0.2470
 5313W        W23517   5.205  14.216  11.246  0.1946 -0.1972  0.0732
 5314W        W23518   6.053  11.495  11.559 -0.2513  0.0715 -0.1101
 5315W        W23519   0.035  18.238   2.417  0.0734 -0.1835 -0.0707
 5316W        W23520  16.269   5.414  12.472 -0.1530  0.1060  0.1952
 5317W        W23521   8.636   5.373   4.047 -0.0307  0.3270 -0.1609
 5318W        W23522  17.580  14.994  12.857  0.1349  0.2048 -0.0157
 5319W        W23523  17.956  10.194   4.761 -0.0106  0.2577 -0.0552
 5320W        W23524   8.718  17.716   3.663  0.2502 -0.3176  0.3765
 5321W        W23525  13.816   6.837  12.390  0.1453  0.0663 -0.0247
 5322W        W23526  13.723   0.135   2.768 -0.0950  0.1538  0.2254
 5323W        W23527   8.305  13.069  15.678  0.2254  0.0500  0.3130
 5324W        W23528   8.113   3.207  14.309 -0.0131  0.1141  0.3316
 5325W        W23529   1.223   1.567   1.799  0.2207  0.0516 -0.0032
 5326W        W23530   8.412   3.495  12.237  0.3652 -0.1671  0.1762
 5327W        W23531   6.112  10.689   3.467 -0.0137 -0.1458 -0.1011
 5328W        W23532   4.207  16.886   2.281 -0.0463 -0.2468 -0.2802
 5329W        W23533   6.595   2.134   3.593 -0.2922  0.0606  0.0371
 5330W        W23534  15.015   5.651   0.950  0.0535  0.2823  0.5411
 5331W        W23535  14.005  12.436  14.201  0.1076 -0.5032  0.1776
 5332W        W23536   7.914   1.266   4.301  0.0640 -0.1161  0.0987
 5333W        W23537  12.118   7.250   4.835 -0.0294  0.2177 -0.0325
 5334W        W23538  12.480   4.794   0.093  0.0739 -0.0653  0.3622
 5335W        W23539   8.665   3.124   3.429 -0.2136 -0.1741 -0.0239
 5336W        W23540   4.020  12.031   3.140 -0.1154 -0.1024 -0.2969
 5337W        W23541   9.311  17.512   2.144  0.0054 -0.0717  0.0851
 5338W        W23542   1.686  15.840   4.754  0.0772  0.0353  0.0341
 5339W        W23543  12.643   8.724   1.526  0.0124  0.0584  0.3973
 5340W        W23544  12.507  12.303   0.697  0.0013  0.1178 -0.0874
 5341W        W23545  10.892   6.702   2.830  0.0188 -0.4573 -0.1455
 5342W        W23546   5.356   3.678   1.327 -0.0301  0.1627 -0.0965
 5343W        W23547  11.605  13.361  14.866  0.1951  0.0962 -0.0243
 5344W        W23548   0.386  10.835  15.189  0.0217  0.0221  0.1089
 5345W        W23549  16.415   2.571  12.778 -0.0785 -0.5661  0.1430
 5346W        W23550   2.150   2.332   0.935 -0.2125 -0.4844 -0.1377
 5347W        W23551   3.096   5.601  13.621 -0.2763  0.0757 -0.0086
 5348W        W23552   4.475   2.350   3.574  0.2262 -0.1535  0.1925
 5349W        W23553  10.573   3.328   0.949  0.2453  0.0674 -0.1620
 5350W        W23554  17.749  13.247   0.430 -0.0363 -0.5053  0.2075
 5351W        W23555   9.526  10.205   1.671 -0.2274 -0.2748  0.5760
 5352W        W23556   9.058   0.471   4.511 -0.2918 -0.0648  0.3329
 5353W        W23557   4.105   4.328  12.520  0.0959  0.1026 -0.1436
 5354W        W23558   8.425  11.751  13.114  0.1865 -0.1336  0.1948
 5355W        W23559  12.903   6.525  10.398 -0.1038 -0.1675 -0.1033
 5356W        W23560   6.713   5.581  13.468 -0.4748 -0.0043 -0.0324
 5357W        W23561  16.114  17.007  12.008  0.0054 -0.1514 -0.0443
 5358W        W23562  13.676   2.671  13.632  0.1655 -0.1197  0.1614
 5359W        W23563  15.156  12.435  14.846 -0.0556 -0.0906  0.2267
 5360W        W23564   8.864   1.735  12.793 -0.1754  0.1969 -0.0054
 5361W        W23565   3.800  11.352  14.572  0.4588 -0.0700 -0.3595
 5362W        W23566  15.454  16.544  15.222  0.4965  0.2172 -0.1223
 5363W        W23567   3.917   2.602   0.898 -0.1018  0.0365 -0.6843
 5364W        W23568   4.919   1.532   3.702 -0.0580  0.0738  0.1467
 5365W        W23569   0.230  14.950  15.092  0.1155  0.3953 -0.0536
 5366W        W23570   6.234   0.556  12.071  0.3264 -0.0516 -0.0135
 5367W        W23571  17.953   6.776  14.386  0.1496 -0.1422  0.1475
 5368W        W23572   0.357  12.947   4.157  0.1507 -0.0841  0.4389
 5369W        W23573   7.934  16.366  12.029 -0.0168 -0.0763  0.1447
 5370W        W23574   0.447   9.437  14.833  0.1901  0.0071  0.0373
 5371W        W23575   8.589  11.945   1.406 -0.1664 -0.1801  0.1778
 5372W        W23576  12.770   7.053  13.558 -0.3585 -0.0397  0.0916
 5373W        W23577   4.485  16.132   2.110 -0.0618  0.0325 -0.2660
 5374W        W23578   1.581   7.780   3.174 -0.2734  0.2891  0.0311
 5375W        W23579  11.646   7.320   3.886 -0.0335 -0.1685  0.2824
 5376W        W23580   4.541   8.390  13.538 -0.2483  0.1445 -0.2197
 5377W        W23581   0.095  14.337  14.203 -0.0455 -0.2060 -0.3913
 5378W        W23582   2.714   5.025  13.638  0.2302 -0.0001  0.2344
 5379W        W23583  13.603  12.250   2.903 -0.1023 -0.5562  0.1363
 5380W        W23584  13.712   4.847  14.068  0.2201  0.3109  0.2185
 5381W        W23585   7.064  16.662  11.150  0.2184 -0.3932  0.1552
 5382W        W23586   3.757   1.793   2.729 -0.2332  0.3769 -0.1843
 5383W        W23587  10.488  17.812   1.945 -0.2641  0.0036 -0.0492
 5384W        W23588  15.524   6.708  11.330 -0.0967 -0.0677  0.0187
 5385W        W23589  14.859   5.884   3.112  0.1231 -0.1130  0.1019
 5386W        W23590   2.560   0.578   4.349 -0.0843  0.0794  0.4342
 5387W        W23591   9.234   1.173   4.958  0.0767  0.4272  0.2430
 5388W        W23592  16.219   6.324  11.622  0.3397 -0.2823 -0.1424
 5389W        W23593  13.403  12.576   0.673 -0.2732 -0.1963  0.0898
 5390W        W23594   9.318  12.895  12.115  0.2403  0.0763 -0.1663
 5391W        W23595   5.943  11.156  13.224  0.1795  0.2508  0.1106
 5392W        W23596   9.683  17.339   4.086 -0.1693 -0.0124  0.0995
 5393W        W23597   5.031   3.620   2.347  0.0385 -0.2371  0.1591
 5394W        W23598  12.154  10.904  15.222  0.2755  0.0137  0.0512
 5395W        W23599  14.851   9.390  15.391  0.2351 -0.0369  0.1419
 5396W        W23600   0.671   0.503  12.896 -0.1087  0.0239 -0.1975
 5397W        W23601   1.616  15.948   3.175 -0.0854 -0.1682  0.3040
 5398W        W23602   0.739   0.090  14.265  0.0141 -0.0658 -0.1311
 5399W        W23603   1.990  12.122  14.649  0.1076  0.1731 -0.4916
 5400W        W23604  14.157   5.675   1.695  0.2509 -0.0197  0.2681
 5401W        W23605   8.571   3.848  12.938  0.5152 -0.0556  0.1015
 5402W        W23606  13.033  14.279  11.697  0.0790  0.2303 -0.0153
 5403W        W23607   2.133  16.059   4.745  0.1041  0.0303 -0.0975
 5404W        W23608  14.862  13.961   4.400  0.0753  0.2057  0.1223
 5405W        W23609   7.897  14.635  12.627 -0.2134 -0.1379 -0.0644
 5406W        W23610   2.469  15.870  12.586  0.1853  0.0505 -0.1110
 5407W        W23611  12.544   0.528  15.309  0.0121  0.0393 -0.0374
 5408W        W23612   4.856  11.429   4.061 -0.0906  0.1281  0.0006
 5409W        W23613   5.225  14.059   9.804  0.0287  0.1522 -0.1836
 5410W        W23614  14.685   9.967   2.667 -0.1938  0.0410  0.3011
 5411W        W23615  15.062   7.786  15.155  0.0688  0.0912  0.3660
 5412W        W23616  16.071   4.819  13.828  0.2794  0.0282 -0.0143
 5413W        W23617   7.011  16.435  12.730  0.1296  0.2963  0.0617
 5414W        W23618   6.135  10.259   5.282 -0.0318  0.2038 -0.1116
 5415W        W23619  12.019   6.038  12.427 -0.1052 -0.1277 -0.1760
 5416W        W23620   6.534  10.731  13.869 -0.0383  0.0362  0.2006
 5417W        W23621  13.416   7.287  14.867  0.2680  0.2184  0.1814
 5418W        W23622  11.960  14.635  13.249  0.0028  0.0120 -0.0024
 5419W        W23623  14.060  11.597  11.256  0.2196 -0.0690  0.0469
 5420W        W23624  13.021   0.172   0.326 -0.1102  0.3301 -0.0069
 5421W        W23625  14.855  11.923  11.817 -0.1698 -0.0836 -0.0742
 5422W        W23626   2.856   4.565   3.509  0.5027  0.0628 -0.0464
 5423W        W23627   3.003  11.778   0.837  0.1169 -0.4187 -0.1904
 5424W        W23628  10.787  13.274   1.510  0.0789 -0.0468 -0.1040
 5425W        W23629  17.602  17.027  12.711  0.0677  0.0817 -0.1852
 5426W        W23630   6.807  14.245   3.118 -0.1203 -0.1616 -0.0840
 5427W        W23631  11.828   4.087   3.005 -0.0399  0.2718 -0.2582
 5428W        W23632   0.525  12.903  12.155  0.1792  0.0093  0.2447
 5429W        W23633  13.004   0.713   0.791  0.0799 -0.1461 -0.1317
 5430W        W23634  11.128  14.007   0.558 -0.3706  0.0420  0.1164
 5431W        W23635   7.208  11.266   3.400  0.2466 -0.1704  0.2132
 5432W        W23636  17.459  16.424  12.792 -0.1496 -0.2361  0.1180
 5433W        W23637   2.373  13.930   0.378  0.0004 -0.0424  0.1284
 5434W        W23638   3.606  10.305  13.204  0.0723  0.2312 -0.0321
 5435W        W23639  17.230   1.594  12.877 -0.3969 -0.1455  0.0238
 5436W        W23640   9.618   1.780   2.281  0.2066  0.0235 -0.0374
 5437W        W23641  12.637   1.343   3.753  0.2226 -0.0155 -0.3675
 5438W        W23642   7.183  10.774  12.987  0.2163  0.1287 -0.1466
 5439W        W23643   0.636  11.596   3.896 -0.2235  0.2301  0.4230
 5440W        W23644   1.956  11.318   1.101 -0.2046  0.0719  0.1219
 5441W        W23645  11.284  11.007   0.014 -0.1967  0.0108 -0.0891
 5442W        W23646  17.920   9.013   1.979  0.0035 -0.2782  0.0653
 5443W        W23647   3.890  10.381   2.424  0.1611  0.0252 -0.0674
 5444W        W23648  16.088   0.275  12.336  0.2641 -0.0047  0.0206
 5445W        W23649   2.002   9.740   3.664  0.0720  0.0011 -0.1256
 5446W        W23650  15.499  15.030  15.294 -0.0371  0.0857 -0.0096
 5447W        W23651   0.883   9.846   2.642  0.0897 -0.2187  0.1378
 5448W        W23652  10.518   5.224   3.510  0.1605 -0.1154 -0.0339
 5449W        W23653  11.780  17.876  14.508 -0.0108 -0.0933  0.1624
 5450W        W23654   4.138   3.157   5.300  0.0944  0.2583  0.3212
 5451W        W23655  16.469  18.317  13.243 -0.0741  0.2337  0.3979
 5452W        W23656  17.443   7.534   1.141  0.0407 -0.0261 -0.0156
 5453W        W23657  15.435  13.311   2.526  0.3910 -0.4818  0.2346
 5454W        W23658   2.766   4.206   3.872  0.2102  0.0325 -0.1691
 5455W        W23659  12.714   3.908   2.791  0.0398 -0.0994 -0.1089
 5456W        W23660  16.905  10.275   5.218 -0.0865  0.2704 -0.0807
 5457W        W23661  13.327   7.101  12.984 -0.0691  0.2442 -0.1103
 5458W        W23662   6.186  10.372   4.740 -0.6629  0.2998 -0.0642
 5459W        W23663  11.914  18.079   1.059 -0.0869  0.0039 -0.0770
 5460W        W23664   1.609   8.507  13.763 -0.1388  0.3633 -0.0463
 5461W        W23665  14.436  12.238   4.487 -0.2299  0.2040  0.1181
 5462W        W23666  17.066  15.260  12.014 -0.0066  0.1394 -0.0010
 5463W        W23667  10.162  13.042   4.626 -0.0969  0.0405  0.0867
 5464W        W23668   6.608  18.019  14.626  0.2316 -0.1515 -0.0940
 5465W        W23669  16.255   8.059  13.105  0.1253 -0.2040  0.3321
 5466W        W23670  13.833  18.079   1.424 -0.3031  0.1337  0.2606
 5467W        W23671   7.542  17.057   5.133 -0.0243  0.0411 -0.1646
 5468W        W23672   1.710  13.590  11.443  0.1337 -0.0232  0.0784
 5469W        W23673  11.295  14.706  14.593  0.1223 -0.1507  0.1954
 5470W        W23674   6.967   0.217  12.912  0.0766  0.3724 -0.0204
 5471W        W23675  10.311  13.413   3.299  0.0853  0.0444  0.1282
 5472W        W23676  16.483   0.379   4.558 -0.0125 -0.2582 -0.0748
 5473W        W23677   2.582  18.149  14.705 -0.0384 -0.1301 -0.2419
 5474W        W23678   9.411  11.728  14.657 -0.0163  0.0130 -0.1276
 5475W        W23679  14.759   0.308  12.772  0.1080 -0.1705  0.0589
 5476W        W23680  15.106  14.207   5.130 -0.2644  0.2868 -0.0074
 5477W        W23681  16.358  10.489  11.819  0.1774  0.1797  0.0067
 5478W        W23682   1.111  16.602  10.617  0.0845  0.1666  0.1440
 5479W        W23683  15.092   4.509   3.858 -0.3833 -0.0195 -0.0444
 5480W        W23684  11.093   3.072  14.748  0.0085  0.1879  0.2026
 5481W        W23685   0.393  15.591   1.021 -0.0598  0.0006  0.0014
 5482W        W23686  15.889   5.596   2.763 -0.0134 -0.1518  0.0318
 5483W        W23687  18.364   6.351   2.060  0.1283  0.2113  0.0789
 5484W        W23688   0.419  12.251  15.268  0.1288  0.0669 -0.2442
 5485W        W23689  12.597  13.002  15.110  0.3835  0.0426 -0.1754
 5486W        W23690   7.838   6.921   0.635  0.1423  0.1764  0.2390
 5487W        W23691   9.992   9.613   2.278  0.1327 -0.0326 -0.3439
 5488W        W23692   4.478  14.793   0.326  0.0910 -0.1627 -0.0879
 5489W        W23693  16.894  11.089  11.663 -0.3014 -0.2893  0.0535
 5490W        W23694  15.337   6.229   3.100  0.2427 -0.1187 -0.2081
 5491W        W23695   0.959  16.352   2.043 -0.0555 -0.0706  0.2326
 5492W        W23696  10.923   2.467   4.622  0.0554  0.0743 -0.0515
 5493W        W23697  18.240   9.001  12.211 -0.1038 -0.0365 -0.0244
 5494W        W23698  11.012  13.408   1.934  0.2009 -0.0284 -0.1179
 5495W        W23699  14.245  10.733  15.399  0.0500 -0.2654  0.2046
 5496W        W23700   5.729  11.421  14.076  0.0463 -0.0755  0.0793
 5497W        W23701   4.842   3.108   4.225 -0.0232 -0.1327  0.3098
 5498W        W23702  14.654  12.111   2.832 -0.2287 -0.0820  0.1287
 5499W        W23703   1.286   6.755   1.074  0.0621 -0.1116  0.2803
 5500W        W23704   7.461  10.990  12.518 -0.1705  0.2898 -0.0295
 5501W        W23705  18.166  14.924   4.599 -0.2336  0.0989  0.2042
 5502W        W23706   7.214  14.806   0.738  0.1497  0.0491 -0.1910
 5503W        W23707   9.856  12.959  12.637  0.0088 -0.4721  0.1656
 5504W        W23708   8.508   1.054   3.020  0.2636 -0.2431  0.1172
 5505W        W23709   8.068   9.370  13.052 -0.2302  0.1463 -0.2336
 5506W        W23710  17.661  15.745  13.618 -0.0136 -0.0889  0.0367
 5507W        W23711   5.464   7.518   2.997 -0.1723 -0.1754 -0.0792
 5508W        W23712   5.987  16.729   0.409 -0.2133 -0.1146 -0.0863
 5509W        W23713   7.594  11.840  11.393  0.1323  0.1026 -0.2299
 5510W        W23714  14.125   9.549   1.326  0.0370 -0.0834  0.1201
 5511W        W23715  13.082   8.151  14.458 -0.1317  0.3092  0.1314
 5512W        W23716  10.587   4.717   2.619  0.1125  0.3089  0.1815
 5513W        W23717   5.897   3.835  11.314 -0.3142  0.0601 -0.0617
 5514W        W23718   7.419  16.565   4.022 -0.5330 -0.0019  0.1217
 5515W        W23719   6.505   4.693   2.198 -0.1669 -0.0802  0.3208
 5516W        W23720   5.130  18.250   1.561 -0.1536 -0.0804  0.0291
 5517W        W23721  17.688  10.261  13.165 -0.0247  0.0450 -0.3672
 5518W        W23722   1.056   8.106   0.456 -0.2653 -0.1548  0.2547
 5519W        W23723  17.633  10.859  14.096  0.1836 -0.2530  0.0868
 5520W        W23724   5.954   6.119  12.304  0.2022  0.0165 -0.0444
 5521W        W23725  11.936  16.201  11.902 -0.0826  0.2023  0.0715
 5522W        W23726  13.163  17.228  12.900  0.2149 -0.3037  0.1911
 5523W        W23727   7.807   1.602   3.406  0.0702  0.3054 -0.1234
 5524W        W23728   4.417  14.722   2.347  0.0018 -0.2983 -0.3382
 5525W        W23729  17.749   2.913  11.173 -0.5599  0.2566  0.0740
 5526W        W23730   9.165   5.760   0.729 -0.3034  0.1476  0.1746
 5527W        W23731  15.834  16.187  14.307  0.0716  0.2086  0.4413
 5528W        W23732  12.843  14.367  12.191 -0.1401  0.1378 -0.0753
 5529W        W23733  10.625  17.819   1.329  0.1187 -0.1644 -0.0949
 5530W        W23734   9.220  11.374   1.372  0.0528 -0.1651 -0.1476
 5531W        W23735   0.607  16.111  14.787  0.0858 -0.1536  0.0592
 5532W        W23736  17.923  11.735  13.876 -0.0297  0.1211  0.0385
 5533W        W23737  10.614  18.221   2.309  0.3908  0.2869 -0.0482
 5534W        W23738  13.295  16.673   2.526  0.2598  0.1092 -0.0496
 5535W        W23739   6.221   6.709   2.397 -0.0203 -0.3448  0.0978
 5536W        W23740  16.636   1.464  10.916  0.0514  0.1861 -0.2171
 5537W        W23741  10.198   8.911   1.201  0.0302 -0.1015 -0.3416
 5538W        W23742  17.291  11.004  10.533  0.1752 -0.1109 -0.1522
 5539W        W23743  12.728   6.977  12.999 -0.2281 -0.3050 -0.0283
 5540W        W23744   0.872   3.774  15.112 -0.0076  0.1215  0.1736
 5541W        W23745  11.117   6.851  12.933  0.2379 -0.0181  0.0835
 5542W        W23746   9.716  14.637  12.959 -0.0517  0.2834  0.0513
 5543W        W23747   3.937  12.561   3.392  0.0280 -0.1939  0.2251
 5544W        W23748   8.726   4.100   0.586  0.2349  0.0967 -0.0106
 5545W        W23749  11.231  16.108   4.394 -0.3125  0.1905  0.0606
 5546W        W23750   3.937  15.454  12.270  0.0945  0.1419  0.1742
 5547W        W23751   9.074  16.213  12.026  0.0576 -0.0638 -0.0569
 5548W        W23752  12.603   0.460  12.166  0.0219  0.1331 -0.1713
 5549W        W23753  16.955  16.967  14.342  0.0335 -0.1037  0.2558
 5550W        W23754   8.267  13.960  12.336  0.2663  0.3973  0.1772
 5551W        W23755  16.936   4.655  12.855 -0.0003 -0.1696 -0.0828
 5552W        W23756   7.760   0.486   1.785  0.0713 -0.0690  0.0726
 5553W        W23757  16.423  18.058   1.755  0.0336 -0.0628 -0.2692
 5554W        W23758  10.068   6.904  10.402 -0.1773  0.0259 -0.2219
 5555W        W23759  17.245  16.885   2.337  0.1848 -0.2739 -0.1409
 5556W        W23760  10.914   1.499  14.456  0.3256 -0.1429  0.2144
 5557W        W23761   9.939   0.553   1.597 -0.0716  0.2454  0.1417
 5558W        W23762   0.929  17.931   4.641 -0.0671  0.3389  0.0299
 5559W        W23763   2.054  18.268   1.307 -0.2609 -0.0753  0.0728
 5560W        W23764   7.187  12.983  15.099  0.0203  0.0420  0.2057
 5561W        W23765   0.569   0.975   1.731 -0.0208  0.0837 -0.1900
 5562W        W23766  12.985   4.660  14.024  0.1858  0.0163  0.2023
 5563W        W23767  12.034   7.385   3.158  0.1303  0.0260  0.0513
 5564W        W23768   9.858  16.190   3.715  0.2588  0.0242 -0.0322
 5565W        W23769   3.045   5.566   1.700  0.1881  0.0150 -0.1749
 5566W        W23770   5.915  18.015   0.047  0.1618  0.1275  0.0396
 5567W        W23771   6.103   8.888   5.763  0.0628  0.0346  0.1032
 5568W        W23772   6.208  17.663   0.281  0.0460  0.1535  0.0043
 5569W        W23773   2.491  11.608  12.240 -0.0955  0.1283  0.3696
 5570W        W23774   3.479   5.689  13.949  0.3949  0.0588 -0.2151
 5571W        W23775  13.417   1.710  13.935  0.0634  0.2012 -0.3217
 5572W        W23776   2.451  15.466  10.605 -0.1472 -0.1483  0.1187
 5573W        W23777  17.852   9.794  13.114 -0.0902  0.0044 -0.0056
 5574W        W23778   9.344   1.746   4.008 -0.4710  0.0661  0.0330
 5575W        W23779   9.059   8.099  13.170 -0.1459  0.1154  0.0496
 5576W        W23780   7.571  11.628   3.555 -0.1892 -0.1817  0.2009
 5577W        W23781  17.087  12.445  14.964  0.0958 -0.0189 -0.3413
 5578W        W23782   3.790   3.040   2.581 -0.2733 -0.1711  0.2367
 5579W        W23783   4.005   5.566  10.431 -0.0503  0.1476 -0.0935
 5580W        W23784   9.438  13.631   1.159  0.0296  0.0490 -0.3276
 5581W        W23785  15.791   8.709   2.100  0.0531 -0.1492 -0.0304
 5582W        W23786   0.625   8.925   2.524  0.0488 -0.3100  0.0935
 5583W        W23787  18.326  14.243   4.363  0.1733  0.0917 -0.3288
 5584W        W23788  16.038   0.111   0.053  0.2237 -0.4533  0.0042
 5585W        W23789   4.899   9.542  11.908 -0.0616  0.3344 -0.3517
 5586W        W23790   2.423  15.204  13.241 -0.1592 -0.0711  0.1029
 5587W        W23791   0.079  17.016   4.322 -0.1221  0.1984 -0.0865
 5588W        W23792  18.220   9.597   0.181  0.0895  0.0716 -0.1500
 5589W        W23793   7.360   4.625   0.287 -0.0222 -0.0457  0.0590
 5590W        W23794   0.999   9.280   2.756  0.1912  0.2999 -0.1197
 5591W        W23795   9.019  14.246   1.246 -0.0653  0.0012 -0.2397
 5592W        W23796   3.712   8.376  13.638 -0.2764  0.1003 -0.2488
 5593W        W23797   6.997  13.033  15.553 -0.1384  0.5018 -0.0246
 5594W        W23798   7.354  13.644   2.202  0.1981  0.0761  0.0190
 5595W        W23799  16.556   8.401   2.672 -0.2184  0.1163 -0.2741
 5596W        W23800   0.842   1.782   3.126 -0.0672  0.3010  0.2365
 5597W        W23801   9.191   3.235   4.091 -0.1017 -0.2084  0.0826
 5598W        W23802   4.619  16.201  14.827  0.0384  0.1222 -0.1205
 5599W        W23803  18.016  14.274   5.980 -0.2331  0.1630 -0.0136
 5600W        W23804  15.748   6.956  14.146 -0.0234 -0.0027 -0.2406
 5601W        W23805  15.806   3.884  12.248 -0.1010  0.1057  0.1435
 5602W        W23806   0.957   0.329   2.368 -0.1402  0.2047 -0.0635
 5603W        W23807  14.420  13.722  12.834  0.2490  0.2692  0.2297
 5604W        W23808   8.610   1.326   0.095 -0.0216  0.2594 -0.5268
 5605W        W23809   6.685   8.668   4.805 -0.0360  0.3257 -0.0851
 5606W        W23810  16.207  15.904   3.993  0.1827  0.0598  0.2070
 5607W        W23811   7.255   1.946   1.426  0.0374 -0.1959  0.1169
 5608W        W23812   9.681  13.160   4.916  0.1067  0.0107  0.0944
 5609W        W23813  10.762   2.406   2.259 -0.0401  0.2139 -0.1416
 5610W        W23814   4.563   5.599   0.681 -0.1979  0.0446 -0.0859
 5611W        W23815  13.893   6.404  11.194  0.1468 -0.3121 -0.1180
 5612W        W23816   7.713  12.553   3.574  0.0365 -0.2429  0.0590
 5613W        W23817  12.898   5.004   3.567 -0.1586  0.0812 -0.0332
 5614W        W23818   1.787   7.037  13.840 -0.1270  0.2184  0.4687
 5615W        W23819  11.329  12.860  14.167 -0.0689 -0.0294  0.3757
 5616W        W23820   3.742  11.981  11.742 -0.0592  0.1609  0.0507
 5617W        W23821  12.692   2.661   4.036  0.0260 -0.0103 -0.1418
 5618W        W23822  11.854   1.494   0.839 -0.0810 -0.4256  0.2731
 5619W        W23823  12.135  14.727   1.206  0.4361 -0.0810  0.0010
 5620W        W23824   6.823   3.973   4.074 -0.1192 -0.2512 -0.0139
 5621W        W23825  17.696   7.267   4.792  0.4019 -0.0819 -0.2653
 5622W        W23826  17.536  10.835   0.516  0.0788  0.1172 -0.1091
 5623W        W23827  10.246   4.560  12.425  0.0201 -0.3714 -0.0097
 5624W        W23828   1.444   7.773  11.991 -0.1480  0.1274 -0.1081
 5625W        W23829  12.415   8.919   2.040  0.2005 -0.2214  0.1253
 5626W        W23830   6.351   7.809   0.666  0.0789 -0.2598 -0.1656
 5627W        W23831  15.322   0.833  14.649 -0.0580  0.0750 -0.0041
 5628W        W23832   1.017  10.964  11.822  0.0325  0.1599 -0.0730
 5629W        W23833   4.857   0.957   5.115 -0.1925  0.1187 -0.0260
 5630W        W23834  14.702  11.989   4.067  0.0197  0.1590 -0.2148
 5631W        W23835   8.978  16.405   3.573 -0.5488  0.0048  0.1024
 5632W        W23836   5.958  16.834   3.392  0.4702 -0.3828  0.1118
 5633W        W23837  15.554  10.054   1.545 -0.1396 -0.0341 -0.1732
 5634W        W23838   1.385   6.087  10.358 -0.0731  0.1387  0.0181
 5635W        W23839   4.613  15.297   2.563  0.1310 -0.2380 -0.3562
 5636W        W23840  15.657   5.625  11.835  0.0897 -0.1018 -0.0510
 5637W        W23841   0.824   5.986  13.493  0.1555 -0.0890  0.1277
 5638W        W23842  14.602   0.648  11.476  0.4262  0.0064  0.0468
 5639W        W23843  10.754  12.607   2.154 -0.0415  0.0598  0.4033
 5640W        W23844  11.837  13.126   3.137  0.3202  0.1863  0.0586
 5641W        W23845   6.667   3.556  15.361 -0.0335 -0.3819  0.0301
 5642W        W23846   2.584  11.193  11.830 -0.0394 -0.0785 -0.3585
 5643W        W23847  11.077  13.251  12.353  0.5458 -0.0597 -0.2095
 5644W        W23848   7.034   5.067   0.008  0.3068 -0.0338 -0.1193
 5645W        W23849  15.099   1.101  12.225  0.0893  0.1090  0.0320
 5646W        W23850   7.525   8.141  13.510  0.0985 -0.1945  0.1200
 5647W        W23851  14.651  15.160  11.274  0.0493 -0.0367  0.2762
 5648W        W23852  13.404   7.108  15.370  0.3792 -0.1275  0.0622
 5649W        W23853  16.688  15.616  11.925 -0.1436 -0.0749  0.0950
 5650W        W23854   0.117   4.470   2.507  0.4661  0.1177 -0.1278
 5651W        W23855   0.957  12.884  12.316 -0.2471  0.2267  0.0383
 5652W        W23856   5.309   7.710  14.820 -0.4039  0.0935  0.3344
 5653W        W23857   2.785  14.533   4.493 -0.0262  0.1692  0.1374
 5654W        W23858  17.091   2.951  12.536  0.0295 -0.1848  0.2431
 5655W        W23859   0.314   9.405   1.354 -0.0944  0.0309  0.0307
 5656W        W23860   7.995   7.005   3.013  0.1405  0.0027 -0.1081
 5657W        W23861   5.103  14.774  12.599 -0.0215  0.1044  0.2562
 5658W        W23862   3.928  13.452  11.813  0.0853  0.1320 -0.1230
 5659W        W23863  13.920  10.627  12.649  0.2608 -0.0259  0.0013
 5660W        W23864  15.188  10.311  13.169 -0.0885  0.0505  0.2919
 5661W        W23865   9.428   9.323  13.268 -0.0303  0.0834  0.1686
 5662W        W23866   6.840   5.992  14.242 -0.1739  0.0108 -0.0074
 5663W        W23867  15.290   6.274   1.365  0.2059 -0.0289  0.1145
 5664W        W23868  11.656  10.491   0.749  0.2618 -0.0680  0.0350
 5665W        W23869   4.279  14.848  13.154  0.1794 -0.0968 -0.2490
 5666W        W23870   9.114   2.409  12.358 -0.1285 -0.4494  0.0841
 5667W        W23871  12.548   6.884   3.804 -0.0482  0.0849 -0.1453
 5668W        W23872   3.758   9.952   1.543 -0.0179  0.0518 -0.1109
 5669W        W23873   6.166   1.071  12.186 -0.0081  0.0720 -0.1233
 5670W        W23874  17.803   7.108  15.468  0.0060  0.2311 -0.0060
 5671W        W23875   4.934   6.773   3.294 -0.1212  0.2245 -0.2693
 5672W        W23876  16.109  13.966  14.539  0.0928 -0.0980 -0.1898
 5673W        W23877   7.895   3.426  12.347  0.1886  0.0820  0.1883
 5674W        W23878   8.302  15.329   2.949  0.0773 -0.1120  0.1336
 5675W        W23879   7.305   0.274   5.748 -0.1563  0.1908  0.1718
 5676W        W23880   6.945  10.991  12.338  0.0870 -0.3058  0.0167
 5677W        W23881   1.124   2.976   1.549  0.0213  0.2412  0.2289
 5678W        W23882   6.874   0.626   0.819 -0.0338  0.1346  0.2695
 5679W        W23883   2.047   4.806  13.746 -0.3319 -0.0797 -0.1053
 5680W        W23884   6.664  13.968  14.135 -0.0848 -0.0576 -0.0035
 5681W        W23885   0.180  17.590  10.693 -0.1503 -0.2683  0.0332
 5682W        W23886   6.157   6.869  11.285  0.1771 -0.1109  0.0349
 5683W        W23887   4.458   1.114  11.893 -0.1387  0.2018  0.1897
 5684W        W23888  13.491   4.419   2.697  0.2526  0.3481 -0.2092
 5685W        W23889  14.645   6.604  14.416 -0.2225 -0.1851  0.1576
 5686W        W23890   7.760   4.249   5.626  0.0363 -0.2485 -0.1036
 5687W        W23891   1.218  17.073   2.857  0.0152 -0.0159 -0.1147
 5688W        W23892   7.188  16.158   3.798 -0.1290 -0.3221 -0.1521
 5689W        W23893  16.570  15.912   1.356 -0.0267  0.0730  0.0602
 5690W        W23894   9.076  10.506   5.687  0.1929  0.0183  0.1122
 5691W        W23895  17.916  14.129  10.666 -0.0834  0.2932 -0.0351
 5692W        W23896   4.560  13.295   1.063  0.1968  0.0717  0.1462
 5693W        W23897  18.173   8.453   1.238 -0.0677  0.0763  0.0708
 5694W        W23898   5.636   0.272   2.152  0.1012  0.0138  0.0566
 5695W        W23899  15.982   0.273   4.605  0.0423 -0.2455  0.1902
 5696W        W23900   1.039  10.443  11.892 -0.3604 -0.1746 -0.2707
 5697W        W23901  15.023  16.684  12.193  0.1855  0.2142  0.2641
 5698W        W23902   9.844   4.380  13.778 -0.0150 -0.0370  0.2105
 5699W        W23903   2.235  13.144  12.923 -0.1800  0.0937 -0.2050
 5700W        W23904  10.446   4.829  11.402 -0.3388  0.1047  0.0888
 5701W        W23905   7.210  17.403   0.228 -0.1564 -0.2606  0.1542
 5702W        W23906   6.471   3.768   2.500  0.1900  0.2268  0.0364
 5703W        W23907   9.682  17.692  13.854 -0.1802  0.0756  0.2812
 5704W        W23908   4.645  17.013  10.985  0.0106  0.3082 -0.3138
 5705W        W23909   3.878   6.145   2.846 -0.0097 -0.1121  0.4573
 5706W        W23910  13.785   3.330   2.090  0.2270 -0.1847 -0.1949
 5707W        W23911   4.536  11.702  12.793 -0.3067 -0.0326 -0.2788
 5708W        W23912   6.793   7.760  13.578 -0.1293  0.3075  0.2866
 5709W        W23913   6.404   7.701  10.440 -0.2877  0.0183  0.0227
 5710W        W23914  13.346   8.901  14.685 -0.0210 -0.1807 -0.0798
 5711W        W23915   2.948  15.755   2.298 -0.1539 -0.4465  0.0363
 5712W        W23916   3.818   8.263  12.354 -0.3249  0.6120  0.0995
 5713W        W23917   6.672  17.846   3.346 -0.2214  0.1309  0.0962
 5714W        W23918   3.825   1.314  12.047  0.2321  0.1241 -0.1409
 5715W        W23919   1.826   5.730  15.376 -0.0736 -0.1754 -0.1303
 5716W        W23920  10.789   6.445  13.047 -0.5421  0.2198  0.0446
 5717W        W23921  13.068  12.675   2.190 -0.0861 -0.4187  0.0290
 5718W        W23922   0.185   8.934  11.254  0.1683 -0.0156 -0.1554
 5719W        W23923  13.694   8.047  11.774  0.2151  0.1318 -0.0915
 5720W        W23924  13.761   0.562  15.138  0.2559  0.1571  0.1478
 5721W        W23925  12.921  16.029  15.061 -0.3105  0.1209  0.0536
 5722W        W23926   6.087   1.349   0.980  0.0421 -0.0382 -0.2405
 5723W        W23927  17.707   5.120   2.607  0.1400 -0.1956  0.1216
 5724W        W23928  11.335   1.208  14.377  0.0900 -0.1463 -0.1985
 5725W        W23929  12.130  10.171   2.438 -0.1427  0.0221  0.0394
 5726W        W23930  11.040  16.233   0.512 -0.0549  0.0137  0.0617
 5727W        W23931  10.514   4.210   4.015  0.0353  0.0731  0.4794
 5728W        W23932  17.783   3.301   3.469 -0.1066  0.0599 -0.2709
 5729W        W23933   4.156   5.327  14.705  0.0338 -0.2225  0.0142
 5730W        W23934  13.423   0.860  14.998  0.2868 -0.0940 -0.6002
 5731W        W23935   2.329  12.745   4.310 -0.2764  0.0037  0.3407
 5732W        W23936  10.833  16.820  15.554 -0.1725  0.1358 -0.2754
 5733W        W23937  12.910   2.283   4.748  0.1230  0.2984  0.3663
 5734W        W23938   8.979   8.338  11.405  0.0533 -0.0959  0.4131
 5735W        W23939  17.236  13.096   4.810 -0.1696 -0.0297  0.0932
 5736W        W23940   9.391   5.470  15.084 -0.4056 -0.3065  0.1488
 5737W        W23941   9.356   8.175   0.577 -0.0400 -0.3054  0.1144
 5738W        W23942   6.123  14.320   2.045  0.1613  0.0683 -0.2083
 5739W        W23943  12.275  16.175   4.345  0.0281  0.1423  0.1800
 5740W        W23944   0.373   2.014  15.227  0.3810  0.1755  0.1171
 5741W        W23945   3.150   7.140  15.241 -0.0070  0.0465 -0.0805
 5742W        W23946  12.026   4.904  15.546  0.1882 -0.0096  0.2703
 5743W        W23947  14.080  13.185   3.978 -0.1353 -0.1127  0.0610
 5744W        W23948   2.820   9.496  11.506 -0.1575  0.2178 -0.0423
 5745W        W23949   1.168   7.253   1.133 -0.1742  0.2408 -0.0678
 5746W        W23950  15.873   8.023   5.172 -0.0996  0.0145  0.0505
 5747W        W23951   0.712  17.963   2.891  0.1220  0.2150  0.1099
 5748W        W23952   4.424  17.611   4.899  0.1314  0.1345 -0.2271
 5749W        W23953  13.670  10.154   5.480 -0.3917 -0.0426  0.1471
 5750W        W23954   1.716  10.774   4.037 -0.0419  0.0448 -0.3114
 5751W        W23955   8.354  16.241  12.289 -0.0526  0.1166 -0.2146
 5752W        W23956   1.452  16.706   3.870  0.1942 -0.2210  0.1356
 5753W        W23957   6.311   0.442   3.101  0.1672  0.0867  0.2032
 5754W        W23958   5.391   2.532   4.480  0.2665 -0.2910  0.3032
 5755W        W23959  18.114  15.885  11.374  0.1896 -0.4186 -0.1857
 5756W        W23960  11.088  17.790   3.686 -0.0602  0.0904 -0.0346
 5757W        W23961  12.465  12.698   3.801 -0.1171 -0.2121 -0.1864
 5758W        W23962   4.990   6.193  15.038  0.0579  0.1431 -0.2819
 5759W        W23963  17.134  14.449  10.816  0.1917 -0.0426  0.1664
 5760W        W23964   0.744   4.179  13.867  0.1217 -0.1346  0.0883
 5761W        W23965   0.264  16.230  14.330  0.2427 -0.2622  0.3441
 5762W        W23966  16.489  10.927  10.349 -0.0029 -0.3858 -0.0131
 5763W        W23967   0.344  13.006  13.993 -0.2562 -0.2837 -0.0246
 5764W        W23968  17.050  12.137  12.667 -0.0408  0.2984  0.2153
 5765W        W23969   4.642   4.948   4.147 -0.0408 -0.0205  0.3594
 5766W        W23970  13.215   1.215   1.521 -0.4375  0.0531  0.3543
 5767W        W23971  18.217   9.494  15.372 -0.0693  0.2188 -0.0775
 5768W        W23972  15.645  18.241   3.490  0.0644 -0.0085 -0.1563
 5769W        W23973   4.605  15.069   2.994  0.1969 -0.1244  0.2116
 5770W        W23974  11.512   2.251   1.975  0.0300 -0.2728 -0.2707
 5771W        W23975  10.191   5.036  15.121 -0.0289  0.1273  0.0399
 5772W        W23976  12.433  17.081   3.381 -0.1506  0.0840 -0.0910
 5773W        W23977   3.956   4.672   0.751 -0.1801  0.2408 -0.2750
 5774W        W23978  15.051  11.968  13.812 -0.2254  0.0066  0.0981
 5775W        W23979  12.744   9.682  13.066 -0.1341 -0.1791  0.0711
 5776W        W23980  11.605  17.517  11.219  0.1435  0.0664 -0.0682
 5777W        W23981  12.446   6.634   4.968 -0.1188 -0.1458 -0.2219
 5778W        W23982   8.691   5.177   3.122 -0.2725  0.1549  0.0150
 5779W        W23983  11.749   0.390  11.724 -0.0461  0.0955  0.0459
 5780W        W23984   2.807  17.359   0.101  0.1292  0.3145 -0.2339
 5781W        W23985  10.706   5.697   1.734  0.0625  0.0440 -0.0117
 5782W        W23986   5.175   8.221  11.998 -0.0412  0.3127  0.3952
 5783W        W23987   5.980  10.914  14.954 -0.0912  0.0043  0.0194
 5784W        W23988   1.645   7.915  13.523 -0.1388  0.0850  0.0983
 5785W        W23989   9.733   9.752  12.372  0.1913  0.1550 -0.0966
 5786W        W23990   1.346   9.454   2.425  0.1454  0.0980 -0.1426
 5787W        W23991  16.473   3.225   3.488 -0.2914 -0.0747 -0.2803
 5788W        W23992   3.818  10.158  14.140  0.2080 -0.2073  0.0257
 5789W        W23993   6.995   1.244  11.022 -0.3745 -0.0733 -0.0151
 5790W        W23994  10.103   9.090  10.438 -0.1287  0.0246 -0.1180
 5791W        W23995   0.706  12.302   3.554  0.0532  0.1323 -0.0251
 5792W        W23996   8.792   5.854  15.470  0.4366  0.1630  0.2189
 5793W        W23997   3.405  10.524   2.210 -0.0234  0.1003 -0.1582
 5794W        W23998   9.876  12.646  12.265  0.0847 -0.1776  0.0190
 5795W        W23999   6.701   4.768  12.426  0.3929  0.0449  0.1906
 5796W        W24000   0.630   8.096  11.619  0.0559  0.0667  0.0934
 5797W        W24001   5.923   0.854   3.311  0.1579  0.1688  0.2051
 5798W        W24002   6.949  11.908   3.075 -0.2265 -0.0779  0.1864
 5799W        W24003   6.335  16.253  14.456  0.0613  0.0663 -0.0647
 5800W        W24004  17.490  17.149  11.118  0.1234 -0.2200 -0.3122
 5801W        W24005   3.197   9.202   2.312  0.1394  0.0069  0.1060
 5802W        W24006   0.407   9.163  13.532  0.2723 -0.0365 -0.2901
 5803W        W24007   4.854   0.265  14.647  0.0327 -0.1314 -0.0889
 5804W        W24008   4.536   0.775  13.518  0.2235 -0.0589  0.0468
 5805W        W24009  11.627   6.703  14.775  0.2120 -0.2961 -0.2572
 5806W        W24010  13.987  14.503   1.052  0.2594  0.0972 -0.1773
 5807W        W24011  16.327  16.821   4.731 -0.2206  0.0235 -0.3410
 5808W        W24012   3.722   3.354   4.110  0.0155  0.0010 -0.1775
 5809W        W24013  12.438  13.891  12.893 -0.0103  0.3248  0.3275
 5810W        W24014  15.901  15.629  10.276  0.0311 -0.2901 -0.0217
 5811W        W24015   6.610  16.196   3.865 -0.2295  0.0606  0.2699
 5812W        W24016   8.410  15.144   4.761 -0.1608 -0.0833  0.0864
 5813W        W24017  12.522  12.185  11.162  0.1137 -0.1866  0.0096
 5814W        W24018  17.324  10.563   0.897 -0.3316  0.0182  0.2634
 5815W        W24019  12.039   1.267  14.220  0.0592  0.1012  0.0060
 5816W        W24020  10.234  17.279   5.198 -0.0504  0.0797  0.0706
 5817W        W24021   6.507  14.762  13.835  0.2628  0.0909  0.0524
 5818W        W24022   0.170   4.969   3.995 -0.0980  0.1551  0.1178
 5819W        W24023  11.437  16.849  14.752 -0.1026  0.1484 -0.1919
 5820W        W24024  13.418   2.529  12.602  0.2043  0.1360 -0.0237
 5821W        W24025   5.855   6.676   4.632  0.1184 -0.1345 -0.1511
 5822W        W24026  11.239  14.797  11.570 -0.4063  0.2227 -0.0224
 5823W        W24027   9.048   6.883  12.189 -0.1799  0.0130 -0.2406
 5824W        W24028   6.328   2.250  15.263 -0.0958 -0.1048 -0.0880
 5825W        W24029  18.204   3.808  15.063  0.0761 -0.0265  0.0366
 5826W        W24030   2.429   5.102   4.622 -0.1256  0.0169  0.3681
 5827W        W24031   3.703   5.217  11.522  0.0755 -0.4561 -0.0680
 5828W        W24032   0.069  15.110   3.214  0.2380 -0.2361 -0.2767
 5829W        W24033   0.961   5.928   1.377  0.5694  0.1412 -0.1100
 5830W        W24034   0.752   0.807   3.295  0.1354  0.0572 -0.0097
 5831W        W24035   5.189  13.443  13.478 -0.0807  0.1950  0.0067
 5832W        W24036   6.205   8.230   2.086  0.1954 -0.2731 -0.1867
 5833W        W24037   7.549  17.601   2.878  0.0169 -0.0148 -0.0575
 5834W        W24038  18.319   8.341   5.258  0.0357  0.0397 -0.1078
 5835W        W24039  17.299   5.022  14.046 -0.1333  0.0368  0.3109
 5836W        W24040   1.897  10.079   0.486 -0.1573  0.3060  0.0803
 5837W        W24041  10.083   3.079  15.016 -0.0778 -0.1234 -0.0053
 5838W        W24042   3.923   5.744  14.567  0.1243  0.1569 -0.2076
 5839W        W24043   8.424  17.387   0.198  0.3206  0.0758 -0.0289
 5840W        W24044   6.087  17.236   5.298 -0.1193 -0.1941  0.1016
 5841W        W24045  14.009   3.077  13.087 -0.0128 -0.0168 -0.0279
 5842W        W24046  16.149   9.981  12.490 -0.1630  0.1591  0.1364
 5843W        W24047  14.968   6.830   3.959  0.1582  0.3122  0.1916
 5844W        W24048  15.463   5.527  13.320  0.0637  0.0197 -0.1152
 5845W        W24049   7.527  13.923  11.382  0.3811 -0.0144 -0.2509
 5846W        W24050  14.004  12.649   2.267  0.1078 -0.1885  0.2686
 5847W        W24051   8.915   9.964  13.470 -0.2386 -0.0795 -0.2854
 5848W        W24052  11.072   7.796  13.069 -0.0650 -0.0745 -0.1114
 5849W        W24053   6.722  12.375  14.420 -0.1348  0.1658  0.1001
 5850W        W24054   9.470   4.581   5.725  0.1254  0.1940 -0.0785
 5851W        W24055   0.270  15.060  13.151  0.1126 -0.2969 -0.0944
 5852W        W24056  16.689  16.131   2.176 -0.4352 -0.0014 -0.0634
 5853W        W24057  14.429  10.703   1.704  0.2982 -0.2727 -0.1333
 5854W        W24058  13.504  15.213   4.011  0.0649  0.1268 -0.0359
 5855W        W24059   3.623   4.793  14.849  0.0707  0.0530  0.3123
 5856W        W24060   1.497   5.233   2.632 -0.1020  0.3169  0.0462
 5857W        W24061   9.548   6.540  14.139  0.2931 -0.1025  0.1318
 5858W        W24062   7.512   5.814  10.762 -0.3146  0.1713  0.1288
 5859W        W24063   0.576   6.606   4.193  0.0159 -0.0281 -0.0030
 5860W        W24064  16.325   1.850  11.244 -0.2804 -0.2153  0.1247
 5861W        W24065  15.664   0.751   3.678 -0.0574  0.2581  0.0301
 5862W        W24066   9.122   6.168   2.588  0.0273  0.0829  0.1174
 5863W        W24067  13.721  14.988   3.313 -0.1386  0.0149 -0.2899
 5864W        W24068  10.850  11.968   0.719  0.4366 -0.3675 -0.2151
 5865W        W24069  15.986   0.575   0.504 -0.1605  0.0287  0.0541
 5866W        W24070   8.597   3.583   0.413 -0.2931 -0.1852 -0.2929
 5867W        W24071   8.253  10.730  15.018 -0.1207 -0.0911  0.0095
 5868W        W24072  15.528   4.161  11.405  0.0485  0.2027  0.1333
 5869W        W24073  14.748   1.591  14.689  0.0384  0.1139 -0.0859
 5870W        W24074  15.979  10.255   2.252  0.1803 -0.2298  0.0357
 5871W        W24075  17.321   6.791  11.196  0.2090  0.0177 -0.2057
 5872W        W24076   1.645   7.268   2.140 -0.4159 -0.0413 -0.1672
 5873W        W24077   9.546   8.477   2.628  0.0913  0.2860  0.0865
 5874W        W24078   3.445  12.865   2.100  0.0396  0.0100  0.0464
 5875W        W24079   4.666   4.470  15.641 -0.2086  0.1522 -0.2344
 5876W        W24080  10.253   2.110   3.641 -0.2883 -0.2076 -0.0800
 5877W        W24081   4.311   8.250   2.283 -0.1336 -0.1955 -0.1140
 5878W        W24082   6.356   5.128  13.538 -0.1054  0.0125 -0.2667
 5879W        W24083   5.790  17.096  14.468  0.1856  0.3115  0.2284
 5880W        W24084  15.800  13.051  13.958  0.4181 -0.1099  0.2232
 5881W        W24085  17.695   8.732  15.698 -0.1069 -0.0580 -0.1389
 5882W        W24086   8.144   2.015   3.036 -0.2226 -0.2979  0.0758
 5883W        W24087   3.203   0.870   2.090  0.1215  0.1269  0.1920
 5884W        W24088   9.697   7.119  10.839 -0.0263  0.3057 -0.1808
 5885W        W24089   0.808   7.722   2.679  0.2917 -0.0740 -0.1958
 5886W        W24090   2.152   0.075  13.879 -0.0791  0.0399 -0.0333
 5887W        W24091  14.586  10.357  11.747  0.2318  0.0999  0.3079
 5888W        W24092   2.940  16.921  10.564 -0.1437  0.2714  0.2289
 5889W        W24093   5.889  13.756   4.943  0.2493 -0.2910 -0.0656
 5890W        W24094  11.339  11.396  13.190 -0.1980  0.0873  0.1396
 5891W        W24095  16.059   2.362  12.512  0.1724  0.0614  0.5206
 5892W        W24096  16.663  13.884   0.847 -0.3453  0.4653 -0.0250
 5893W        W24097   3.488  13.250  12.380 -0.3610 -0.0686 -0.1271
 5894W        W24098  14.420   6.099   2.770 -0.1187 -0.0980 -0.2463
 5895W        W24099   8.996  15.081  11.147 -0.0809  0.2393  0.0440
 5896W        W24100   8.331   1.113  11.392  0.1246  0.0033  0.2444
 5897W        W24101   7.847   0.789   3.817  0.1564 -0.0316 -0.1439
 5898W        W24102   9.895   2.005   2.712  0.3214 -0.0886  0.0659
 5899W        W24103  10.817   1.315   1.174 -0.1057 -0.2537 -0.1257
 5900W        W24104   6.419  13.934   1.659 -0.0509 -0.1254 -0.1488
 5901W        W24105  11.146   2.695   2.692  0.1349 -0.1216  0.0556
 5902W        W24106   5.169   9.251   1.900  0.1228 -0.2558 -0.0601
 5903W        W24107  12.610  12.822  15.572  0.2140  0.6331  0.3110
 5904W        W24108  17.555   2.098  12.398 -0.1755 -0.0376  0.2626
 5905W        W24109   9.420   5.194   1.568 -0.1462 -0.0336 -0.0398
 5906W        W24110   3.713   8.955   4.490 -0.2764 -0.1800 -0.0100
 5907W        W24111  12.223   4.789  13.036  0.0983 -0.2855 -0.1041
 5908W        W24112   1.160   5.403  12.015 -0.0314  0.0870  0.0033
 5909W        W24113   5.918   0.018   0.990  0.2590 -0.1170  0.1586
 5910W        W24114   3.147   6.853  14.707 -0.0177 -0.3905 -0.0329
 5911W        W24115   1.665   4.805   4.467 -0.0005  0.0765  0.1724
 5912W        W24116  11.689   3.866  14.369  0.0694  0.2503 -0.1224
 5913W        W24117  12.099   7.149   2.738 -0.0904  0.1058  0.2054
 5914W        W24118   3.382   0.214  11.602  0.0595 -0.1010 -0.0052
 5915W        W24119   2.288  13.297  11.894 -0.2140 -0.1785 -0.0754
 5916W        W24120   0.490   0.278   3.117  0.0766  0.0704  0.2330
 5917W        W24121  12.659   2.055  15.632 -0.0351  0.0750 -0.0758
 5918W        W24122   7.855  13.661   3.457  0.2098 -0.2000 -0.2102
 5919W        W24123  16.243   6.883  15.667 -0.2281  0.0176 -0.0132
 5920W        W24124  12.891  12.226  14.078  0.0692  0.3177 -0.0483
 5921W        W24125  16.786   0.133   4.075 -0.1154 -0.2392 -0.0067
 5922W        W24126   8.691   7.635   3.988 -0.3521  0.0470 -0.1450
 5923W        W24127   0.474   1.592   2.746 -0.1608 -0.1619 -0.2580
 5924W        W24128  17.974  15.038   2.284  0.0417  0.0208 -0.1922
 5925W        W24129  16.703   0.394  11.464  0.1059  0.1537  0.2033
 5926W        W24130  12.085   7.224  14.493 -0.1928  0.3675 -0.0816
 5927W        W24131  14.266  15.366   3.422  0.2524 -0.1169  0.2383
 5928W        W24132  17.166  10.888  11.231  0.2837 -0.0754 -0.1597
 5929W        W24133   5.996   9.587  13.409  0.0413 -0.2301 -0.1706
 5930W        W24134   5.501  16.983   0.569  0.1324 -0.0912 -0.0794
 5931W        W24135   8.742  12.157   0.062  0.1237  0.3041 -0.2244
 5932W        W24136   1.399   6.917  14.280  0.0032  0.1077  0.2077
 5933W        W24137   5.103   4.637   3.863  0.1729 -0.1101 -0.0339
 5934W        W24138   4.130   4.820  12.448 -0.0879 -0.1765 -0.4110
 5935W        W24139  11.615  13.115   1.033 -0.0688  0.0864  0.0095
 5936W        W24140  14.367   7.851   0.031  0.1371 -0.0964  0.1615
 5937W        W24141   5.452  12.164   1.783  0.1238  0.3298  0.1421
 5938W        W24142   5.918   2.315   1.801 -0.1720  0.2850  0.3546
 5939W        W24143  12.875   1.432   2.661  0.0365 -0.1506 -0.1750
 5940W        W24144  15.202   7.481   0.109  0.4111 -0.2401 -0.3291
 5941W        W24145  14.167   0.037   1.525  0.2227  0.1618  0.0645
 5942W        W24146   9.906   0.195   2.271  0.1616 -0.0146 -0.0672
 5943W        W24147  15.682   2.134   2.081 -0.0403 -0.1169 -0.4958
 5944W        W24148   0.753   4.767   4.584  0.0266  0.0337  0.0639
 5945W        W24149   5.333   7.279   0.206 -0.2186  0.0605  0.1219
 5946W        W24150   7.153  12.167   0.995 -0.0937 -0.0682  0.1459
 5947W        W24151   7.934   9.399   1.231 -0.2729  0.1789  0.2474
 5948W        W24152  12.784  15.645   3.724 -0.2906  0.0138 -0.0532
 5949W        W24153   9.901  10.651  12.329 -0.0997  0.1667 -0.2757
 5950W        W24154   7.912  12.161   1.862  0.2623 -0.0167 -0.1464
 5951W        W24155  11.136   9.974  14.136  0.0728 -0.2550  0.0427
 5952W        W24156   3.414  17.633   3.586 -0.1574  0.0292 -0.0617
 5953W        W24157   4.450  13.035   4.506 -0.1639  0.0452 -0.0677
 5954W        W24158  10.067  17.465  12.399 -0.0334 -0.0516  0.2867
 5955W        W24159   4.293  14.484   1.836  0.0564 -0.2090  0.0344
 5956W        W24160   1.675   6.398  13.580 -0.1438 -0.4717 -0.4805
 5957W        W24161  16.083   0.773   2.493 -0.0590 -0.1771  0.0513
 5958W        W24162  14.056   6.860   5.298 -0.1128  0.0646  0.1669
 5959W        W24163   6.613   7.515   2.055  0.0049 -0.0961 -0.0164
 5960W        W24164  13.628  11.073   3.427  0.1686  0.3378  0.0261
 5961W        W24165  13.058  13.506  15.298 -0.0937 -0.0243  0.0945
 5962W        W24166  12.496   9.666   1.864  0.0325 -0.0162  0.0018
 5963W        W24167   7.792   1.740   4.459 -0.2688  0.0017  0.7117
 5964W        W24168   4.295  10.220   4.225  0.3098 -0.0044 -0.0130
 5965W        W24169  10.734   8.181  14.505 -0.1365 -0.0868 -0.1265
 5966W        W24170   6.992   1.252  11.870 -0.1681  0.0005  0.3505
 5967W        W24171  18.032  18.095   4.040  0.4118  0.2742 -0.2347
 5968W        W24172   0.629   1.084  12.818  0.0371  0.2971 -0.3097
 5969W        W24173   7.283  18.137  11.719 -0.4205 -0.1622  0.1092
 5970W        W24174  14.713  15.183   0.942  0.1453 -0.0655 -0.1486
 5971W        W24175   4.673  18.097  14.927 -0.0869 -0.1621  0.1053
 5972W        W24176  15.461  10.805   1.076 -0.0317  0.1174 -0.0220
 5973W        W24177  17.456  15.177  12.343  0.0578  0.2127 -0.0022
 5974W        W24178   3.307   1.259  12.324  0.2319 -0.1104  0.3915
 5975W        W24179   4.749   3.366   0.677 -0.1503  0.2315 -0.0526
 5976W        W24180   6.351   2.684  15.092  0.3843 -0.1909 -0.0394
 5977W        W24181   5.682   7.915   1.768  0.1728  0.0162  0.1574
 5978W        W24182  17.388  11.381  12.739  0.0856 -0.0637  0.0062
 5979W        W24183  14.535   8.142  10.996 -0.0493 -0.0029 -0.1307
 5980W        W24184   0.940   2.007   3.596  0.0567  0.3248 -0.0168
 5981W        W24185  13.121   8.458   1.339  0.1826  0.3551 -0.2496
 5982W        W24186   5.655  11.605  12.876  0.0400 -0.1647  0.0638
 5983W        W24187  13.382   6.734   3.173 -0.0656 -0.2997  0.0886
 5984W        W24188  13.930  17.997  14.436  0.1751  0.0103  0.1872
 5985W        W24189  10.274  13.717   0.457 -0.0726 -0.1373  0.2278
 5986W        W24190  15.539  17.232   4.835 -0.2649  0.2657 -0.3065
 5987W        W24191  16.657   1.125  12.335  0.0754 -0.2524 -0.2057
 5988W        W24192   2.863  15.738  11.283 -0.0150  0.2179 -0.1360
 5989W        W24193  12.527   5.779   4.868 -0.0358 -0.0014  0.1263
 5990W        W24194   9.098  12.365   1.423  0.0055 -0.1695  0.3108
 5991W        W24195   4.945  16.649  11.158 -0.0205  0.0668  0.1445
 5992W        W24196  16.744   6.102  14.969  0.1417  0.2781 -0.0247
 5993W        W24197   9.706   5.017   1.163  0.1928  0.5589 -0.0750
 5994W        W24198  10.510   9.264   0.873  0.2549  0.1620  0.1706
 5995W        W24199  13.388  17.607   1.227  0.2549 -0.0258  0.3248
 5996W        W24200   6.880   7.447   3.039  0.1402 -0.2397  0.0729
 5997W        W24201   9.291   5.911  15.433 -0.0015  0.0061 -0.2168
 5998W        W24202   9.984  15.927  12.474  0.2350  0.0055  0.0827
 5999W        W24203  12.151   5.855   2.689 -0.3096  0.1346 -0.1533
 6000W        W24204   9.647   8.684  11.705 -0.3609 -0.3917 -0.0859
 6001W        W24205   8.839   1.221   2.073 -0.1204 -0.0146  0.0629
 6002W        W24206   7.658   6.153   0.355  0.3132  0.4981  0.0049
 6003W        W24207  14.730  12.787   3.416  0.2126  0.0780  0.2241
 6004W        W24208   2.269   4.340  12.487  0.1299 -0.1106  0.1311
 6005W        W24209   7.229   0.080  14.487  0.3577  0.4715 -0.0430
 6006W        W24210   9.212  16.597  14.985  0.2048 -0.0011  0.2035
 6007W        W24211   0.492   3.202  13.249 -0.0622 -0.3008  0.0520
 6008W        W24212   5.385   8.353   4.215 -0.2060  0.3772 -0.0751
 6009W        W24213   8.170   9.308   4.085 -0.1692  0.0509  0.0932
 6010W        W24214  17.268   0.017  14.334  0.0869 -0.3448 -0.2278
 6011W        W24215  10.659  15.154   1.543 -0.1365 -0.0004  0.0245
 6012W        W24216  12.781   2.351  13.807 -0.1475  0.1316 -0.0782
 6013W        W24217   2.102  14.413  13.583 -0.0570  0.3985 -0.2220
 6014W        W24218  14.358  12.937   4.900  0.1027 -0.1112 -0.0320
 6015W        W24219   2.432  12.910   3.756  0.1846 -0.1467 -0.2972
 6016W        W24220  17.053   9.857   3.754  0.0719  0.2029 -0.0095
 6017W        W24221  11.550   9.234   0.920 -0.0700 -0.1513 -0.1780
 6018W        W24222  12.526   1.880  11.246  0.1047 -0.0222 -0.1160
 6019W        W24223   6.938  13.791   1.956 -0.0149 -0.1400 -0.1112
 6020W        W24224   2.049  14.304  10.925  0.0224 -0.0422 -0.2668
 6021W        W24225   5.428   7.936  13.526  0.0359  0.1289  0.3294
 6022W        W24226  17.544  12.345  12.721 -0.0518  0.0446 -0.0230
 6023W        W24227   7.800   1.903   2.398 -0.0209 -0.1377  0.2030
 6024W        W24228   1.499  12.322  15.378  0.3795  0.1199  0.1166
 6025W        W24229   5.576  10.949   3.471  0.4479 -0.0778 -0.1925
 6026W        W24230   4.900   5.965   2.951 -0.4928  0.2406  0.0333
 6027W        W24231   1.009   9.240  11.154  0.2114 -0.2049 -0.2463
 6028W        W24232   3.350   9.568   3.525 -0.1927 -0.0184 -0.2374
 6029W        W24233  13.070  13.961   4.282  0.1864  0.0549 -0.1726
 6030W        W24234  15.182  12.808   3.807  0.4734  0.1312 -0.0816
 6031W        W24235  16.943   3.052   0.902  0.0573  0.1097 -0.1575
 6032W        W24236   4.043   8.620  13.282 -0.3554 -0.0353 -0.2785
 6033W        W24237  15.628  13.544   4.742  0.0454 -0.2788 -0.0571
 6034W        W24238   9.456  10.331   0.444 -0.0649 -0.1188 -0.0567
 6035W        W24239   6.637  13.254  14.233 -0.2797 -0.0025 -0.0996
 6036W        W24240   5.016   0.122   1.056 -0.4272 -0.3043  0.2733
 6037W        W24241  17.117  11.916   1.300 -0.2292 -0.3795 -0.0351
 6038W        W24242   0.598   1.667  15.698 -0.0458 -0.2065  0.0029
 6039W        W24243  15.442   8.418   2.334  0.2293 -0.0416  0.1028
 6040W        W24244   9.381  13.715   0.316  0.1983  0.3122 -0.1841
 6041W        W24245  13.447  17.099  15.018 -0.3266  0.2543 -0.4941
 6042W        W24246   9.235   3.477   1.859 -0.0953 -0.2833  0.0971
 6043W        W24247   6.781   0.167  10.872 -0.0644 -0.0665  0.2211
 6044W        W24248  16.946   4.890  15.387 -0.0396 -0.1981  0.2657
 6045W        W24249  11.655   1.653  13.877 -0.0464  0.1368  0.0675
 6046W        W24250   2.304   9.060  14.691  0.0828 -0.0510  0.3394
 6047W        W24251  15.408   9.827  14.616  0.0152 -0.0928  0.0993
 6048W        W24252   6.808   4.210   1.482 -0.1438  0.1113  0.0698
 6049W        W24253   6.121  12.097   3.518 -0.1176 -0.1296 -0.0075
 6050W        W24254   3.377  11.072   2.393  0.0446 -0.5112 -0.0068
 6051W        W24255  17.256  11.344   4.124  0.0215 -0.0496 -0.1773
 6052W        W24256   8.291  12.175  12.878 -0.1978  0.3329 -0.0198
 6053W        W24257   3.510   1.042   1.435 -0.0746 -0.2163 -0.1840
 6054W        W24258   3.723   2.828  14.073  0.0523  0.1273 -0.1321
 6055W        W24259   4.291   1.322   3.561 -0.1178  0.0198  0.0901
 6056W        W24260   7.258   8.014   3.865 -0.1362  0.1227 -0.3135
 6057W        W24261   3.729  11.040   0.122  0.0861  0.1105  0.0257
 6058W        W24262   3.406  13.498   0.401  0.0656  0.1240  0.0633
 6059W        W24263   1.573  11.657   1.250 -0.1131 -0.2842 -0.2275
 6060W        W24264   4.393   8.051   0.170 -0.0069  0.0419 -0.0319
 6061W        W24265   8.634  15.859   3.671  0.3128  0.3380  0.0501
 6062W        W24266   5.985  11.995  11.600 -0.1745  0.1495  0.0131
 6063W        W24267   6.505   3.108   1.627 -0.0798  0.1998 -0.1840
 6064W        W24268   0.872  10.823  13.994  0.2622 -0.1485 -0.0552
 6065W        W24269   5.327  17.755  13.743  0.4466  0.1401  0.1014
 6066W        W24270  12.298   0.961   4.511 -0.2194  0.2179 -0.0154
 6067W        W24271   8.270   0.065   3.355 -0.1402  0.0029  0.1090
 6068W        W24272  11.276   1.217   3.776  0.4313  0.0150 -0.0281
 6069W        W24273   2.562   3.238  11.207  0.2163  0.1771  0.0611
 6070W        W24274  12.843   3.973  11.621  0.2373 -0.0584 -0.0214
 6071W        W24275  14.664   9.901  11.927 -0.2028 -0.2191 -0.2752
 6072W        W24276   7.711  13.606  15.346  0.1445 -0.3043 -0.0732
 6073W        W24277   2.841   4.682  13.307  0.2183 -0.0309  0.2118
 6074W        W24278  10.924   0.733  14.927 -0.1860 -0.0188  0.2239
 6075W        W24279  11.038  14.567  12.043  0.0234  0.1682  0.0455
 6076W        W24280   7.182   3.616   2.198 -0.3561 -0.0872 -0.0611
 6077W        W24281  11.474   9.616   2.611 -0.0486  0.0231 -0.0156
 6078W        W24282   8.792   2.700  15.671 -0.1745 -0.1321  0.1495
 6079W        W24283   0.325   7.888   1.256 -0.0823  0.0879  0.2053
 6080W        W24284   3.062  17.369   2.721 -0.1786 -0.2452  0.4556
 6081W        W24285  11.298  16.159  12.790  0.1005 -0.0966  0.0641
 6082W        W24286  16.690  15.165  14.326  0.0810 -0.0325  0.0098
 6083W        W24287   2.268   8.884   3.477  0.1730  0.1581 -0.1831
 6084W        W24288   8.335   3.519  10.657 -0.0757  0.0538  0.3654
 6085W        W24289  15.206   1.513  11.311 -0.1184  0.1667  0.1830
 6086W        W24290   1.698   3.738  14.993 -0.0418 -0.0438 -0.1152
 6087W        W24291  12.984   6.956   5.108  0.0246  0.0373 -0.0466
 6088W        W24292   8.011  13.085  12.574  0.0822 -0.2699  0.2111
 6089W        W24293   1.979   8.937  10.200 -0.1128  0.0154 -0.1954
 6090W        W24294  10.389   2.189  13.930 -0.2182 -0.1865 -0.2623
 6091W        W24295   3.575  11.652   3.754  0.1538 -0.0585  0.1629
 6092W        W24296  16.728   0.740   4.795  0.4708 -0.0418 -0.1490
 6093W        W24297   4.327  10.011   0.909  0.0083 -0.1636  0.0753
 6094W        W24298  10.114   7.925   1.268 -0.0023  0.0947 -0.0277
 6095W        W24299   5.636   4.085  11.854  0.2236 -0.2789  0.0128
 6096W        W24300  10.185   9.128  13.997  0.0725 -0.2596  0.1690
 6097W        W24301  13.359  12.197   1.346 -0.2098  0.0838  0.2215
 6098W        W24302  15.103  11.199  14.232  0.0918 -0.2716  0.0900
 6099W        W24303   2.731   6.652   1.679 -0.0084 -0.3193  0.1777
 6100W        W24304   8.209   7.643   0.554 -0.0236  0.1298  0.1065
 6101W        W24305  16.199   3.902   4.434 -0.0825  0.2072 -0.0022
 6102W        W24306  10.403  11.501   0.131  0.2420  0.1237  0.2610
 6103W        W24307   5.834   1.660  11.268 -0.3693  0.5462  0.0910
 6104W        W24308  12.237   6.253  13.213 -0.2714  0.0689  0.1531
 6105W        W24309  13.097   1.245  10.907 -0.0831 -0.1886  0.0938
 6106W        W24310  14.647   3.069   0.083  0.1972 -0.1152 -0.0602
 6107W        W24311   4.875  16.210   0.009 -0.1200  0.0092 -0.1285
 6108W        W24312   7.506   3.081   4.496 -0.0273  0.5342  0.1288
 6109W        W24313   9.349   8.689   0.358  0.0488 -0.1739  0.2151
 6110W        W24314   8.522  11.681  15.558 -0.0438 -0.1583 -0.0228
 6111W        W24315   5.206   0.524   2.002 -0.0134  0.1151 -0.2472
 6112W        W24316   4.759  16.973  11.455  0.1029 -0.0799 -0.1982
 6113W        W24317  16.406  14.554  15.214  0.2647 -0.1910 -0.1321
 6114W        W24318   9.132   8.522   2.168  0.0421 -0.3234  0.1424
 6115W        W24319  18.029   0.038   1.901 -0.1132  0.2555 -0.0405
 6116W        W24320  10.554  12.557  13.286  0.0536 -0.0242 -0.3647
 6117W        W24321   9.369  15.370  11.228 -0.0188  0.0464  0.0434
 6118W        W24322  12.654   9.697   0.276  0.0621 -0.0184 -0.0388
 6119W        W24323  13.472  13.825  14.958  0.0754 -0.0279  0.1657
 6120W        W24324   2.095   6.090   1.862  0.1433 -0.0377 -0.1847
 6121W        W24325   8.816  11.739   4.720  0.3112 -0.0546 -0.1086
 6122W        W24326   3.415  13.627  14.240  0.1736  0.0610  0.0813
 6123W        W24327  17.170  16.722   3.419 -0.1680 -0.0085 -0.0321
 6124W        W24328   7.774  15.457  11.091  0.0709 -0.0712 -0.1581
 6125W        W24329  16.244  15.902  12.655 -0.0123 -0.1273  0.3383
 6126W        W24330  10.759   8.879  12.542 -0.0481  0.6197  0.0067
 6127W        W24331   8.487  15.484  11.741  0.1287 -0.0077  0.0369
 6128W        W24332  18.227  15.256  15.715 -0.1724 -0.1169 -0.1397
 6129W        W24333   3.351  17.354  13.216  0.2258 -0.2452 -0.1838
 6130W        W24334  18.148   1.433  12.477 -0.2311 -0.0895  0.1269
 6131W        W24335   3.354   1.170  11.222 -0.0533 -0.1257  0.3849
 6132W        W24336  12.722   2.133  10.877  0.0059 -0.0366  0.1276
 6133W        W24337  13.411  14.468   1.920 -0.2992  0.0182  0.1944
 6134W        W24338   2.393  17.627  13.011 -0.1012  0.0766 -0.1208
 6135W        W24339   3.202   6.144  13.544 -0.3116 -0.0198  0.4883
 6136W        W24340   5.500   0.669   0.604  0.3343 -0.1351 -0.1434
 6137W        W24341   2.079  14.607   4.080  0.0200  0.1108  0.0952
 6138W        W24342  12.318  11.762  15.158 -0.0097  0.1787  0.0467
 6139W        W24343   1.213  12.355   1.794  0.2255 -0.0515  0.2903
 6140W        W24344  13.560   0.851   1.448 -0.1455  0.3019 -0.0687
 6141W        W24345   2.308   1.840  14.799 -0.0703 -0.2851  0.1659
 6142W        W24346   1.616  13.765  13.176 -0.0506  0.2789  0.1243
 6143W        W24347  12.857  16.864   1.140  0.1782  0.0536 -0.0629
 6144W        W24348  13.228  16.111  13.331  0.1091  0.3414  0.0414
 6145W        W24349   1.188  15.554   1.529 -0.1661 -0.2635 -0.1187
 6146W        W24350  13.192   2.110  14.255 -0.0073  0.1967 -0.3000
 6147W        W24351   3.300   8.181  14.575 -0.1687  0.1630  0.1536
 6148W        W24352   6.883   9.228   2.103 -0.0362 -0.1097 -0.0488
 6149W        W24353   9.002   1.609  15.645  0.2096  0.3101 -0.2101
 6150W        W24354   8.012   5.811   2.464  0.1100  0.0917  0.0357
 6151W        W24355  11.040   2.164   1.653  0.4081 -0.0463 -0.1455
 6152W        W24356   9.153   9.069  13.707  0.2266  0.0979 -0.4027
 6153W        W24357  17.553   1.153  15.583 -0.0238  0.1696 -0.3033
 6154W        W24358   8.052   1.911  15.706 -0.2167  0.1622 -0.1047
 6155W        W24359   8.747  12.822   3.975  0.0990 -0.1377 -0.1366
 6156W        W24360  13.283  14.917  14.319 -0.0942 -0.0210 -0.2845
 6157W        W24361  12.877   5.726  11.963 -0.0685  0.1376 -0.3100
 6158W        W24362  10.540  11.879   4.021 -0.2581  0.1745  0.1199
 6159W        W24363  17.567  17.275   4.134 -0.0689  0.0539  0.0483
 6160W        W24364  13.764   6.422   3.204  0.0910  0.0296 -0.3696
 6161W        W24365   5.404  14.703  15.568 -0.0339 -0.0783  0.0091
 6162W        W24366  14.540  15.986   1.984 -0.0704 -0.2783 -0.2883
 6163W        W24367  14.237   5.055   4.439 -0.2042  0.0684  0.0058
 6164W        W24368  15.025   1.208  14.772 -0.0721  0.0389 -0.1167
 6165W        W24369  14.332  17.708  11.451 -0.0521  0.1454 -0.1506
 6166W        W24370   1.974  15.645  14.304  0.1339  0.2031 -0.1207
 6167W        W24371  13.335   6.355   3.488 -0.1972  0.2321  0.1095
 6168W        W24372   7.594   7.881   4.240 -0.0819  0.0335 -0.0333
 6169W        W24373   7.256   1.769   3.010 -0.3188 -0.0717  0.0933
 6170W        W24374  16.114  11.358  15.667 -0.2039 -0.0444 -0.1554
 6171W        W24375   3.435  12.367  12.086  0.1783  0.0519  0.2863
 6172W        W24376   3.988  12.930  12.107 -0.0366  0.0423  0.3123
 6173W        W24377  16.501   3.738  13.270  0.3294  0.4841 -0.0705
 6174W        W24378   7.263   7.538   0.215 -0.2304 -0.0011 -0.1947
 6175W        W24379  14.564   2.101   2.409  0.2380 -0.0051  0.1136
 6176W        W24380   1.998  13.427  14.643 -0.0476  0.0715  0.0409
 6177W        W24381  10.156  15.035   3.526 -0.0443 -0.0825 -0.1975
 6178W        W24382  14.048  14.918  13.068 -0.0496  0.1247  0.1714
 6179W        W24383   5.481   3.841   1.821  0.0234  0.3530 -0.1497
 6180W        W24384  16.213   3.085   5.651  0.2039  0.2187 -0.1454
 6181W        W24385   5.635  14.007   5.253  0.3433 -0.1309 -0.2821
 6182W        W24386   5.166  10.437   0.899 -0.3417 -0.4885 -0.1541
 6183W        W24387  14.330  17.418   2.286 -0.0415  0.1257  0.1441
 6184W        W24388  18.252   9.751  14.832 -0.5657  0.0489  0.2270
 6185W        W24389   2.481  10.320   3.388  0.0040 -0.2280 -0.0906
 6186W        W24390  15.734  10.807  11.469 -0.0707  0.1241  0.1652
 6187W        W24391  14.964  18.219   1.584  0.2010 -0.2385 -0.2732
 6188W        W24392  12.494  10.267  13.088  0.1425  0.1946  0.0478
 6189W        W24393   0.757   9.091   0.968  0.2279 -0.0467  0.0116
 6190W        W24394  10.708   7.901  14.920  0.0457 -0.2818 -0.0256
 6191W        W24395   6.488  17.847   2.081  0.1005  0.1122  0.0010
 6192W        W24396   1.759  13.015   1.814  0.0569  0.0313 -0.3643
 6193W        W24397   0.260   4.932  13.757  0.1444  0.1760 -0.1450
 6194W        W24398   8.220  14.118   0.911  0.3089 -0.0222  0.1639
 6195W        W24399  11.241  11.885  14.045  0.1623 -0.3472  0.2025
 6196W        W24400   5.320   4.816   0.346 -0.1772  0.0026  0.0487
 6197W        W24401  12.643   4.777  10.245  0.1090 -0.1212  0.1419
 6198W        W24402  12.011  14.025   4.241  0.0968 -0.2731  0.1820
 6199W        W24403  13.995   2.357  11.351  0.0450 -0.2432  0.0471
 6200W        W24404  13.337   5.533  11.118 -0.0822  0.0588 -0.3024
 6201W        W24405   8.830  16.448   3.029  0.2786 -0.2720 -0.0476
 6202W        W24406   7.199  16.922  11.986  0.0880  0.1102  0.3396
 6203W        W24407   9.879  15.590   3.992  0.0215 -0.1527  0.0673
 6204W        W24408   6.326  16.567   2.696 -0.1802  0.0466 -0.4063
 6205W        W24409  13.781  16.111  14.672 -0.0288 -0.2948 -0.0457
 6206W        W24410  15.144   0.353   0.154 -0.0535 -0.0141 -0.0964
 6207W        W24411  17.991  18.013   2.269 -0.0396 -0.1286  0.1492
 6208W        W24412  11.090   5.614   4.136  0.0684 -0.4052 -0.2990
 6209W        W24413   9.691   4.606  14.967 -0.1707  0.3066 -0.3168
 6210W        W24414  13.665   2.278   4.036 -0.0537  0.0570  0.1780
 6211W        W24415   9.861   9.718   4.328  0.1734  0.1377  0.0360
 6212W        W24416   5.657  16.356  13.168  0.0926 -0.0619 -0.2784
 6213W        W24417   7.396  17.850   0.033 -0.2337  0.3220 -0.0982
 6214W        W24418   9.832   7.445   5.157 -0.0465  0.0480 -0.0474
 6215W        W24419  13.979   3.276  14.304  0.1601  0.0317 -0.0174
 6216W        W24420  16.387   1.107  12.812 -0.3969  0.0544 -0.0673
 6217W        W24421   1.424  14.651   3.022  0.0795  0.1562 -0.1930
 6218W        W24422   0.463   4.168   0.981 -0.2614 -0.2478  0.2549
 6219W        W24423   4.566   3.630  11.154 -0.1569 -0.2919  0.1882
 6220W        W24424   6.554   9.266   0.242  0.1837 -0.0871  0.0096
 6221W        W24425  10.051   5.218  12.969  0.0003 -0.3322 -0.1006
 6222W        W24426  14.407   4.348  14.352  0.0273  0.1684 -0.0420
 6223W        W24427   4.170  17.777   4.447 -0.0244 -0.3279  0.0194
 6224W        W24428   7.061  13.219  12.210  0.0113 -0.0822 -0.1195
 6225W        W24429  15.837  17.116  14.353  0.1265  0.1992 -0.1992
 6226W        W24430   8.538  11.982   0.500  0.0461  0.1845  0.1338
 6227W        W24431  16.808  10.038  13.565 -0.1666  0.2013  0.2847
 6228W        W24432   7.208  12.116  15.071  0.2494  0.1033  0.1330
 6229W        W24433  11.385  17.459  11.695 -0.1682 -0.1459 -0.1238
 6230W        W24434   5.220  11.879   4.721  0.1866  0.0870  0.0266
 6231W        W24435   4.529   6.833  13.894  0.2365 -0.1273  0.1159
 6232W        W24436   3.701  16.474  14.427  0.0235 -0.0008 -0.3057
 6233W        W24437  16.990  12.299  11.176  0.0792 -0.0768 -0.1431
 6234W        W24438  18.371   7.253   0.026 -0.0649 -0.3284  0.2048
 6235W        W24439   2.990  17.526  15.149  0.2785 -0.4010 -0.0871
 6236W        W24440  18.316  12.887  15.712  0.3003 -0.0920  0.0823
 6237W        W24441  14.832   2.595   3.433  0.0362  0.0455 -0.1879
 6238W        W24442   9.680   0.007  13.238  0.0277  0.1469  0.2007
 6239W        W24443  16.379   0.228  12.812 -0.1591  0.0368 -0.0265
 6240W        W24444   3.665   8.488   2.619  0.0984  0.0565 -0.3981
 6241W        W24445   7.849  12.086   2.784  0.1303 -0.2414  0.0944
 6242W        W24446  12.494   7.360  13.208 -0.1170  0.3152 -0.2224
 6243W        W24447   7.091   0.804   3.263  0.0646 -0.0845  0.1376
 6244W        W24448   8.700   0.540  14.452 -0.2438 -0.2447 -0.0564
 6245W        W24449  16.466   7.493   1.505 -0.0790  0.0692  0.2703
 6246W        W24450   9.911   7.763   2.951  0.0460 -0.2141 -0.2428
 6247W        W24451  11.567  15.649   3.455  0.0674 -0.2972  0.0139
 6248W        W24452   9.108   5.503   4.055  0.1847  0.1764  0.0653
 6249W        W24453  14.011  17.980  10.389  0.1825 -0.0957  0.1473
 6250W        W24454   5.732   2.472   3.722 -0.1284 -0.1962 -0.2191
 6251W        W24455  12.500   4.446   4.107  0.1038  0.0410  0.0629
 6252W        W24456   7.059  10.757   4.697  0.1627 -0.2194 -0.0075
 6253W        W24457   9.890   0.198  14.156  0.1673 -0.1219  0.3180
 6254W        W24458  15.417  16.399  14.124 -0.1905 -0.2329  0.1421
 6255W        W24459  11.970  14.402  15.131  0.2790  0.1251  0.0799
 6256W        W24460   2.307  16.521   1.950 -0.0141  0.0061 -0.0876
 6257W        W24461  16.188  13.641  12.850 -0.0095  0.2758  0.0185
 6258W        W24462   1.570  13.302   3.535  0.1256  0.1385 -0.0192
 6259W        W24463   5.715  13.848   3.137 -0.0706  0.1407 -0.2496
 6260W        W24464   9.199  11.218  14.381  0.0242  0.0368  0.0161
 6261W        W24465   2.569  13.526   1.914  0.0520  0.0098 -0.4767
 6262W        W24466  17.989   7.614  13.008  0.0779  0.4922 -0.1980
 6263W        W24467   2.321  14.831   0.628  0.3973 -0.0934  0.2903
 6264W        W24468   0.098  11.166  13.293  0.0172  0.2030  0.1055
 6265W        W24469  11.161   1.988  12.038  0.0303  0.3884  0.0463
 6266W        W24470  10.123  18.100   2.081 -0.2037 -0.1866 -0.0088
 6267W        W24471   6.460  13.876  13.706  0.0428 -0.0603  0.0060
 6268W        W24472   5.464  11.026  15.058  0.0462  0.3717  0.1134
 6269W        W24473   8.030  12.435   1.388  0.2092  0.0668  0.2041
 6270W        W24474  15.852   6.579   0.165 -0.0295 -0.2849 -0.1096
 6271W        W24475  13.583   6.186  15.320  0.0211 -0.2142  0.1207
 6272W        W24476   3.293   1.204  13.299 -0.2127 -0.1594  0.0350
 6273W        W24477   7.215   8.416  12.991  0.1001 -0.1594  0.1060
 6274W        W24478   8.686   2.268  15.396 -0.0163  0.0964 -0.1900
 6275W        W24479   5.078   0.099  15.080 -0.0871 -0.0973  0.2427
 6276W        W24480   8.740  10.350   2.598  0.2626  0.1729 -0.3787
 6277W        W24481  14.426   7.035   2.449 -0.0550 -0.2201 -0.1456
 6278W        W24482  11.029  18.112   2.059 -0.0848  0.1312 -0.0590
 6279W        W24483   5.445   4.512  13.721  0.0019  0.0798 -0.0424
 6280W        W24484  11.448   4.595   0.959  0.1434 -0.0023  0.0707
 6281W        W24485   6.977   1.088  15.639  0.1945  0.1962 -0.1464
 6282W        W24486   4.280  12.250  11.561  0.1969 -0.2425 -0.2597
 6283W        W24487  11.314  16.315   2.007 -0.5428 -0.2643 -0.1300
 6284W        W24488   9.469  14.510   5.050 -0.1403 -0.3466 -0.0777
 6285W        W24489   3.964  18.293  14.460 -0.0925 -0.1282  0.0564
 6286W        W24490   3.085  13.058   3.544 -0.1873  0.0455  0.1253
 6287W        W24491   7.154   3.148  14.511  0.0314  0.0995  0.1894
 6288W        W24492   9.787   9.028   3.496 -0.2110  0.0768 -0.0278
 6289W        W24493  14.238  10.592  11.427 -0.0174 -0.0984 -0.0726
 6290W        W24494   4.931   4.947   2.318  0.1163 -0.2938 -0.0441
 6291W        W24495  16.692   4.998   4.508 -0.3209 -0.0182 -0.0504
 6292W        W24496  11.712   1.326   2.028  0.1819 -0.2391 -0.2339
 6293W        W24497   7.707   1.947  12.056 -0.1080  0.0649  0.0254
 6294W        W24498   7.146   7.377  13.425  0.0167  0.1109  0.1847
 6295W        W24499  17.122   9.802   3.187 -0.0702  0.3225 -0.0271
 6296W        W24500   6.711  10.442   1.669  0.0670 -0.0777 -0.2083
 6297W        W24501  15.798   5.172  13.553  0.1529  0.1041 -0.0120
 6298W        W24502   2.792  13.662   4.520 -0.1205  0.3116 -0.0969
 6299W        W24503   8.965   0.986  15.546 -0.1601  0.1211  0.0504
 6300W        W24504   8.152   5.536  11.560  0.0743  0.1334  0.0353
 6301W        W24505  12.528  15.654   2.726 -0.3097 -0.0340  0.2061
 6302W        W24506   7.421   4.884   2.456  0.3311  0.0938 -0.1703
 6303W        W24507  12.746  17.050   0.637  0.2806 -0.0691  0.1204
 6304W        W24508  10.394  13.354  11.043 -0.0581  0.1562 -0.0469
 6305W        W24509   9.486   4.993   0.637  0.0257 -0.0915 -0.2566
 6306W        W24510   6.156   7.245   2.228 -0.4134  0.3719 -0.0613
 6307W        W24511  10.738   6.084   3.285  0.1930  0.2086 -0.0697
 6308W        W24512  13.775  16.245   4.134 -0.1332  0.1894 -0.1537
 6309W        W24513   0.259   9.596  12.620 -0.0734 -0.0169  0.0005
 6310W        W24514  17.591  17.383  11.590 -0.2429  0.1090  0.0858
 6311W        W24515   5.571  17.539  14.268  0.0313 -0.1827  0.2401
 6312W        W24516   6.493   0.748  15.715  0.3314 -0.2299 -0.1219
 6313W        W24517   6.543   7.223   4.162  0.0904 -0.3371  0.7266
 6314W        W24518   2.449   2.283  13.466  0.0587  0.0524  0.0306
 6315W        W24519   1.076   6.015   5.313 -0.0035  0.0621  0.0058
 6316W        W24520   0.858   4.197  12.823  0.2413  0.3472  0.1845
 6317W        W24521   9.582  17.678  12.568  0.0874 -0.0441 -0.3862
 6318W        W24522   4.519   1.698  13.054  0.1418 -0.0735 -0.2130
 6319W        W24523   8.529   5.995  15.016 -0.0551 -0.0637  0.2325
 6320W        W24524  16.130  11.330   3.929 -0.2245 -0.2473 -0.0714
 6321W        W24525   4.469   8.883   3.128  0.3154  0.0278  0.0860
 6322W        W24526   3.371   9.900  13.019  0.0730 -0.2120  0.1238
 6323W        W24527   5.810  13.355  11.412  0.2019 -0.3365 -0.2049
 6324W        W24528   4.970  14.865   1.865 -0.1573 -0.2070  0.0971
 6325W        W24529   7.875   1.403   2.311  0.2121 -0.0062  0.1412
 6326W        W24530  10.303   7.946  11.825 -0.1466  0.0130  0.2395
 6327W        W24531   7.594  11.180   3.082  0.1288 -0.2674  0.0564
 6328W        W24532   8.922   5.243  15.046 -0.1904 -0.0654  0.1596
 6329W        W24533   8.611   4.881   4.177  0.2522 -0.1880  0.3214
 6330W        W24534  15.176  15.582   3.758 -0.0196  0.1486 -0.1263
 6331W        W24535   0.359  11.799   2.293  0.1553 -0.1554  0.0659
 6332W        W24536   0.648   9.782  12.288  0.2111  0.3512 -0.0725
 6333W        W24537  15.495   4.915   0.611 -0.3155 -0.1723 -0.1799
 6334W        W24538  14.965   2.626   1.561 -0.2257 -0.0682 -0.0059
 6335W        W24539  16.098   1.857   1.161 -0.2179  0.0290  0.1467
 6336W        W24540  17.001  13.715  15.309  0.0877  0.4394 -0.2371
 6337W        W24541   7.701   0.880  13.287 -0.0208  0.1117  0.0409
 6338W        W24542  17.815  17.971   2.996 -0.1413 -0.0043 -0.0552
 6339W        W24543   9.917  18.241   4.030  0.1078 -0.4335  0.2959
 6340W        W24544   2.067  16.112  13.501 -0.0325  0.1660 -0.1836
 6341W        W24545  13.800  10.245   3.812 -0.0113 -0.1571  0.0657
 6342W        W24546   5.283   0.028  11.948  0.1057 -0.2618 -0.0069
 6343W        W24547  11.163   1.504  13.851  0.1808  0.0729 -0.0682
 6344W        W24548   5.229   0.984  12.417 -0.0480 -0.0508  0.0565
 6345W        W24549  10.000   3.753   2.819  0.0974 -0.3231  0.1693
 6346W        W24550   1.927  18.021  13.734 -0.2701  0.0096  0.1942
 6347W        W24551  17.299   7.969   4.318  0.1495  0.2008 -0.0747
 6348W        W24552  14.952   0.622   1.021  0.5081 -0.0820  0.1497
 6349W        W24553  18.362   9.991   2.037 -0.1650  0.0035  0.0879
 6350W        W24554  14.629   4.496   2.149  0.1847 -0.1426 -0.0777
 6351W        W24555  16.820  14.510   3.312  0.1245  0.0250 -0.1691
 6352W        W24556   4.567  10.866  12.106 -0.0302 -0.0334 -0.0751
 6353W        W24557   6.587   5.645   4.662  0.3165  0.0652 -0.1737
 6354W        W24558  10.836   9.281   4.259 -0.1387  0.1318 -0.4582
 6355W        W24559   5.848  17.511   4.898 -0.1472 -0.0134 -0.0875
 6356W        W24560  17.716  17.194   0.377  0.1462 -0.2277 -0.2053
 6357W        W24561   9.952   8.495  14.157 -0.2706 -0.1772 -0.0550
 6358W        W24562   9.196  12.928   4.879 -0.0568 -0.0092  0.0087
 6359W        W24563   0.949  15.298  12.470 -0.2988  0.3618 -0.2564
 6360W        W24564   9.755   5.396  12.548  0.1912  0.0654 -0.2525
 6361W        W24565   8.847  12.639   4.522  0.1352 -0.2307 -0.2887
 6362W        W24566   2.973  16.723  14.785  0.1013 -0.0781  0.0224
 6363W        W24567   7.356   2.491  13.348  0.1347 -0.2394  0.2463
 6364W        W24568  12.485  13.359  12.933 -0.0578 -0.0523 -0.0421
 6365W        W24569   9.611  10.793  14.408 -0.0414  0.0950  0.2074
 6366W        W24570   0.580   5.526  13.408  0.0443 -0.0798  0.0948
 6367W        W24571   5.494   9.064  14.399  0.0379  0.2374 -0.0595
 6368W        W24572   9.679  14.508   4.602  0.1936 -0.0141 -0.2644
 6369W        W24573  12.889   2.963  12.754 -0.1872 -0.0413  0.0545
 6370W        W24574   6.302  13.096   0.342 -0.2176  0.1603  0.2127
 6371W        W24575  13.891   1.474  15.359  0.1132  0.0980  0.2681
 6372W        W24576  10.853  11.158   1.565 -0.1383 -0.0496 -0.0423
 6373W        W24577   7.703   0.594   4.620 -0.1512 -0.0126 -0.0473
 6374W        W24578   5.587  16.214  14.359 -0.0779  0.3793  0.2943
 6375W        W24579   1.920  13.652  15.490 -0.4368  0.1394  0.6275
 6376W        W24580  10.758   7.183  11.842  0.2528 -0.2664  0.0691
 6377W        W24581   5.731  16.980   2.735  0.0818 -0.2842  0.2763
 6378W        W24582   0.220   6.426   0.292  0.0985  0.1379  0.2488
 6379W        W24583   7.485   8.866   1.869  0.2158 -0.1187  0.0574
 6380W        W24584   0.393   2.095   4.495 -0.1834  0.0538  0.0336
 6381W        W24585  17.385   5.703   0.231 -0.2783 -0.0737  0.0671
 6382W        W24586  10.373  16.817  15.293  0.2491 -0.0493 -0.1559
 6383W        W24587   6.283   3.496  12.787  0.2378 -0.2468 -0.2047
 6384W        W24588  11.434  18.147   3.497 -0.0162  0.2692  0.1380
 6385W        W24589   9.605  18.368  15.709 -0.0176  0.1367  0.2018
 6386W        W24590   7.766  16.899  11.990  0.1593  0.3829  0.1117
 6387W        W24591   7.948  13.595   0.786  0.0491 -0.1182 -0.1979
 6388W        W24592  10.194   9.512  14.435 -0.3380 -0.0836 -0.0642
 6389W        W24593   8.905   1.647   3.154 -0.0539  0.0709  0.2474
 6390W        W24594  13.213  13.127  12.989  0.0411 -0.1511 -0.0502
 6391W        W24595   4.360   3.883  11.761 -0.0551 -0.0429  0.0773
 6392W        W24596   4.221  17.699  12.096 -0.1051 -0.1284 -0.0524
 6393W        W24597   1.943  14.451  14.395  0.2145  0.0103 -0.1601
 6394W        W24598   8.523   9.437   1.367 -0.1859 -0.4803 -0.0773
 6395W        W24599  11.651   1.356   4.072 -0.1959 -0.2192  0.1969
 6396W        W24600  15.500  17.923   3.952 -0.0079  0.1382 -0.0298
 6397W        W24601   9.359  15.365   2.641 -0.0351  0.0168 -0.0529
 6398W        W24602  13.096   1.991  11.361 -0.5055  0.0598 -0.1945
 6399W        W24603   5.795   3.472  13.510  0.1673 -0.0474 -0.1601
 6400W        W24604   3.205   4.340   3.738  0.0921  0.2059 -0.0407
 6401W        W24605  10.567   5.336  13.097 -0.0227  0.1027 -0.0242
 6402W        W24606  17.083   0.227   4.502  0.1834 -0.0907  0.2383
 6403W        W24607   5.918   5.657   0.301  0.1993  0.2410  0.2197
 6404W        W24608   7.133  11.757  14.599 -0.0198  0.0417 -0.0167
 6405W        W24609  15.197  15.498   0.985  0.0080  0.3163  0.0683
 6406W        W24610   2.945  18.292   1.185 -0.0741  0.1025 -0.0697
 6407W        W24611  11.827  12.717  14.256 -0.3344  0.0667 -0.0180
 6408W        W24612  14.559   3.599   0.294  0.2529  0.3838 -0.2216
 6409W        W24613   6.207   7.311  12.561 -0.1119 -0.0876  0.0751
 6410W        W24614   9.707   2.908  10.971  0.1517 -0.0658 -0.1098
 6411W        W24615  15.763   8.368   0.739  0.3154 -0.2532  0.0922
 6412W        W24616  12.954   8.068  13.098 -0.0893  0.2983  0.2027
 6413W        W24617   7.832   4.528  10.937 -0.0134  0.1114 -0.2344
 6414W        W24618  17.139  13.767   3.916  0.2447 -0.0553 -0.0931
 6415W        W24619   6.554   9.748   0.139  0.2585  0.3621 -0.2235
 6416W        W24620   5.407  18.211  13.248  0.0818  0.2448 -0.0584
 6417W        W24621  10.172  11.522   0.651 -0.1210 -0.3812  0.1354
 6418W        W24622   8.942   6.148  12.053  0.1885  0.0393 -0.0553
 6419W        W24623   8.901  18.246   2.745 -0.2848  0.2096 -0.0523
 6420W        W24624   7.274  12.691  13.574 -0.1443  0.0979  0.1436
 6421W        W24625  15.768   4.011  12.755  0.1541  0.0339  0.0816
 6422W        W24626  16.510   8.589  14.320  0.3444 -0.0817  0.2138
 6423W        W24627  15.469  17.026   1.976 -0.1134  0.1446 -0.1407
 6424W        W24628  11.640   2.336  13.528 -0.0225 -0.4013  0.0198
 6425W        W24629  17.832   5.476   4.431 -0.1131 -0.0873  0.0963
 6426W        W24630   1.097  10.468   3.562 -0.0402  0.1553  0.1880
 6427W        W24631  13.408  10.215   5.057 -0.1942  0.3388  0.2025
 6428W        W24632   2.665  16.703   3.019  0.2216 -0.1509 -0.0433
 6429W        W24633   8.512   6.242   0.616  0.2548 -0.0916  0.0989
 6430W        W24634  15.405  14.343   0.503  0.2936  0.0574 -0.0671
 6431W        W24635   5.648   3.161   0.533 -0.0938  0.2116 -0.1591
 6432W        W24636  17.681  17.900   1.903 -0.0254 -0.0374 -0.2882
 6433W        W24637  14.770  12.929  13.672 -0.3043 -0.1598  0.2934
 6434W        W24638   1.347   8.644  14.497 -0.0429  0.1373  0.2665
 6435W        W24639   6.649  11.185  15.437 -0.0045 -0.0750 -0.0114
 6436W        W24640  13.437  15.291  13.611  0.3262 -0.0162 -0.0415
 6437W        W24641   2.268   8.616   3.080 -0.0446  0.0676 -0.1378
 6438W        W24642  11.952  12.174   0.090  0.1234  0.0437  0.2131
 6439W        W24643   2.507  17.632   3.479 -0.2929  0.0509 -0.1764
 6440W        W24644   0.035   3.238  15.077 -0.0747  0.2950 -0.0218
 6441W        W24645   2.731   6.339  12.757  0.2658  0.0796 -0.0873
 6442W        W24646   1.822   1.598  14.781  0.2079  0.3366 -0.0456
 6443W        W24647   6.365   6.090  13.566  0.2044 -0.0103 -0.1123
 6444W        W24648  18.299   2.939  11.442  0.1643 -0.1620 -0.2415
 6445W        W24649  14.857   3.310  11.479 -0.0437  0.0762  0.0940
 6446W        W24650  18.100   0.996  13.338 -0.1360  0.0342  0.0809
 6447W        W24651   1.637   3.757  11.641 -0.5032  0.3438  0.1859
 6448W        W24652   0.941   9.629  11.509  0.2493  0.0029  0.0168
 6449W        W24653   6.041   6.261   2.269  0.0415  0.0761 -0.0956
 6450W        W24654   5.805   9.822   3.987 -0.0411 -0.0448  0.0007
 6451W        W24655   9.748   7.859  12.732 -0.2300 -0.0141  0.0820
 6452W        W24656   9.963   3.970   0.344 -0.1588 -0.0414  0.0671
 6453W        W24657  11.593   4.769   4.156  0.1263 -0.0469 -0.2681
 6454W        W24658   6.114  17.497   4.023  0.0900 -0.3798 -0.1131
 6455W        W24659  14.593  10.765   1.097  0.2528 -0.0485 -0.3759
 6456W        W24660   6.540   3.852   1.993 -0.0599 -0.1601 -0.0426
 6457W        W24661  15.513   8.614  14.093  0.0019  0.1799 -0.1825
 6458W        W24662   2.538  10.740   1.965  0.0452  0.0908 -0.1862
 6459W        W24663  11.974  15.587  11.841 -0.0120 -0.0945 -0.1429
 6460W        W24664   3.843   2.819  13.231 -0.1133  0.0535 -0.1267
 6461W        W24665   2.696   2.223  15.697 -0.1123  0.3139 -0.1728
 6462W        W24666  12.058   6.502  10.856 -0.1717  0.0214 -0.2287
 6463W        W24667   4.183   7.769   2.546  0.1693 -0.1445 -0.0775
 6464W        W24668  13.110  10.176   1.908 -0.2478 -0.0725  0.2502
 6465W        W24669  15.225  16.917   3.351  0.0933  0.0009  0.0359
 6466W        W24670   4.006  14.509  15.207  0.0583  0.1220  0.1955
 6467W        W24671   1.503  17.594  13.402  0.0500 -0.0955  0.4152
 6468W        W24672   3.853  17.257  15.352  0.0179 -0.1237 -0.2583
 6469W        W24673   8.736   3.704   1.819 -0.4246 -0.0015 -0.0428
 6470W        W24674  15.990  16.172   2.540  0.1530  0.0936 -0.1192
 6471W        W24675  16.734   0.175   0.498  0.0337  0.2279 -0.1156
 6472W        W24676   8.208   8.633   2.403 -0.0056 -0.1550 -0.0287
 6473W        W24677  17.494   1.706  13.350 -0.0105  0.0601 -0.1161
 6474W        W24678  11.829  11.710   4.596  0.4298 -0.3905 -0.0291
 6475W        W24679  13.873   9.112   2.901  0.2114 -0.0043 -0.4281
 6476W        W24680  17.046   5.488  15.484  0.1693 -0.1055  0.1834
 6477W        W24681   8.895   2.477   3.447 -0.0015 -0.3047 -0.0348
 6478W        W24682   8.244  13.314  12.237 -0.0289  0.3265  0.0981
 6479W        W24683  18.217  15.353  13.326  0.0002 -0.1396 -0.0634
 6480W        W24684  15.036  11.550  13.015  0.1850 -0.3033  0.2596
 6481W        W24685   8.394  16.674  14.484  0.3576 -0.3637  0.1689
 6482W        W24686   5.511   2.848   4.075 -0.2406  0.3205  0.0228
 6483W        W24687   4.677   0.762   2.944 -0.2848  0.0867  0.3067
 6484W        W24688  18.022   5.143  11.126  0.1621 -0.1217  0.2184
 6485W        W24689   1.439   7.008   2.883  0.1523  0.4992 -0.3268
 6486W        W24690   9.359  14.646   0.589  0.0019 -0.0045  0.1842
 6487W        W24691   2.760  16.227   3.937  0.0375 -0.2659  0.1152
 6488W        W24692   6.907   8.061  12.804  0.1210  0.3964 -0.2209
 6489W        W24693  17.463  14.851   0.247  0.0194  0.2093  0.0165
 6490W        W24694  16.318   4.409   3.706 -0.2167  0.1127  0.0196
 6491W        W24695  11.566   6.763  13.646 -0.2676  0.0285  0.0704
 6492W        W24696  16.072  10.950  15.008 -0.0492 -0.0922 -0.1333
 6493W        W24697   1.725  11.857   2.483  0.1800 -0.0642  0.1299
 6494W        W24698  12.129   2.896  11.026 -0.0243 -0.2650 -0.0882
 6495W        W24699  17.894   2.648   0.219  0.2696 -0.4180  0.0776
 6496W        W24700   8.013  15.890   3.166  0.0836  0.3890  0.1587
 6497W        W24701   5.805  15.963  11.562  0.1832  0.2155 -0.0930
 6498W        W24702   5.006  12.604   2.241 -0.1262  0.3807 -0.1018
 6499W        W24703   8.568  12.300  12.397 -0.0330  0.2163  0.2889
 6500W        W24704   5.048  15.157  13.015 -0.0899 -0.3035 -0.0979
 6501W        W24705   9.396  14.927   5.538  0.0058 -0.0759 -0.0612
 6502W        W24706  11.050  11.712   3.897  0.0756  0.2966 -0.0099
 6503W        W24707  12.187  12.738   9.979  0.0792 -0.1159 -0.1146
 6504W        W24708  12.869   9.182   0.608 -0.0344 -0.0646  0.0161
 6505W        W24709   7.911   3.367   3.250  0.2995  0.0456  0.1493
 6506W        W24710  15.377   0.674  11.231  0.0722  0.1642  0.0985
 6507W        W24711   6.191   2.644  12.329  0.1444 -0.1183 -0.2957
 6508W        W24712  15.533   3.091   3.084 -0.0623  0.2769  0.1691
 6509W        W24713  15.157  14.880  12.772 -0.0012  0.1722  0.2376
 6510W        W24714   7.674  16.948   2.379 -0.0473 -0.0903 -0.0600
 6511W        W24715  12.313  13.776   1.911  0.1062 -0.2991 -0.0339
 6512W        W24716  12.317  12.188  14.892  0.0039 -0.2634  0.0583
 6513W        W24717   2.891  15.928  12.949  0.0424  0.1781 -0.0903
 6514W        W24718   2.970  15.773   3.062  0.0117  0.3745  0.2766
 6515W        W24719   9.090  18.342   4.543  0.3003 -0.1988  0.0108
 6516W        W24720  16.104   9.702   4.868  0.1918  0.0107  0.1138
 6517W        W24721   1.089   8.203  14.594 -0.1097  0.1817  0.1154
 6518W        W24722   8.959   1.530  11.209  0.1487  0.2370 -0.0316
 6519W        W24723  13.867  13.000  14.898  0.1686 -0.3562  0.0445
 6520W        W24724  17.115   5.326  14.508 -0.0464  0.0803 -0.0865
 6521W        W24725  13.719  16.748  15.227 -0.0000 -0.2935 -0.1010
 6522W        W24726   8.019  11.598  12.842  0.3335 -0.1056 -0.1740
 6523W        W24727  10.174  13.688  14.062 -0.1192  0.2810  0.1228
 6524W        W24728  16.861   3.901   1.081 -0.0501  0.0260 -0.0938
 6525W        W24729   2.248   8.718  11.288 -0.1358 -0.1321 -0.0186
 6526W        W24730  12.274   3.304  10.344 -0.0941 -0.0286  0.2697
 6527W        W24731   2.942   9.551   3.738 -0.1781 -0.2030 -0.2292
 6528W        W24732  14.989   4.195  14.059 -0.3105  0.0124  0.1448
 6529W        W24733   6.996   5.887   2.422  0.0620  0.1224 -0.0050
 6530W        W24734   6.334   6.957  14.668  0.3047 -0.1743 -0.1169
 6531W        W24735   8.561  13.107  11.361 -0.0924  0.0602 -0.0967
 6532W        W24736  10.998   0.236   2.943  0.1931  0.0158  0.2527
 6533W        W24737   0.124   9.224  15.675  0.0934 -0.1747  0.1117
 6534W        W24738  12.044  13.538  14.633  0.0455 -0.2560 -0.3392
 6535W        W24739   0.523   6.011   0.452  0.0191  0.2769  0.1086
 6536W        W24740  17.315  13.365   2.992  0.2474  0.2043  0.1338
 6537W        W24741   9.991   6.438  10.688 -0.0153  0.0498 -0.2379
 6538W        W24742   7.751  12.513  11.731  0.1014 -0.0259 -0.1451
 6539W        W24743   3.632   0.524   2.057 -0.0626  0.0387  0.4577
 6540W        W24744   5.263  13.649   0.182 -0.2433  0.0001 -0.2640
 6541W        W24745   3.492   0.723   5.059  0.0098 -0.0101  0.0958
 6542W        W24746  13.135   8.922   1.687  0.0892  0.0043 -0.0255
 6543W        W24747   8.016   1.724  14.913 -0.2243 -0.0001 -0.1276
 6544W        W24748   7.620  14.528   1.053  0.5338  0.0781 -0.0748
 6545W        W24749   5.529  10.101   0.832 -0.2343  0.0967 -0.1167
 6546W        W24750   3.304  15.580   5.079 -0.3004  0.3666 -0.2146
 6547W        W24751   4.651   3.848   3.071  0.1298  0.0573  0.0979
 6548W        W24752   5.336   9.804  15.543  0.1193 -0.0065  0.1645
 6549W        W24753   3.898   1.370   0.714 -0.2043 -0.3779 -0.0597
 6550W        W24754  17.916   6.755   2.006  0.1056  0.0567  0.0001
 6551W        W24755  17.616  14.708   0.700  0.3573 -0.1397  0.0757
 6552W        W24756   4.372   5.938   1.598 -0.0959  0.2378  0.0312
 6553W        W24757  16.066   6.374   3.490 -0.0479 -0.1136 -0.0290
 6554W        W24758  14.837  10.111  14.123 -0.1745 -0.3645 -0.2559
 6555W        W24759   6.042  13.228   0.743 -0.3488 -0.0235 -0.0531
 6556W        W24760   9.287   9.840  13.156 -0.1129  0.1386  0.0723
 6557W        W24761   2.586   9.275   3.438 -0.2018 -0.1974  0.0487
 6558W        W24762   0.156  13.899   3.158  0.0211 -0.2256 -0.1222
 6559W        W24763   3.660   9.664  14.002  0.0916 -0.1568  0.2721
 6560W        W24764   5.580   4.436   0.131  0.2478  0.2836 -0.3810
 6561W        W24765   2.319   7.753  12.197 -0.0532 -0.3862  0.0229
 6562W        W24766   8.101   4.302  14.439 -0.1409 -0.1294 -0.1528
 6563W        W24767   6.983  10.256  11.294 -0.1468  0.2317  0.0907
 6564W        W24768  10.347   6.052  11.947 -0.1955  0.2554 -0.3483
 6565W        W24769  15.899   2.232   5.068 -0.1011 -0.2380 -0.0013
 6566W        W24770  10.760  10.113  15.034  0.0331 -0.0906 -0.3536
 6567W        W24771   0.659   8.298   3.886  0.0851 -0.0651 -0.2139
 6568W        W24772   5.401   4.298  10.685 -0.1158  0.1227  0.4252
 6569W        W24773  12.196  13.395  12.086  0.1232  0.3535  0.4379
 6570W        W24774   7.050   6.125   3.291 -0.2246  0.0318 -0.2563
 6571W        W24775   3.783   7.349   4.465 -0.0908 -0.1961  0.1319
 6572W        W24776  11.664   1.167  13.902  0.1919 -0.0861 -0.0907
 6573W        W24777   6.832   3.243  11.624  0.0910  0.1080  0.0272
 6574W        W24778   4.848   4.783   0.643 -0.1067  0.3264 -0.0055
 6575W        W24779  16.703   3.368  15.368  0.0928  0.1733  0.0475
 6576W        W24780  11.695   3.757   3.421  0.3138 -0.0394 -0.1265
 6577W        W24781   2.213  11.430  14.081  0.1100  0.1305 -0.0223
 6578W        W24782   4.541  15.973   4.268 -0.1097  0.4165 -0.2054
 6579W        W24783   2.076   9.016   2.746  0.1940  0.0449 -0.0524
 6580W        W24784  17.815   5.950  14.432  0.0679  0.0315 -0.1654
 6581W        W24785  12.137  15.759   0.791  0.0095  0.2107 -0.2004
 6582W        W24786   7.649   4.222   0.237 -0.2006 -0.3725  0.3105
 6583W        W24787   4.189  11.425  15.640 -0.1422 -0.2261  0.0694
 6584W        W24788  12.323   6.130   1.973 -0.2624 -0.0302  0.1459
 6585W        W24789  18.310   4.848   1.220 -0.0938 -0.2621  0.3385
 6586W        W24790   4.523  17.849   5.490  0.1204  0.1953  0.4244
 6587W        W24791   7.386   1.318   3.194 -0.0789  0.0750  0.1791
 6588W        W24792   7.502   5.623  12.627 -0.0733 -0.1403 -0.2030
 6589W        W24793   3.924   7.334  15.459 -0.2741 -0.1687  0.0682
 6590W        W24794   3.230   1.670  13.444 -0.0839 -0.4235  0.1609
 6591W        W24795   7.219   1.315  14.609 -0.2155 -0.2274 -0.2313
 6592W        W24796  13.647   5.337   0.328 -0.2126  0.0340  0.0151
 6593W        W24797   5.588   6.835  13.925 -0.3776  0.5039 -0.2838
 6594W        W24798  16.852  17.762   1.830 -0.1292  0.0625  0.2146
 6595W        W24799  14.922  14.137  13.955  0.2492  0.0625  0.1589
 6596W        W24800  11.933   9.009   4.825  0.0036  0.1693  0.0470
 6597W        W24801   5.412   3.895  11.413  0.2329 -0.2461  0.0506
 6598W        W24802  10.080   9.883   3.777 -0.0993 -0.0274  0.2509
 6599W        W24803  10.995   6.660   4.982  0.0555  0.1273 -0.1830
 6600W        W24804   2.689   6.802   0.705  0.0738  0.2067 -0.2512
 6601W        W24805   3.615  12.134   3.449 -0.0809  0.3726  0.1845
 6602W        W24806  12.224   8.953  13.703  0.2626 -0.1497  0.0087
 6603W        W24807  16.518  14.966  13.819 -0.1585 -0.0853 -0.0165
 6604W        W24808  11.065  14.068  13.309  0.0487  0.0607  0.0229
 6605W        W24809   7.018   5.383   3.270 -0.0167 -0.0509  0.0453
 6606W        W24810   1.819   9.010  15.395  0.1379  0.0649 -0.2664
 6607W        W24811   0.409   5.129   1.772 -0.0794  0.0971  0.2502
 6608W        W24812  15.010   8.767  11.890  0.0956 -0.1532 -0.0701
 6609W        W24813   1.788  15.117   4.999  0.3215 -0.0122  0.1977
 6610W        W24814  16.217   7.348   0.259 -0.1212 -0.1223  0.1201
 6611W        W24815  11.482   5.405   1.060  0.3144 -0.0676 -0.1635
 6612W        W24816  10.119  12.158   3.037  0.0190 -0.0030  0.2826
 6613W        W24817  14.061  16.479  11.500 -0.1398  0.0528  0.0908
 6614W        W24818  12.568   6.086   2.885 -0.1995  0.2049  0.2911
 6615W        W24819  16.219   2.501  11.196 -0.2266 -0.2371  0.1905
 6616W        W24820  17.986   5.063   3.017  0.1122  0.0686 -0.1194
 6617W        W24821   2.649   5.854  11.129 -0.0213 -0.3525 -0.1803
 6618W        W24822   9.887   9.122  13.003 -0.0159  0.3816  0.0301
 6619W        W24823   4.345   0.587  12.131  0.2331 -0.3589 -0.1048
 6620W        W24824   3.410  15.042  11.735 -0.2765  0.0639  0.3337
 6621W        W24825  10.187   7.202   4.800 -0.1196  0.0850 -0.0002
 6622W        W24826  11.991   7.746   2.289  0.1180  0.1009  0.2621
 6623W        W24827  15.778   0.506  14.816  0.1249 -0.0819  0.0927
 6624W        W24828   3.776   1.529   2.165  0.0854 -0.2005  0.0708
 6625W        W24829   4.647   6.706   0.493 -0.1023  0.2245  0.2271
 6626W        W24830   7.721   0.538   0.855  0.1130  0.0664  0.1330
 6627W        W24831  11.403  18.323  12.984  0.1066  0.3017  0.5142
 6628W        W24832   6.078   1.399   5.182 -0.1221 -0.1600 -0.1399
 6629W        W24833   1.951  10.879   0.369 -0.0049 -0.1268 -0.0693
 6630W        W24834   3.960  18.130  12.135 -0.1713 -0.0192 -0.0901
 6631W        W24835  15.984   7.466  14.942 -0.1398  0.0047  0.1024
 6632W        W24836   4.480  12.534  15.256  0.1069 -0.1655  0.0804
 6633W        W24837   5.910  12.859  11.310 -0.1019 -0.3031  0.0607
 6634W        W24838   0.842  13.697  14.017 -0.4045  0.0615  0.0816
 6635W        W24839   4.043   7.789  12.477  0.0482  0.0664  0.0937
 6636W        W24840   6.120  17.426   2.144 -0.1934  0.0004 -0.2399
 6637W        W24841  15.027   2.024  11.063 -0.0908  0.1257 -0.2542
 6638W        W24842   0.458  16.412   5.229  0.0710 -0.0117  0.1923
 6639W        W24843  13.632   0.798  13.747  0.1879  0.0015  0.0747
 6640W        W24844   7.572   6.904  15.387 -0.0883  0.3089 -0.0205
 6641W        W24845  16.782   7.991   4.192 -0.0405  0.2798 -0.1474
 6642W        W24846  17.380   0.862  14.320  0.2925 -0.0429  0.1612
 6643W        W24847   0.268  16.207   3.641 -0.2055 -0.3016  0.0084
 6644W        W24848  10.059  10.064  12.551  0.1332 -0.0001  0.0427
 6645W        W24849  15.563   2.303   3.016  0.4189  0.3185  0.1355
 6646W        W24850  15.855   1.194  12.814 -0.2875 -0.1677  0.1118
 6647W        W24851  11.538   5.057  11.224 -0.2684 -0.1543 -0.4127
 6648W        W24852  10.080   3.786   1.352  0.2039  0.1892 -0.2857
 6649W        W24853   7.305  10.614   4.282 -0.0783 -0.1803  0.2360
 6650W        W24854  11.756   2.395   0.654  0.1447 -0.1744  0.1313
 6651W        W24855   1.634  12.041   4.631  0.1338  0.2852 -0.1647
 6652W        W24856  10.030   3.346   3.116  0.1811 -0.1326  0.1355
 6653W        W24857  14.578   5.852   2.307 -0.0678  0.2101 -0.2133
 6654W        W24858   0.110  14.199   3.533 -0.1312  0.1612  0.1865
 6655W        W24859   1.638  16.029   2.055 -0.0910  0.0591  0.3294
 6656W        W24860   0.001  13.796  12.709 -0.2005 -0.0743  0.0776
 6657W        W24861   2.571  16.351   4.838  0.0001 -0.0775  0.3121
 6658W        W24862   2.817  17.234   2.197  0.2200  0.0433 -0.0475
 6659W        W24863  14.578   6.670   2.036 -0.0741 -0.1822  0.1406
 6660W        W24864  16.074   6.765  11.470  0.3056 -0.1240 -0.0416
 6661W        W24865  17.231   4.839  14.513 -0.4063  0.4333 -0.2341
 6662W        W24866   5.516   0.905  15.117 -0.0802  0.0368 -0.1681
 6663W        W24867   8.233   5.007  13.711 -0.1557  0.0590  0.1211
 6664W        W24868   1.865  10.938   3.522 -0.3250  0.0102  0.0027
 6665W        W24869   5.116   0.628  13.008  0.2927 -0.1767  0.2177
 6666W        W24870   0.835   0.386  13.832  0.2073 -0.0574 -0.0274
 6667W        W24871  13.722  16.720   1.024 -0.1706 -0.1313  0.2802
 6668W        W24872   8.816   0.001  12.376  0.1992  0.1527  0.3974
 6669W        W24873  11.212   6.638  15.105 -0.1886  0.1485  0.1563
 6670W        W24874   9.957   8.269  15.028 -0.0894 -0.1681 -0.1456
 6671W        W24875  17.812   5.088  13.996 -0.0549  0.1269  0.0927
 6672W        W24876   5.930  15.592  14.818 -0.1709  0.1316 -0.1947
 6673W        W24877   4.066   6.035  11.417  0.3248 -0.0349 -0.1169
 6674W        W24878   6.224  11.367  12.747  0.0239 -0.0457  0.0813
 6675W        W24879  12.001   3.232   2.373 -0.2220 -0.1005  0.2466
 6676W        W24880  11.266  11.306  11.150  0.2138 -0.0238 -0.1736
 6677W        W24881   9.567  10.700  13.412 -0.1298  0.3605 -0.1132
 6678W        W24882  13.231   9.480  13.018 -0.2986 -0.4265  0.1892
 6679W        W24883  12.677   3.033  15.382  0.0675 -0.2342  0.1261
 6680W        W24884  10.362   0.477  15.683 -0.0147  0.0376 -0.0999
 6681W        W24885  17.813   8.641   2.689 -0.1901  0.2605 -0.0562
 6682W        W24886  17.650   4.969   3.638  0.1028  0.0517  0.1183
 6683W        W24887  12.229   4.676   1.365 -0.2760  0.1477 -0.0892
 6684W        W24888  11.998  13.418   0.189 -0.1007 -0.2219  0.0453
 6685W        W24889   3.547   3.289   3.000  0.0648 -0.3281 -0.1879
 6686W        W24890   3.812  16.944   5.016 -0.1057 -0.0719  0.0618
 6687W        W24891  10.310   7.576   3.269  0.1724  0.0911 -0.1793
 6688W        W24892   0.281   9.166   0.899 -0.0149  0.0133 -0.0382
 6689W        W24893  11.094  10.335   4.338  0.2118  0.1359 -0.1388
 6690W        W24894   2.103   3.020  11.080 -0.0506  0.3137 -0.1307
 6691W        W24895   2.450  12.787  14.246 -0.3467  0.0571  0.2427
 6692W        W24896  16.732   7.154  14.246  0.2684 -0.0470 -0.1029
 6693W        W24897  12.361   7.558   4.511  0.2327 -0.1095  0.2047
 6694W        W24898  13.211  15.408  14.613 -0.1696 -0.0909  0.0862
 6695W        W24899   0.495   5.773   4.102  0.4592  0.1319 -0.0594
 6696W        W24900   7.475   8.697  14.499  0.2928 -0.1231  0.3193
 6697W        W24901  16.681  13.466   0.534  0.1007  0.0505 -0.0514
 6698W        W24902  15.267   8.952   1.498  0.1132  0.0418 -0.1107
 6699W        W24903   4.670   0.389  14.191 -0.2702  0.2981 -0.0922
 6700W        W24904   9.122   5.185  13.298 -0.1355  0.2987 -0.0960
 6701W        W24905  11.494  12.929   2.785  0.2716  0.1608  0.2589
 6702W        W24906  18.319   8.547  14.067 -0.0392  0.1063  0.1951
 6703W        W24907  17.356  16.748  12.216  0.0365  0.0668  0.4160
 6704W        W24908  17.522   2.984  13.267 -0.1694  0.0147  0.0414
 6705W        W24909  10.993  14.271  10.372 -0.1430  0.2447 -0.0475
 6706W        W24910  18.205  10.565   0.383 -0.0648 -0.2856 -0.1735
 6707W        W24911  15.459  10.030   0.620 -0.3506 -0.2435  0.0211
 6708W        W24912  16.789   5.354  13.363 -0.1150 -0.1007 -0.0801
 6709W        W24913   7.848  16.747  13.033  0.1037  0.2268  0.0362
 6710W        W24914  17.679   1.423   1.576 -0.0085  0.0663  0.1548
 6711W        W24915   1.299   8.280   3.032 -0.3009 -0.0970  0.1286
 6712W        W24916  16.592  11.374   1.742 -0.0496  0.0428 -0.2162
 6713W        W24917  15.249   3.475   3.779  0.0456  0.0210  0.2140
 6714W        W24918   6.877  17.970   1.032  0.3571 -0.0988  0.2046
 6715W        W24919   8.799   2.935   4.244  0.0541  0.0248  0.1770
 6716W        W24920  17.412   2.620   2.058 -0.0953  0.1919 -0.2320
 6717W        W24921  12.335   1.404  11.527 -0.0260 -0.1162  0.0438
 6718W        W24922   7.255  15.651  12.789 -0.1759  0.4567 -0.1355
 6719W        W24923  10.191   8.117  14.517 -0.2301  0.0272  0.3215
 6720W        W24924   4.489   9.312   1.440  0.1730 -0.2038 -0.0007
 6721W        W24925  11.821  13.502  15.297 -0.1674 -0.1428 -0.0040
 6722W        W24926   6.682   8.695  12.204  0.0265 -0.0056  0.1199
 6723W        W24927   2.676   9.766   0.132 -0.2414  0.1204 -0.0611
 6724W        W24928  11.486  12.068   0.040  0.2225  0.1822  0.2536
 6725W        W24929  16.388   8.201  15.504  0.3769 -0.1092 -0.0054
 6726W        W24930   5.526  13.864  15.485  0.1088 -0.1235 -0.1652
 6727W        W24931   9.623  17.865   0.207  0.1817 -0.1598 -0.0656
 6728W        W24932   8.146   0.906  13.162 -0.0567  0.1681 -0.0147
 6729W        W24933  16.006   2.777  15.182 -0.2048 -0.0355 -0.0619
 6730W        W24934   2.817  16.234   4.443  0.1593  0.2578  0.2038
 6731W        W24935  17.303   4.640  12.390  0.0316 -0.0458  0.0013
 6732W        W24936   3.760   6.447  15.189 -0.0027 -0.3103 -0.1725
 6733W        W24937   5.019   5.963  11.429 -0.1337  0.0991 -0.0976
 6734W        W24938  16.181   2.329  13.562  0.1643 -0.1216  0.2158
 6735W        W24939  11.851   2.217   3.723 -0.1138  0.1156 -0.0112
 6736W        W24940  13.328   2.811   1.319  0.0626 -0.0332  0.1673
 6737W        W24941   8.125   8.792  15.014 -0.1628  0.0755 -0.2360
 6738W        W24942   4.365   3.928  12.359 -0.0062  0.1233  0.0771
 6739W        W24943  11.390  17.032  13.021  0.1808 -0.0449  0.2186
 6740W        W24944  12.034   4.295  11.794 -0.1101  0.0219 -0.1884
 6741W        W24945   0.848   2.729  14.797 -0.3859  0.0215 -0.0048
 6742W        W24946   6.386   9.194   3.330 -0.2103 -0.2594 -0.2285
 6743W        W24947   8.635   2.668  13.743  0.2559 -0.3972  0.0337
 6744W        W24948  11.743  12.739  11.856  0.2268  0.2394 -0.3280
 6745W        W24949  10.498  13.426  13.766  0.5574  0.1261  0.1562
 6746W        W24950  15.971   5.559  13.842  0.0342  0.1181  0.0964
 6747W        W24951  13.801  16.319   3.378  0.1398 -0.1181 -0.2108
 6748W        W24952   4.055  14.971  15.326  0.0517 -0.0750  0.0497
 6749W        W24953   1.718  11.317   3.943  0.3094  0.1846 -0.2196
 6750W        W24954  11.572   5.325  13.290  0.0733 -0.1906 -0.1574
 6751W        W24955  15.641   3.238   4.180 -0.1698  0.1321 -0.3633
 6752W        W24956  18.144  16.138  13.520  0.0497 -0.0781  0.1356
 6753W        W24957   1.640   4.243   4.474 -0.1470 -0.2055 -0.0265
 6754W        W24958   4.863  10.353  13.070  0.3616  0.2587  0.1864
 6755W        W24959   4.580   6.420  12.198  0.2230 -0.0493  0.0407
 6756W        W24960   3.834   5.913  12.255  0.0753  0.2079 -0.0812
 6757W        W24961   5.413   2.077  13.196  0.3963 -0.1141  0.2372
 6758W        W24962   6.114   9.098   4.295 -0.1843 -0.0819  0.2460
 6759W        W24963   6.419   0.102   0.703 -0.4326 -0.2765 -0.0705
 6760W        W24964  14.462   0.010   0.611 -0.1796 -0.1466 -0.1529
 6761W        W24965   7.228  12.769   1.762 -0.0754  0.0860  0.2740
 6762W        W24966  17.053   1.278  11.467  0.4184 -0.0809 -0.0978
 6763W        W24967  16.867  15.539   3.437  0.1652 -0.0611 -0.1808
 6764W        W24968  14.383  17.754  14.595  0.0656 -0.3266 -0.0051
 6765W        W24969   9.555   0.752   4.603 -0.0704  0.1441 -0.1916
 6766W        W24970  18.378  17.854  11.485  0.2168  0.2992 -0.0872
 6767W        W24971  17.401   4.289   2.660  0.0463  0.0254 -0.1069
 6768W        W24972  14.295   7.379   3.324  0.3182  0.1816  0.0939
 6769W        W24973  13.329  10.804  12.603  0.1260 -0.0013 -0.0698
 6770W        W24974  12.570   2.800  11.466 -0.0886  0.0383 -0.1314
 6771W        W24975  15.380   0.929   2.187 -0.0767 -0.0964 -0.1960
 6772W        W24976   2.148   0.410   0.915 -0.2805 -0.1152 -0.2890
 6773W        W24977   3.537   3.282   4.566 -0.2257  0.3402 -0.1240
 6774W        W24978   9.241   6.598   5.176 -0.2004 -0.2040  0.2364
 6775W        W24979   7.944  14.050  15.443  0.1682 -0.1278 -0.0020
 6776W        W24980   3.181  18.218   3.165 -0.1012 -0.0336  0.0162
 6777W        W24981  17.314   1.361  11.907  0.1175 -0.0878  0.1946
 6778W        W24982  14.389   4.792   0.221  0.0076  0.2415 -0.1114
 6779W        W24983   9.505  12.208  11.603  0.0443 -0.0972  0.2021
 6780W        W24984  10.059  13.499   5.679  0.0820  0.2312  0.0036
 6781W        W24985   2.452  13.298   4.492 -0.0412  0.2319  0.0918
 6782W        W24986  12.709   1.204  12.773 -0.0107 -0.3727  0.2016
 6783W        W24987   1.238   0.505   1.050  0.0916  0.2558 -0.3443
 6784W        W24988   5.364   0.825   4.711  0.0534 -0.1493  0.1873
 6785W        W24989   4.273  11.547   2.745  0.1293  0.1560  0.0353
 6786W        W24990   1.409   3.982   1.223  0.0956 -0.2495 -0.1343
 6787W        W24991  18.319  15.905   1.049  0.0178  0.0962  0.0112
 6788W        W24992   4.868   7.504   0.082 -0.2419 -0.2678 -0.0222
 6789W        W24993   3.685   1.488   1.171  0.0606 -0.2304  0.2569
 6790W        W24994  12.416  17.728  13.642  0.1377 -0.2817 -0.0304
 6791W        W24995   8.217   9.227  14.784  0.0788 -0.0400  0.4688
 6792W        W24996   7.625   5.126  11.438 -0.0984 -0.0938  0.3210
 6793W        W24997   8.660   0.168   4.652 -0.2992  0.1219  0.1169
 6794W        W24998  13.366   4.418  12.160  0.1252 -0.0989 -0.4019
 6795W        W24999   0.540  12.668  14.984  0.2498  0.0596  0.1084
 6796W        W25000  12.648  14.465   1.426 -0.1117 -0.2516 -0.0005
 6797W        W25001   6.683   3.394  14.524  0.0017 -0.0757  0.1869
 6798W        W25002   2.423   6.936  11.998  0.1331 -0.0838 -0.2297
 6799W        W25003   5.814  10.154  13.386 -0.0166  0.0351  0.2057
 6800W        W25004  12.010   2.417   2.916  0.0916 -0.1416  0.4396
 6801W        W25005   1.345   1.821   0.184  0.0908  0.0097  0.0981
 6802W        W25006   1.303   6.922   2.365  0.2694  0.1791  0.0828
 6803W        W25007   9.893   2.376   0.712 -0.1909 -0.0801  0.1688
 6804W        W25008  13.579   9.431   1.377 -0.3585 -0.2199 -0.1068
 6805W        W25009   3.633   1.097   1.955  0.0644  0.1835  0.2892
 6806W        W25010  11.235   7.532  13.545 -0.2696  0.2210 -0.1466
 6807W        W25011   2.109   6.334   4.407 -0.0940  0.0808  0.1911
 6808W        W25012   1.393   8.442   3.891  0.1890  0.2313  0.2964
 6809W        W25013  15.015  16.018   1.070  0.2407 -0.2858  0.0205
 6810W        W25014   7.088   8.686  11.937 -0.0279  0.3426  0.0365
 6811W        W25015   0.205   3.331  13.778 -0.1331 -0.3671 -0.2379
 6812W        W25016   7.967   2.073   3.584  0.1715 -0.0406  0.0553
 6813W        W25017   7.764   5.170  13.953 -0.1592  0.2680  0.3787
 6814W        W25018   4.354  17.361   2.241 -0.0535  0.1148 -0.0703
 6815W        W25019   6.061   0.280  15.060  0.5231 -0.0821 -0.0075
 6816W        W25020   2.792  10.077  12.302  0.0216 -0.0344  0.1888
 6817W        W25021   2.508   6.488  12.226 -0.1362  0.2458  0.0861
 6818W        W25022  16.146   1.997   0.637 -0.0777 -0.0974  0.2425
 6819W        W25023  16.567   8.289   1.028 -0.2839 -0.1485  0.0395
 6820W        W25024  15.540  14.979  14.714 -0.2343 -0.0906  0.2889
 6821W        W25025   7.199  12.629   2.715 -0.0545  0.1100  0.0912
 6822W        W25026  14.364   1.366   4.462 -0.0135  0.4663 -0.0674
 6823W        W25027   0.428  11.247  14.036 -0.1196 -0.0971  0.2751
 6824W        W25028  17.851   9.964   0.355 -0.0183 -0.3273  0.1085
 6825W        W25029   8.591   1.958   2.789 -0.0967 -0.0746  0.0931
 6826W        W25030  15.267  12.891  12.261  0.0096 -0.2094 -0.1633
 6827W        W25031   5.957   0.105  14.493 -0.0491 -0.4771 -0.4204
 6828W        W25032   5.009  16.721   0.018 -0.2784  0.5840  0.0316
 6829W        W25033   5.279  17.609   0.008  0.0382 -0.1682  0.2537
 6830W        W25034  16.232  14.718   0.473  0.0263 -0.0699  0.0170
 6831W        W25035  17.280   2.423   2.497  0.0530 -0.3989 -0.1158
 6832W        W25036   7.990   9.867  13.159  0.2466  0.1571 -0.2129
 6833W        W25037   3.114   7.484  13.926  0.2132 -0.3937 -0.0653
 6834W        W25038  12.759   2.863   1.337 -0.0738  0.1453 -0.3352
 6835W        W25039   2.152  17.409   5.652 -0.2966  0.0258  0.1061
 6836W        W25040   4.419   5.920  12.250  0.1094 -0.0112 -0.2898
 6837W        W25041   5.171  17.641  14.685 -0.1118 -0.3230  0.2090
 6838W        W25042  14.776   6.152  12.832 -0.3053 -0.0948  0.4109
 6839W        W25043  12.233  15.194  10.534  0.2315 -0.1864  0.4306
 6840W        W25044   3.735  16.891  11.138 -0.4011  0.0615 -0.4752
 6841W        W25045  14.694  17.867   4.583  0.0722 -0.2288  0.3554
 6842W        W25046   4.472   9.222  15.289 -0.3790  0.0051 -0.0118
 6843W        W25047   2.592  11.650  15.270 -0.2215 -0.2431  0.2620
 6844W        W25048  13.019  15.102   1.754  0.1948  0.3601  0.0029
 6845W        W25049   9.520  11.963   4.597  0.0795 -0.1042  0.0914
 6846W        W25050   0.679   7.305  10.871 -0.2621  0.2891  0.0148
 6847W        W25051  18.116  10.414   2.214  0.0851 -0.3125  0.0001
 6848W        W25052   6.297  15.047   3.251  0.3046  0.2375  0.4009
 6849W        W25053   3.690   1.200  14.094  0.0320 -0.2057  0.2335
 6850W        W25054  14.428  16.348   4.855  0.0085  0.1445  0.2424
 6851W        W25055  17.697  16.696  13.612  0.1262  0.2115 -0.2203
 6852W        W25056  11.473   4.045  13.648  0.0866 -0.3945  0.0344
 6853W        W25057   9.846  15.127  12.461  0.2843  0.0013 -0.1046
 6854W        W25058   6.672  14.487   2.448 -0.2435  0.0123 -0.0940
 6855W        W25059  11.793   6.892  10.990 -0.3023 -0.5529 -0.1718
 6856W        W25060   3.863   0.754  14.084  0.0895 -0.0824  0.2481
 6857W        W25061   3.718  14.356  11.410  0.0946  0.2090 -0.0009
 6858W        W25062   2.344  10.851   2.905 -0.0566  0.1748  0.1131
 6859W        W25063  13.845   8.121   2.849  0.0972 -0.1604  0.0140
 6860W        W25064  13.730  10.628  14.520 -0.0803  0.0726  0.1894
 6861W        W25065   2.319  15.359  13.977 -0.0475  0.1192  0.4027
 6862W        W25066  11.714   4.734  11.662 -0.4408  0.0025 -0.4321
 6863W        W25067  14.400  17.280  14.922  0.0278 -0.1334 -0.2474
 6864W        W25068   1.819   9.470   1.100 -0.1881  0.0727  0.0487
 6865W        W25069  12.440   5.200  15.466 -0.1021 -0.0315  0.2306
 6866W        W25070   6.007  15.884  15.676 -0.2768  0.0051 -0.0715
 6867W        W25071   6.721  11.659  11.297 -0.0850  0.0292  0.5458
 6868W        W25072   1.704   1.796   2.136  0.3512  0.1724 -0.4027
 6869W        W25073   6.187   2.861   4.505  0.1376  0.4324  0.4924
 6870W        W25074   5.439  13.404  15.376  0.3910  0.0698 -0.1651
 6871W        W25075   3.498  11.274   3.395 -0.1461 -0.1788 -0.2209
 6872W        W25076   1.370  16.834   0.544  0.0758  0.1262 -0.1471
 6873W        W25077   2.630   6.589   2.359 -0.0024  0.1437  0.3102
 6874W        W25078   0.160   0.804   0.667 -0.0983 -0.1517  0.1274
 6875W        W25079   0.858   0.275  13.315  0.0117  0.0234  0.1953
 6876W        W25080  10.551  17.598  12.034  0.0421 -0.0914  0.0129
 6877W        W25081   8.459  13.871   1.277 -0.0520  0.3123  0.0178
 6878W        W25082   8.998   2.883  14.043  0.2337  0.0129 -0.2994
 6879W        W25083  13.381  15.589   3.200  0.1023 -0.1239 -0.0023
 6880W        W25084   9.325   0.385  14.429  0.1754 -0.1199 -0.0414
 6881W        W25085  10.174   9.370   3.949 -0.0381 -0.0492 -0.1656
 6882W        W25086  15.800   2.599  10.822  0.3515  0.1927 -0.2000
 6883W        W25087  13.013  11.283   4.146 -0.1337  0.2408 -0.1742
 6884W        W25088  10.956  11.030  10.750  0.0568 -0.1914  0.1896
 6885W        W25089   0.131   9.787  14.264  0.3439  0.1175 -0.2097
 6886W        W25090  10.056   4.202  14.230 -0.3618 -0.2883 -0.1967
 6887W        W25091  14.885   2.156   4.146 -0.3825 -0.4021 -0.2103
 6888W        W25092  15.523  11.761   5.481 -0.0830  0.2296 -0.0795
 6889W        W25093   8.663   2.844   3.011  0.0900 -0.1149 -0.3046
 6890W        W25094  17.098  10.420  14.399 -0.1594  0.1305  0.2417
 6891W        W25095   8.151  11.065  14.182 -0.0057  0.1540 -0.2483
 6892W        W25096  12.974   5.607  15.616  0.1504 -0.1032  0.0017
 6893W        W25097  10.312  16.428   4.079  0.1204 -0.1957 -0.3069
 6894W        W25098   7.776  12.422   0.497 -0.3002  0.2510 -0.2226
 6895W        W25099  15.504   6.223  12.132  0.1197 -0.0879 -0.1270
 6896W        W25100   8.084   7.292   3.424  0.0756  0.1769  0.0478
 6897W        W25101   4.695  11.740  13.284 -0.3198  0.2061  0.1763
 6898W        W25102   9.778   9.461   1.221 -0.0241 -0.0399 -0.1236
 6899W        W25103   5.249  12.478   1.385  0.1002  0.1361 -0.2061
 6900W        W25104   9.571  14.253   4.184  0.1601  0.1842  0.3021
 6901W        W25105   8.337  17.585  12.818  0.0498 -0.0909 -0.0014
 6902W        W25106   6.063  15.859   3.464  0.2046 -0.0025  0.0678
 6903W        W25107  17.780   4.245   3.558  0.2019  0.0100  0.1494
 6904W        W25108   2.062  12.062   3.475 -0.2043  0.2642  0.2506
 6905W        W25109  16.460   9.753  13.358 -0.0973 -0.0716  0.1936
 6906W        W25110   9.144  14.317   1.876 -0.2711 -0.1343  0.2931
 6907W        W25111   9.569  16.242  12.178  0.0107 -0.0238  0.0730
 6908W        W25112   9.450   3.252  10.702 -0.3958  0.4782 -0.0660
 6909W        W25113   1.929  17.946  15.331 -0.2873 -0.1789 -0.2388
 6910W        W25114   2.263  17.383  11.061  0.0472  0.0914 -0.2353
 6911W        W25115  17.538   0.716  14.817 -0.2452 -0.0552 -0.0918
 6912W        W25116  16.522   2.308   0.013 -0.2808 -0.1434 -0.1272
 6913W        W25117   2.508   3.981  12.842 -0.1089 -0.0092 -0.1161
 6914W        W25118  13.583   4.410  10.774 -0.0940 -0.0687  0.0912
 6915W        W25119   8.411  16.488  11.818 -0.3940  0.0307 -0.2745
 6916W        W25120  14.077  14.345  15.570 -0.1887 -0.2475 -0.1878
 6917W        W25121  10.964   4.363  14.127  0.0511 -0.0391  0.2360
 6918W        W25122  10.166  15.011  11.700 -0.1196  0.1844 -0.1623
 6919W        W25123  13.527   2.358   3.113  0.2207  0.1753 -0.1593
 6920W        W25124   4.134  11.660  13.147  0.1810  0.0300 -0.1515
 6921W        W25125   9.759   4.468   4.527  0.2260 -0.1853 -0.0453
 6922W        W25126   3.486   5.995   0.867 -0.0384  0.0846  0.1794
 6923W        W25127   5.810   6.532  12.113 -0.1075  0.1547 -0.1124
 6924W        W25128  12.849   7.874   1.212  0.2489 -0.2537  0.0261
 6925W        W25129   3.718   0.297   1.622  0.0013  0.2569  0.5333
 6926W        W25130   1.326  15.642  13.696 -0.1450  0.0899 -0.0146
 6927W        W25131   9.779  17.008  11.981  0.1322 -0.0342 -0.2882
 6928W        W25132   5.635   2.556   0.792  0.1418 -0.1090  0.1390
 6929W        W25133   7.502   2.577   5.418 -0.2221  0.0007  0.2399
 6930W        W25134  10.207  12.007   3.548  0.2417 -0.0670  0.0754
 6931W        W25135   1.615  15.827   3.726 -0.0715  0.0757  0.0459
 6932W        W25136  17.908  14.094  11.236  0.0505  0.0050 -0.0914
 6933W        W25137  14.143   5.463  12.107 -0.1562  0.2690 -0.1528
 6934W        W25138  13.051   7.945   3.096  0.2123  0.1462 -0.0298
 6935W        W25139   7.657   0.228   3.144 -0.0517 -0.0326 -0.3846
 6936W        W25140  15.064   9.273  10.611  0.1443 -0.0412  0.0537
 6937W        W25141   3.537   3.798   4.453 -0.1633 -0.2551  0.3501
 6938W        W25142   6.391  10.610  12.513 -0.1681  0.0130  0.0054
 6939W        W25143  17.187   5.963  15.304  0.2198  0.2893 -0.0397
 6940W        W25144  14.076   6.031  12.307 -0.0320 -0.0161  0.3490
 6941W        W25145   2.115   1.949  12.867 -0.3568  0.1316  0.1714
 6942W        W25146   5.261  11.741  14.552  0.1271  0.1183  0.0738
 6943W        W25147   9.175  13.817   2.811  0.1114 -0.1720 -0.3131
 6944W        W25148   4.116   0.829   3.709 -0.5422 -0.1657 -0.2365
 6945W        W25149   2.545   2.286   1.770  0.2598  0.1067 -0.0951
 6946W        W25150   3.814  10.648   1.570 -0.1448 -0.0740  0.4337
 6947W        W25151   1.325  17.049  13.850  0.0774  0.3392  0.3645
 6948W        W25152  13.247   8.812   3.588  0.3331 -0.2073  0.1468
 6949W        W25153  12.729   3.559   4.093  0.3395  0.0676 -0.2500
 6950W        W25154  13.513  14.060   2.185 -0.1048  0.0636  0.4572
 6951W        W25155   0.961   6.512  11.101 -0.0788 -0.3068  0.0131
 6952W        W25156   1.397  15.319   0.744 -0.1889  0.2376 -0.2203
 6953W        W25157   0.866  11.615  12.927  0.0319 -0.2511  0.0398
 6954W        W25158   0.257   2.131   2.290 -0.0818  0.1836  0.3260
 6955W        W25159   8.270   1.772  15.319 -0.1527 -0.2903  0.1350
 6956W        W25160  16.578   4.960  13.750 -0.1710 -0.0160 -0.1245
 6957W        W25161  14.753  13.353  12.867  0.1636  0.1654 -0.0369
 6958W        W25162   9.798   7.250   3.408 -0.1415 -0.1472 -0.0002
 6959W        W25163   2.762  14.746  11.152 -0.2066 -0.3142 -0.1728
 6960W        W25164  12.634   9.412   4.188  0.0187 -0.0286  0.0639
 6961W        W25165  11.163  12.033  14.514 -0.0973  0.2332  0.1743
 6962W        W25166   2.280   0.241   3.537 -0.0425 -0.0511  0.0997
 6963W        W25167  10.137  10.185   4.194  0.1110  0.0857 -0.1653
 6964W        W25168   5.378  15.536   4.357 -0.2115 -0.1576 -0.0887
 6965W        W25169  17.474  15.888   3.410 -0.2767 -0.2863 -0.0282
 6966W        W25170  11.261   1.805   4.842 -0.2342 -0.0704 -0.2113
 6967W        W25171  12.966  13.329  14.856  0.0442  0.1330  0.4236
 6968W        W25172   6.537  17.845  15.082 -0.2644 -0.2460  0.1843
 6969W        W25173   1.871   2.001   3.830  0.1121 -0.1074 -0.0683
 6970W        W25174   6.625   8.207  12.378  0.0823  0.2349  0.0379
 6971W        W25175  15.453   0.620  14.195 -0.0317 -0.0641 -0.0769
 6972W        W25176  17.525  12.654  14.439 -0.0935 -0.3086 -0.0963
 6973W        W25177   8.890   3.447   2.707  0.1766  0.0486  0.1081
 6974W        W25178   7.536  17.304   1.975 -0.1646 -0.0250 -0.0871
 6975W        W25179   4.578   1.612  14.012  0.2036 -0.2956 -0.0911
 6976W        W25180  11.870   3.707   3.867 -0.0782  0.2356 -0.3106
 6977W        W25181   2.477  15.557  15.675 -0.1391  0.2647 -0.0828
 6978W        W25182   2.444   9.500   1.057 -0.1618 -0.0954 -0.0430
 6979W        W25183  16.055  12.004  10.953 -0.2839 -0.2088 -0.0363
 6980W        W25184  16.527  16.315   1.767 -0.1254 -0.3629  0.1891
 6981W        W25185  14.784  17.673   1.637 -0.0694 -0.0443 -0.1334
 6982W        W25186   8.334  10.383   0.495 -0.0176  0.0145 -0.0107
 6983W        W25187   2.747   9.256  14.005 -0.0942  0.3520 -0.1466
 6984W        W25188  17.129   2.230  10.883  0.1382 -0.0102  0.1170
 6985W        W25189   6.128  11.130   2.145 -0.1308  0.0542 -0.2411
 6986W        W25190  12.936  18.056   2.482  0.0087 -0.2895  0.3811
 6987W        W25191  13.488  11.942  12.410 -0.2631 -0.1284 -0.0720
 6988W        W25192   1.610  12.371   4.208 -0.0279  0.0179  0.0627
 6989W        W25193  14.643  15.485  14.665  0.0387  0.0812 -0.0284
 6990W        W25194   6.483  18.226   4.450 -0.0046 -0.0147 -0.0761
 6991W        W25195   5.370  10.389  11.761  0.1328 -0.1863 -0.0951
 6992W        W25196  17.571   3.427  15.680  0.2638  0.0413 -0.2085
 6993W        W25197   2.903   1.618   2.419 -0.0158  0.2287  0.1610
 6994W        W25198  16.980  15.668   4.428 -0.0304 -0.1131  0.1071
 6995W        W25199  17.992   0.385   3.406 -0.1755 -0.0801  0.0462
 6996W        W25200  18.067   2.045  12.658  0.0138  0.0795 -0.2246
 6997W        W25201   0.582  13.547   2.421  0.0419  0.0027  0.0218
 6998W        W25202   9.228   0.658   0.077 -0.1968  0.2669 -0.0199
 6999W        W25203   0.197   4.900  11.909 -0.0327 -0.0279 -0.1001
 7000W        W25204   7.834   6.494   3.737  0.3111  0.0918 -0.2173
 7001W        W25205   6.987   8.445  10.688  0.0228  0.0752 -0.2415
 7002W        W25206  12.215   6.029   0.589  0.0987  0.1863  0.0171
 7003W        W25207   2.958  11.304   0.564 -0.3485 -0.0573 -0.2238
 7004W        W25208   2.685  10.991   0.818 -0.3266 -0.0808  0.1878
 7005W        W25209  13.391   6.496   4.841  0.0403  0.2685  0.0345
 7006W        W25210  13.786   5.545  11.365 -0.2638 -0.0719  0.3537
 7007W        W25211   8.060   9.626   1.677 -0.3527  0.1228 -0.0877
 7008W        W25212  10.580  17.695  12.507  0.0913 -0.0950 -0.3056
 7009W        W25213  14.782  16.821  11.785  0.3334 -0.1559  0.2379
 7010W        W25214   2.943  16.179  13.943  0.1468  0.0669 -0.1257
 7011W        W25215  15.091   6.433  12.503 -0.0417  0.0867  0.0338
 7012W        W25216   5.954   9.489   2.037 -0.0281  0.0486  0.2706
 7013W        W25217  10.385   5.619   2.564  0.0588 -0.0092  0.0498
 7014W        W25218   8.980   7.209   0.533  0.3910  0.2292 -0.2592
 7015W        W25219   8.186   5.071  11.820  0.0457  0.0066 -0.0197
 7016W        W25220   2.920   0.372   1.380 -0.0638 -0.2108  0.1713
 7017W        W25221   1.625   1.907  12.537 -0.1059 -0.1114  0.0270
 7018W        W25222   4.129  13.117  11.519 -0.1969  0.0046  0.0498
 7019W        W25223  11.552   5.581  13.730  0.0741 -0.2084  0.3555
 7020W        W25224  10.368  14.293  14.431 -0.1985 -0.0342 -0.2644
 7021W        W25225  13.824   2.433  11.822  0.1836  0.3016  0.2036
 7022W        W25226   2.644  10.250   2.141  0.0790  0.1351 -0.0296
 7023W        W25227   8.333   4.236  14.892  0.0451 -0.1699  0.2461
 7024W        W25228   7.621   7.601   0.663 -0.1852  0.0064 -0.0118
 7025W        W25229   8.119   8.145   2.401 -0.0482  0.0079  0.0575
 7026W        W25230  11.994  14.535   4.173  0.3941  0.3673 -0.0183
 7027W        W25231  12.349  16.560  13.482  0.1304 -0.3730 -0.1834
 7028W        W25232  14.684  14.204  12.877  0.0001  0.0444  0.1401
 7029W        W25233  15.344   2.537  11.721  0.2294 -0.1429  0.0122
 7030W        W25234  15.153  12.778   3.145 -0.2631  0.1169  0.1974
 7031W        W25235  14.991   6.734  13.517 -0.3483  0.0957  0.4111
 7032W        W25236  17.060   5.439  13.917 -0.1446 -0.2375  0.1725
 7033W        W25237   5.320   6.818  10.376 -0.3175  0.1814  0.0299
 7034W        W25238   6.661  12.968  12.607 -0.0280 -0.2844 -0.1046
 7035W        W25239   0.484  12.607  13.057  0.1340  0.1994  0.0024
 7036W        W25240  14.761   6.433   1.562  0.0433 -0.0296 -0.1340
 7037W        W25241  17.358   8.730  11.882 -0.0952  0.2115  0.0126
 7038W        W25242  16.745  13.294  14.689  0.0642  0.1797 -0.4235
 7039W        W25243   0.408  15.974  13.414 -0.0744 -0.1147  0.1699
 7040W        W25244   8.032  17.369   3.253 -0.2610 -0.1147 -0.2192
 7041W        W25245  10.286  15.203  13.229  0.1896 -0.1093 -0.2272
 7042W        W25246  12.496   9.266   1.150 -0.0732  0.0505  0.2995
 7043W        W25247  17.933  13.448   1.180 -0.1124  0.0223  0.0690
 7044W        W25248  11.735  11.809   3.354  0.1386  0.0202 -0.1401
 7045W        W25249   3.989   2.628  11.160  0.2322  0.0482  0.1840
 7046W        W25250   6.605  13.894  10.973  0.2622  0.0390 -0.1441
 7047W        W25251  14.131   9.063  12.185  0.2094  0.0454 -0.4346
 7048W        W25252  13.477   0.833  10.655  0.1760 -0.0183  0.0482
 7049W        W25253   1.291   2.560  13.225  0.2010 -0.2789  0.2340
 7050W        W25254   7.925  16.043  13.627 -0.0520  0.1034  0.1929
 7051W        W25255   0.990   8.086  13.242 -0.2684 -0.0523 -0.0591
 7052W        W25256   8.245   2.683  14.468  0.1355  0.0734 -0.2212
 7053W        W25257   2.687   2.046  13.952  0.1947 -0.0892  0.0442
 7054W        W25258  13.006  10.077   3.885 -0.1694  0.1588 -0.0406
 7055W        W25259   3.096  15.999   3.514  0.2617 -0.2318 -0.2089
 7056W        W25260   5.029   9.032  13.217 -0.0855  0.2354 -0.2081
 7057W        W25261  13.887  15.657   4.727 -0.2625  0.2870 -0.0842
 7058W        W25262   6.506  15.720  11.277  0.0206  0.0235  0.0353
 7059W        W25263  16.721   0.858  11.342  0.0410  0.3273 -0.2946
 7060W        W25264  13.333  11.846   4.978 -0.1551 -0.1246  0.0531
 7061W        W25265  17.715  16.880  11.698  0.3192  0.2429 -0.1568
 7062W        W25266   5.877  17.726  11.358  0.0239  0.0816  0.2730
 7063W        W25267  15.288  17.810  13.314  0.1586  0.1021 -0.0139
 7064W        W25268   1.420   8.216   0.061  0.2219 -0.1635 -0.1860
 7065W        W25269   1.581   9.525   4.942  0.0527  0.2093  0.1810
 7066W        W25270   8.150  12.116   4.191 -0.1245 -0.1369 -0.0958
 7067W        W25271  10.871  12.869  15.339 -0.2809 -0.1250 -0.0675
 7068W        W25272  14.147   5.678   2.735 -0.2524 -0.1261 -0.1814
 7069W        W25273   9.016  12.335   2.486 -0.0125  0.2279 -0.2219
 7070W        W25274   6.523   0.134   2.659  0.1064 -0.0285  0.0041
 7071W        W25275  14.248   1.886   3.432  0.0682 -0.2882  0.0453
 7072W        W25276  12.550   7.727  12.354  0.1352 -0.2003 -0.0777
 7073W        W25277  13.032  18.078   0.145  0.0636 -0.0932 -0.0899
 7074W        W25278  16.551  11.533  12.418  0.3796  0.0555  0.4965
 7075W        W25279  15.431   3.583   2.915 -0.0956 -0.1883 -0.3561
 7076W        W25280  14.973  15.183  14.417  0.1204 -0.1420  0.0270
 7077W        W25281   7.261  15.151  12.691 -0.0355 -0.0988 -0.0691
 7078W        W25282   1.392  14.733   2.205  0.1122  0.0023 -0.1096
 7079W        W25283  10.651  11.999   0.218  0.1432  0.1516  0.0490
 7080W        W25284  12.480  12.064   2.950  0.0925  0.1449 -0.4226
 7081W        W25285  17.906   6.254   1.372  0.1434  0.1240 -0.0086
 7082W        W25286  16.397  13.992  13.632  0.2130 -0.0238 -0.0106
 7083W        W25287  10.835   6.533   3.853 -0.2000  0.2503  0.2843
 7084W        W25288   8.998   9.507   3.955  0.1993 -0.2269  0.0089
 7085W        W25289   5.717  13.061   2.008 -0.0414 -0.2064 -0.2722
 7086W        W25290   3.411   9.070  12.435  0.1737 -0.0672 -0.0909
 7087W        W25291  17.976  11.318  11.859 -0.1377 -0.0809  0.1067
 7088W        W25292   5.519   1.586  13.029  0.0741 -0.1168 -0.1896
 7089W        W25293   9.560   4.423  11.736 -0.0646 -0.0081  0.1257
 7090W        W25294  14.919  10.854   1.610  0.0203  0.2151  0.2021
 7091W        W25295  17.615   8.061  14.329  0.1188  0.1162 -0.1034
 7092W        W25296  14.495   5.441   1.976  0.1482 -0.0960  0.1556
 7093W        W25297  11.884  15.380   3.845  0.1210  0.4789  0.0891
 7094W        W25298  10.704   2.606  14.432  0.0750 -0.1647  0.1916
 7095W        W25299  15.017   4.318  11.496 -0.1550  0.3740 -0.2377
 7096W        W25300   0.444   6.215   3.365 -0.1250  0.0146 -0.1183
 7097W        W25301  13.993   1.979  11.685  0.1141 -0.1875 -0.1352
 7098W        W25302  14.340  14.039  13.205  0.2021  0.4121  0.1263
 7099W        W25303   3.343   8.327  15.676 -0.1693  0.0289 -0.0853
 7100W        W25304   6.597  10.506  13.001  0.1144 -0.0960 -0.2716
 7101W        W25305   6.890  15.938  12.562 -0.0257 -0.0254 -0.0323
 7102W        W25306   6.135   8.617   4.258 -0.2911 -0.2853 -0.0737
 7103W        W25307   7.411   7.100   2.945 -0.1540 -0.0493  0.1385
 7104W        W25308   4.509  16.188   1.603 -0.1106  0.2894 -0.2292
 7105W        W25309   3.351   2.034  15.043 -0.0082  0.2549 -0.1503
 7106W        W25310   7.091   8.465  12.480  0.2232 -0.1089 -0.1272
 7107W        W25311   9.940   2.304   1.723  0.0713 -0.0455  0.0447
 7108W        W25312   9.759   7.740   4.281  0.2973  0.3547  0.0574
 7109W        W25313   8.497  14.921   1.726 -0.2395 -0.1188 -0.1047
 7110W        W25314  11.864   7.157   1.480 -0.0932  0.1048  0.1028
 7111W        W25315  13.627   5.386  14.498  0.3782 -0.3716  0.2594
 7112W        W25316   3.858   6.716  11.938 -0.0772  0.0175 -0.0142
 7113W        W25317   2.525   6.527   4.534  0.0600 -0.0845 -0.2351
 7114W        W25318  12.809   6.471  15.529 -0.1713 -0.0473  0.0517
 7115W        W25319   4.848  15.366   0.453 -0.1332 -0.0406 -0.1761
 7116W        W25320  17.505   2.000   0.798 -0.0346 -0.1601 -0.0107
 7117W        W25321   7.226   5.180   2.785  0.2008 -0.0970  0.1094
 7118W        W25322  10.752   5.100   4.051  0.0601  0.2096  0.1906
 7119W        W25323  11.409   0.776   3.979 -0.2876 -0.2551  0.2700
 7120W        W25324  14.458   6.085  13.222 -0.1202  0.0869  0.1250
 7121W        W25325   5.376  12.653   0.306 -0.0737  0.1328 -0.0532
 7122W        W25326   8.685  14.753   0.935 -0.1284  0.0208  0.2399
 7123W        W25327  15.375  15.839   3.318 -0.0424 -0.0176 -0.0850
 7124W        W25328  17.440   5.088   3.232 -0.0674  0.0493  0.0185
 7125W        W25329   6.278  15.291  13.925 -0.2513 -0.1195 -0.1271
 7126W        W25330  16.612   7.024   0.269 -0.4673  0.0857 -0.1153
 7127W        W25331  12.866   2.036   1.907  0.0304  0.0796 -0.2512
 7128W        W25332   8.570  11.863  12.607 -0.1238  0.0662 -0.1130
 7129W        W25333  11.998  17.177   2.106  0.0141 -0.0012  0.1479
 7130W        W25334  15.697   1.536  13.504 -0.0049  0.3369  0.3822
 7131W        W25335  14.916   1.039   1.308  0.2657  0.0965 -0.0990
 7132W        W25336   6.032  13.371  11.906  0.0861  0.1724  0.1572
 7133W        W25337   3.222   9.074   4.023 -0.1361  0.3315  0.1221
 7134W        W25338   2.052   8.816   0.105 -0.2227 -0.1862  0.0315
 7135W        W25339   4.421   7.151   0.332  0.1695  0.2267  0.0137
 7136W        W25340   6.839  12.825  13.051 -0.3050 -0.0416  0.1889
 7137W        W25341   3.338   3.918  13.131  0.0918  0.0330  0.0084
 7138W        W25342   5.720  17.903   2.824  0.0436  0.1738  0.1384
 7139W        W25343  11.313   4.581  13.609 -0.1732  0.2332 -0.1784
 7140W        W25344  14.360  16.948   3.939 -0.4136  0.0666  0.2221
 7141W        W25345   6.169   0.206  13.515 -0.1785 -0.0218 -0.0939
 7142W        W25346  14.194  13.317   2.382  0.1693  0.0710  0.0936
 7143W        W25347  14.012  14.021   1.758 -0.1350 -0.0352 -0.1342
 7144W        W25348   1.863   3.398  12.776 -0.2994  0.1782 -0.0399
 7145W        W25349   0.527  14.413   3.461  0.0689  0.0682 -0.0470
 7146W        W25350   7.113   7.661  15.504 -0.0554  0.1345  0.0651
 7147W        W25351   6.625  13.415  10.838 -0.2412 -0.1212 -0.4213
 7148W        W25352   8.855   6.962  13.549 -0.0883 -0.0091  0.1196
 7149W        W25353  10.508  14.864   0.717  0.3119 -0.1167  0.1722
 7150W        W25354  15.504   0.846  10.676 -0.0709  0.2469  0.1075
 7151W        W25355   0.781   9.741   3.796  0.0522  0.2464 -0.1738
 7152W        W25356  10.431  18.293   3.831 -0.1910 -0.0413 -0.0354
 7153W        W25357   5.126   5.910   5.059  0.0327 -0.0684 -0.3015
 7154W        W25358  15.743  13.905  15.628  0.1491  0.3674  0.0228
 7155W        W25359  14.965   9.460   4.622  0.0906 -0.2045 -0.2824
 7156W        W25360   1.502  13.589  14.817  0.0393  0.2680  0.0698
 7157W        W25361   6.074   8.270  14.646 -0.0374  0.0450 -0.0091
 7158W        W25362   9.275  13.956  11.403 -0.0840 -0.0138  0.1935
 7159W        W25363   2.620  13.543  12.494 -0.2060 -0.1622 -0.1987
 7160W        W25364   4.670  16.814  15.456  0.3888 -0.1382  0.0233
 7161W        W25365  15.354  15.684  13.824  0.2234 -0.1606 -0.2059
 7162W        W25366  14.662   7.456   0.048 -0.0238  0.0688 -0.1344
 7163W        W25367   2.284  14.578   4.538  0.1231  0.1940 -0.0162
 7164W        W25368  15.944  17.211  12.968 -0.3470  0.0676  0.0235
 7165W        W25369   2.930  14.827   3.981  0.1784  0.3266 -0.0710
 7166W        W25370   9.905   1.942  12.121  0.0309 -0.0827  0.2058
 7167W        W25371  11.572   6.144   1.680 -0.2269 -0.2582  0.4376
 7168W        W25372   0.031   8.373  13.562  0.0177 -0.0643 -0.2927
 7169W        W25373  16.583   5.226  14.939 -0.3184 -0.1786 -0.0229
 7170W        W25374  10.389   6.259  15.547 -0.1167  0.0364 -0.0824
 7171W        W25375   7.715  10.739   1.018 -0.1827  0.1054  0.0782
 7172W        W25376   8.964  12.935  15.409 -0.2440  0.2300  0.1361
 7173W        W25377   2.578  12.982   1.943  0.0511 -0.0846 -0.1388
 7174W        W25378   4.435   8.674  15.398  0.0021 -0.3183  0.1613
 7175W        W25379   4.408   0.834  12.621 -0.1260  0.0217 -0.0960
 7176W        W25380   4.047   8.452   4.212 -0.3437 -0.0424 -0.0444
 7177W        W25381   2.544   7.321   0.646  0.4152 -0.0495  0.2413
 7178W        W25382   8.315   1.744  14.522 -0.1846  0.0210 -0.1884
 7179W        W25383   7.580  16.035   4.107  0.1836 -0.1249 -0.0814
 7180W        W25384   1.361   9.526  15.526  0.0566 -0.0209 -0.0445
 7181W        W25385   1.767   0.721  15.320 -0.2135 -0.0365  0.0757
 7182W        W25386  10.346  14.135   5.086 -0.1710  0.0905  0.0204
 7183W        W25387   4.630   5.837   2.000  0.0084  0.2073  0.0519
 7184W        W25388   4.699   3.781  12.712  0.1389  0.0550  0.3561
 7185W        W25389   1.131   7.352   1.913 -0.1675  0.5172 -0.4482
 7186W        W25390   8.556  11.403  13.717 -0.1644 -0.0088  0.2971
 7187W        W25391  17.592   4.339  15.196 -0.0269 -0.2511  0.0605
 7188W        W25392  14.079  12.678   1.784 -0.0796  0.0856  0.0083
 7189W        W25393   2.899  12.146   4.653 -0.0966  0.0019 -0.1472
 7190W        W25394   6.980   3.398   1.604 -0.2949  0.3481  0.0943
 7191W        W25395  12.754   3.392   2.755 -0.1592  0.0907  0.0520
 7192W        W25396   2.301  11.204   1.771 -0.0867  0.1598  0.2406
 7193W        W25397   9.497   9.799  15.243  0.2212  0.0971 -0.2072
 7194W        W25398   6.968   4.217   0.223 -0.2066 -0.0580 -0.1383
 7195W        W25399   2.231   7.261   1.956  0.1540 -0.1054 -0.0219
 7196W        W25400  10.407  17.273   2.887 -0.1690  0.0510 -0.1199
 7197W        W25401   2.369   3.625   2.967 -0.0273 -0.0280  0.2648
 7198W        W25402   9.968   9.933  11.485  0.0761  0.1257 -0.0092
 7199W        W25403   5.716  15.066  13.916 -0.1038  0.2102  0.2397
 7200W        W25404   1.981   6.045   0.075  0.0023  0.0286  0.3208
 7201W        W25405   2.899  13.738   2.215  0.1406  0.0981 -0.2654
 7202W        W25406  14.149  12.704  14.591 -0.1407  0.0881  0.1355
 7203W        W25407  14.968  16.552  14.434  0.1950  0.1224  0.1330
 7204W        W25408  11.483   7.428   0.676 -0.2559 -0.0502  0.0641
 7205W        W25409   4.699  11.224   1.167 -0.2817 -0.0446  0.1079
 7206W        W25410  12.288   1.242  10.415  0.0044  0.1208  0.0707
 7207W        W25411  15.651   7.913   0.919  0.0281  0.0682  0.0882
 7208W        W25412   6.946  13.582   3.496  0.1534 -0.0091  0.2565
 7209W        W25413  10.544  17.904  14.044 -0.2023  0.2409  0.1247
 7210W        W25414  15.107   6.341  13.907  0.1265  0.0524  0.1778
 7211W        W25415   4.160  17.375  14.751  0.3017 -0.0438  0.1336
 7212W        W25416   7.118  15.601  13.407 -0.0597 -0.1581  0.2047
 7213W        W25417  16.908   0.629   0.515 -0.0984  0.0663  0.1340
 7214W        W25418  15.937   9.761   1.336  0.0306 -0.3376 -0.0184
 7215W        W25419  12.079  10.202   0.876 -0.1651 -0.1676  0.0945
 7216W        W25420  17.256   7.172  14.682  0.1930  0.1089 -0.0292
 7217W        W25421   2.044  14.787  12.238  0.0747 -0.1676  0.2338
 7218W        W25422  12.361   0.520  13.978 -0.0831 -0.0929 -0.0542
 7219W        W25423   7.075   8.043   4.332  0.1615  0.0313  0.3369
 7220W        W25424  16.116   2.501  12.006  0.5745  0.0600 -0.0572
 7221W        W25425   7.148  16.406   1.929 -0.1232  0.3544 -0.1133
 7222W        W25426   0.209   6.180   4.245  0.0373 -0.0245 -0.2599
 7223W        W25427   9.396   0.289  12.875 -0.3501  0.0668 -0.0769
 7224W        W25428  14.964   7.851   4.189  0.1198 -0.3399 -0.0649
 7225W        W25429  12.991  17.351   3.160  0.0607 -0.0713  0.0464
 7226W        W25430   3.579   3.222  13.259 -0.0805 -0.1297 -0.1981
 7227W        W25431   2.467  11.012   4.046 -0.2620  0.0473 -0.0698
 7228W        W25432   4.393   8.305  11.700 -0.0033 -0.0290  0.3383
 7229W        W25433  17.548   4.404   4.271 -0.0005  0.2324 -0.3042
 7230W        W25434   3.215  17.576  12.428 -0.0915 -0.2284  0.0351
 7231W        W25435   5.372   8.169  12.430  0.1464  0.2528 -0.0448
 7232W        W25436   6.877   8.800  14.766  0.0350 -0.0399  0.1435
 7233W        W25437   9.887  12.166   1.870  0.0959  0.0854  0.2221
 7234W        W25438  15.578   2.596   1.075  0.0577 -0.2615 -0.1140
 7235W        W25439   3.359  13.867   2.094 -0.1406 -0.0931 -0.0398
 7236W        W25440  11.614   7.770   3.296  0.1573 -0.1757 -0.4118
 7237W        W25441  17.539  15.971  11.507 -0.0828 -0.2571  0.1944
 7238W        W25442  14.395   2.879   3.603 -0.0858  0.0200  0.0009
 7239W        W25443  12.381  17.919   0.833  0.0922 -0.0904  0.1457
 7240W        W25444  11.593   8.740  15.662  0.1676  0.1423  0.2440
 7241W        W25445  13.743  12.137   0.542  0.2039  0.0846 -0.0196
 7242W        W25446   0.794   0.526   1.397 -0.0828  0.0977  0.1459
 7243W        W25447   4.234   6.429  15.406 -0.0022 -0.2729 -0.0640
 7244W        W25448   5.310   7.502  12.032 -0.2931 -0.1886 -0.0291
 7245W        W25449  16.354  18.180   2.963  0.2454 -0.0315  0.1272
 7246W        W25450   6.517   7.479   4.615  0.0202 -0.0968 -0.0358
 7247W        W25451   8.486  18.240   2.436 -0.0987  0.0696  0.0903
 7248W        W25452  12.574   8.537  15.583  0.0624  0.0102 -0.0597
 7249W        W25453   5.617   7.932  11.958 -0.1062  0.0221  0.1221
 7250W        W25454   9.875  13.943   4.426 -0.0209  0.1880  0.0240
 7251W        W25455   1.268  10.567   4.086  0.1069 -0.0965  0.0545
 7252W        W25456   9.179  16.333   2.703 -0.0840  0.0001  0.0532
 7253W        W25457  13.123  12.367  14.523 -0.2607  0.0847 -0.3391
 7254W        W25458   2.722   8.308   1.037  0.1005  0.0770 -0.1961
 7255W        W25459   0.159   1.450   1.556  0.3158 -0.0627 -0.0424
 7256W        W25460   6.615   6.005  11.126  0.1491 -0.1774 -0.0815
 7257W        W25461   8.005  15.055  10.473 -0.3121 -0.1828  0.1637
 7258W        W25462   3.523   7.038   3.951  0.0584  0.1411  0.0168
 7259W        W25463   8.987   1.111   3.222 -0.1799  0.3408 -0.0585
 7260W        W25464  15.291   8.537  11.462 -0.0532 -0.1830 -0.0830
 7261W        W25465  13.612   6.857   2.165  0.1733 -0.0765 -0.2787
 7262W        W25466   6.257  13.198   1.234  0.0826  0.1141 -0.0188
 7263W        W25467  17.382  15.588   2.725 -0.2691  0.0082  0.2753
 7264W        W25468  12.866  16.006  13.878 -0.0301 -0.0342  0.1664
 7265W        W25469   8.175  14.735   4.557  0.0722 -0.0637  0.2231
 7266W        W25470  14.268   1.737  13.469  0.3074 -0.1612  0.3785
 7267W        W25471   3.740  17.716  11.911  0.0272 -0.2344 -0.1276
 7268W        W25472  16.294  11.432  11.973 -0.1200  0.3375 -0.0760
 7269W        W25473  16.697  10.371  13.934 -0.0351  0.1754 -0.2454
 7270W        W25474   6.280  16.428  15.015 -0.0604  0.3182  0.1153
 7271W        W25475  12.110  18.054   4.844  0.0892 -0.2140 -0.2500
 7272W        W25476   4.762   4.100  12.018  0.1311  0.0480  0.0069
 7273W        W25477   9.284   9.450  12.363  0.1786  0.0595 -0.0673
 7274W        W25478  10.249  14.145  12.563  0.1597 -0.2806  0.0103
 7275W        W25479   1.854   4.276   1.402 -0.1535  0.2610  0.1658
 7276W        W25480  16.989   2.895  15.218  0.1247  0.1853  0.2684
 7277W        W25481   1.283   6.115  11.795  0.1236 -0.1460  0.3712
 7278W        W25482   5.858   7.740   0.887  0.0059  0.1172 -0.0215
 7279W        W25483  10.195   1.468   4.379 -0.0809  0.1052 -0.0258
 7280W        W25484   3.314   3.463  14.747 -0.0735 -0.0184  0.0958
 7281W        W25485   5.090  14.312   2.954 -0.0062  0.1671  0.0738
 7282W        W25486  10.500   4.759   4.316  0.0745  0.0365  0.0735
 7283W        W25487   3.630   2.227   3.837  0.3425 -0.1714 -0.1840
 7284W        W25488   0.992   3.870  11.207  0.1657  0.0341  0.0756
 7285W        W25489   4.653  18.010   5.010 -0.1751  0.0116 -0.0744
 7286W        W25490   3.374  16.516   2.774  0.1847  0.2648  0.1218
 7287W        W25491  10.655   8.810  13.961 -0.1724  0.0693  0.0700
 7288W        W25492  14.064   6.306  15.518 -0.0285  0.0795  0.5176
 7289W        W25493  15.444  15.907  15.057  0.1743  0.3226  0.1162
 7290W        W25494  11.945   3.177   1.048  0.2573  0.1549  0.0606
 7291W        W25495   1.591   7.240  15.203 -0.1639 -0.0808  0.2399
 7292W        W25496  10.842   8.918   3.474 -0.0817  0.3980  0.1843
 7293W        W25497  14.989   1.589  10.860 -0.1260 -0.1127 -0.1792
 7294W        W25498  10.749  16.636   3.416 -0.1320  0.0346 -0.0780
 7295W        W25499   4.768  17.025   1.878  0.0159 -0.1312  0.3471
 7296W        W25500  16.300  17.842   3.508 -0.0977 -0.3093  0.0326
 7297W        W25501   7.099  13.596   4.317 -0.0549  0.1727  0.2072
 7298W        W25502   4.130  16.141  11.394 -0.0890 -0.0105 -0.1641
 7299W        W25503  17.059  12.509  14.491 -0.1221 -0.1485  0.0615
 7300W        W25504   9.803   5.269   4.028  0.2085 -0.1891  0.1602
 7301W        W25505   0.080  15.742  13.170  0.3395 -0.5117 -0.0746
 7302W        W25506   2.720   2.324  15.193 -0.1576  0.1743  0.0100
 7303W        W25507   5.616   0.581   1.783 -0.0134  0.0804 -0.0291
 7304W        W25508   0.731   8.836  11.055 -0.1993 -0.0155 -0.0151
 7305W        W25509   3.909  13.924   3.027 -0.0339 -0.1175 -0.0532
 7306W        W25510  16.052   3.039  11.157  0.0137 -0.0724 -0.0883
 7307W        W25511   4.128  16.214   0.406 -0.1165 -0.0464  0.2585
 7308W        W25512   9.174   3.964   2.811 -0.2654 -0.0884 -0.1726
 7309W        W25513   1.263  13.833   0.628  0.0294  0.1352  0.1443
 7310W        W25514  14.448  17.433  13.516  0.1141  0.1199 -0.1880
 7311W        W25515  11.981  12.986   4.001  0.1226 -0.1641  0.3417
 7312W        W25516  13.651  17.322   0.894  0.2266 -0.0436  0.1140
 7313W        W25517   7.650   7.112  12.629  0.3615  0.1237 -0.0239
 7314W        W25518  17.471   4.384  14.654  0.2903 -0.2996 -0.0686
 7315W        W25519   3.312   5.342  11.155 -0.0580 -0.2142 -0.1584
 7316W        W25520   2.916   6.034   1.070 -0.0572 -0.0988 -0.2537
 7317W        W25521   5.210   4.751   2.701 -0.2006  0.2571 -0.0213
 7318W        W25522  16.318   9.551   3.864 -0.1045 -0.0955  0.0148
 7319W        W25523   3.602   3.674  13.522 -0.1229  0.0906 -0.3634
 7320W        W25524  16.702  17.014  12.934 -0.0732  0.0208 -0.0762
 7321W        W25525   3.784   5.459  10.898  0.2137 -0.1166  0.0358
 7322W        W25526   5.531   7.883  15.272  0.1155 -0.2527 -0.1723
 7323W        W25527  16.219   4.742  14.751  0.0586  0.1078 -0.0096
 7324W        W25528  13.685   6.674  15.584 -0.3714 -0.1230 -0.0235
 7325W        W25529  14.393   3.805   1.974 -0.0064 -0.1191 -0.1415
 7326W        W25530   4.677   0.728  14.956 -0.1497 -0.0416  0.1113
 7327W        W25531  16.403  13.233   0.022 -0.0693 -0.4865 -0.1847
 7328W        W25532   5.098  17.188   4.187 -0.0914 -0.2363 -0.0838
 7329W        W25533   6.102   5.406  12.336 -0.1810  0.1649  0.0741
 7330W        W25534   5.100   2.134  13.568 -0.0323 -0.2952  0.0356
 7331W        W25535   1.640   5.846  14.192 -0.0774  0.1029  0.1695
 7332W        W25536   5.177   6.702   4.713  0.2286 -0.0560 -0.0428
 7333W        W25537   6.861  10.009   1.788  0.1960  0.0132 -0.0584
 7334W        W25538   3.959  10.327   1.883  0.2461 -0.0990 -0.1706
 7335W        W25539   3.676   5.037  13.335  0.0941 -0.1079 -0.2848
 7336W        W25540  15.318   6.531  11.787 -0.0821  0.1376 -0.2151
 7337W        W25541  13.087  15.306   0.155 -0.0189  0.1424  0.1192
 7338W        W25542  11.733  14.399   4.594 -0.1514  0.2724 -0.1205
 7339W        W25543  15.839  11.809   1.035 -0.1401 -0.0775  0.2227
 7340W        W25544  14.899  14.681  11.740 -0.0263 -0.3020  0.1656
 7341W        W25545   3.931   8.413   3.727  0.1189  0.1070 -0.1362
 7342W        W25546   6.875   2.734   1.597  0.2223  0.0595  0.1564
 7343W        W25547  15.172  14.098  12.958  0.2664  0.0093  0.2288
 7344W        W25548   5.540   3.627   2.747  0.0048 -0.3049  0.1400
 7345W        W25549   7.382   0.248  12.679 -0.2875 -0.0164 -0.2766
 7346W        W25550  13.925  18.330   0.566  0.2019  0.0888 -0.1360
 7347W        W25551   0.049  15.536   1.391  0.1673  0.0214  0.3177
 7348W        W25552   9.857  15.386  11.046 -0.0676 -0.0781  0.0300
 7349W        W25553  16.014  15.217  13.779 -0.2925  0.0342  0.0999
 7350W        W25554   6.820   2.289   4.549  0.1744 -0.0228 -0.0278
 7351W        W25555  10.929  10.974  11.801 -0.0143  0.0229  0.3054
 7352W        W25556   3.809   9.384   3.793  0.0499 -0.1298  0.2690
 7353W        W25557   8.244   7.573  13.376  0.1489  0.1256 -0.2867
 7354W        W25558   6.174   5.706   1.375 -0.1077  0.0938  0.1005
 7355W        W25559   2.915  11.903  14.370  0.1035 -0.0317 -0.0777
 7356W        W25560   7.133  17.329   2.991  0.4597 -0.1445  0.1610
 7357W        W25561  14.377  12.492   2.532  0.2810  0.2339 -0.0773
 7358W        W25562  14.614   7.155  13.565 -0.1102 -0.2351  0.1475
 7359W        W25563   1.522   9.406   0.714 -0.1010  0.0770  0.0493
 7360W        W25564   2.753   3.523   0.282  0.4885 -0.0292 -0.2005
 7361W        W25565  15.919   2.171   0.197 -0.0988  0.3604  0.3519
 7362W        W25566   6.690   1.061   1.866 -0.1849 -0.0709  0.4985
 7363W        W25567   7.693   5.192  12.054  0.0366  0.0483  0.1689
 7364W        W25568   3.809   4.601   4.404 -0.1221 -0.0173 -0.2148
 7365W        W25569   5.171  17.252   2.155 -0.0522  0.0205  0.3382
 7366W        W25570   5.330   2.890  11.174  0.0160 -0.1571  0.4021
 7367W        W25571   3.357  15.641  12.858  0.1671  0.1406  0.3081
 7368W        W25572  16.411  16.256   3.539  0.3137  0.1702  0.0208
 7369W        W25573   8.000   4.200  13.401 -0.1207  0.0749  0.2005
 7370W        W25574  14.021   8.983  12.693  0.2399 -0.1716 -0.0754
 7371W        W25575  11.967  11.912   3.774 -0.0171  0.2410  0.2629
 7372W        W25576   6.913  16.217   2.563  0.0589  0.1543 -0.0514
 7373W        W25577   4.174   4.845   0.142 -0.2462 -0.1191  0.1237
 7374W        W25578  12.935   7.123   0.406  0.1664 -0.1526  0.3411
 7375W        W25579   4.744  14.850  13.892  0.2324  0.0618  0.2306
 7376W        W25580   3.684  10.756  13.794  0.1054  0.2119  0.0576
 7377W        W25581   8.338   6.219   4.127  0.1604 -0.2541 -0.2608
 7378W        W25582   2.467   1.490   2.242 -0.0302  0.0685 -0.1622
 7379W        W25583  13.634   9.649   2.693  0.2024  0.1797  0.1696
 7380W        W25584   3.788   8.226   0.190  0.3100 -0.0988  0.0482
 7381W        W25585  14.468   1.761  11.914 -0.0607 -0.2175 -0.2187
 7382W        W25586  15.342  13.547  11.161 -0.3312  0.1455 -0.0368
 7383W        W25587  18.272   7.464  11.914  0.2268  0.3202 -0.0765
 7384W        W25588   2.799   8.386   4.587 -0.1153 -0.0809 -0.4208
 7385W        W25589   4.408  13.402   3.528 -0.1771 -0.2170 -0.0842
 7386W        W25590  12.125  12.897   4.779 -0.1219  0.0134  0.2260
 7387W        W25591  13.244   5.500  13.696 -0.0527  0.0451  0.0516
 7388W        W25592   8.244   4.254  15.401  0.2036  0.0356  0.0750
 7389W        W25593   0.146  11.045  15.602  0.3610  0.4614  0.0118
 7390W        W25594  17.653  12.898   5.601  0.2195 -0.1139  0.1835
 7391W        W25595   8.666   8.969   3.221 -0.1859  0.0188 -0.0468
 7392W        W25596  14.591  10.941  13.623 -0.3813  0.0432 -0.1411
 7393W        W25597   8.002   8.162  11.358  0.0107 -0.1205 -0.3935
 7394W        W25598   7.162   3.861   1.299 -0.1640  0.1608  0.0891
 7395W        W25599   7.080  13.109   4.208  0.0377 -0.1398  0.3067
 7396W        W25600  14.347   1.086  11.514 -0.1002 -0.0298 -0.0224
 7397W        W25601  15.665   0.124   1.053  0.2606 -0.0423 -0.1624
 7398W        W25602  10.984  13.053  11.494 -0.1302 -0.0719  0.2551
 7399W        W25603   2.411  16.879   0.259 -0.0707 -0.0463  0.1814
 7400W        W25604  17.182   0.878   0.842 -0.0555 -0.1566  0.1408
 7401W        W25605   8.797  14.396  10.623 -0.0548  0.2322 -0.0390
 7402W        W25606  18.062   7.411  14.442 -0.2336  0.1064 -0.2376
 7403W        W25607   7.513  10.127  12.031 -0.1391  0.4258  0.1481
 7404W        W25608   8.457   1.693   3.730 -0.0308 -0.2799 -0.1891
 7405W        W25609   2.909  12.826   2.693 -0.2434  0.0668 -0.0392
 7406W        W25610   0.612   1.344   1.380 -0.0442 -0.0398  0.4122
 7407W        W25611   1.281   2.520  11.547 -0.2206  0.2047  0.0987
 7408W        W25612   0.971   5.831  15.555 -0.1984  0.1313  0.1632
 7409W        W25613   0.260   3.763  13.306  0.0033  0.3140 -0.2036
 7410W        W25614   8.358   5.239  11.230  0.0869 -0.1476  0.0676
 7411W        W25615   3.873   6.529  15.728  0.4596 -0.0312  0.1365
 7412W        W25616   9.959   4.647  11.577  0.3010 -0.0235  0.0533
 7413W        W25617  13.011  13.929  12.312 -0.0914 -0.0309 -0.2420
 7414W        W25618   1.982   4.942  14.499 -0.0978  0.0860  0.4588
 7415W        W25619   3.015   1.613  12.966 -0.0844 -0.2694  0.2078
 7416W        W25620   1.907  14.527  13.110 -0.1123 -0.0117 -0.0156
 7417W        W25621   1.530  16.556  13.937  0.1910 -0.0128  0.3531
 7418W        W25622  15.929   5.206  12.744  0.1047  0.0725  0.1491
 7419W        W25623  16.668  10.890  11.293  0.1597  0.0767 -0.3380
 7420W        W25624   3.673  10.858  13.264 -0.1264 -0.0282  0.0249
 7421W        W25625  17.876  14.819   1.784 -0.2341  0.1713 -0.2048
 7422W        W25626  10.232  14.213  13.976 -0.0881  0.0087  0.0971
 7423W        W25627   5.002  16.971  13.600  0.0176  0.1362  0.0095
 7424W        W25628   9.179  17.140  11.064  0.2098 -0.1748  0.1463
 7425W        W25629   2.165   3.596   2.473  0.1479 -0.0548  0.0142
 7426W        W25630  16.591   7.023   3.635  0.0766 -0.0335  0.1832
 7427W        W25631  10.268   7.393  11.700  0.1930  0.3907 -0.1718
 7428W        W25632   1.742   1.304   4.366 -0.1407  0.0548  0.2465
 7429W        W25633  18.137  13.162   2.778  0.2257 -0.1569 -0.1152
 7430W        W25634   2.022  13.617   1.975 -0.0625 -0.1481 -0.2523
 7431W        W25635   4.394  12.220  13.259 -0.2355 -0.0091  0.1910
 7432W        W25636   0.383  12.989  14.517 -0.1503  0.4847 -0.2965
 7433W        W25637  10.924  18.138   3.257  0.0715  0.2630 -0.2740
 7434W        W25638   3.572  16.764  12.412  0.0929 -0.3096 -0.2253
 7435W        W25639  17.440   2.835   0.750 -0.1307 -0.0952 -0.1315
 7436W        W25640   7.970  11.272   0.754 -0.1941  0.1829 -0.3844
 7437W        W25641  15.981  14.330  13.640  0.1582 -0.1092  0.0997
 7438W        W25642   6.318   3.597  13.634  0.0760 -0.6026  0.1280
 7439W        W25643  17.392   4.334  11.560 -0.0294 -0.3331  0.0645
 7440W        W25644   9.625   2.225   4.320 -0.0886  0.1019  0.0876
 7441W        W25645  15.666  16.215  12.730  0.4111 -0.0425  0.1522
 7442W        W25646   0.663   6.966   3.862 -0.3235  0.1047 -0.5496
 7443W        W25647  16.055   2.355   0.941  0.2079 -0.0654  0.0757
 7444W        W25648   1.812   9.051  13.622 -0.1049 -0.0646 -0.1045
 7445W        W25649  10.371  11.251   2.337  0.1564 -0.2965 -0.2447
 7446W        W25650   9.119   3.474   0.412 -0.0083  0.2088 -0.2654
 7447W        W25651   8.888   7.919  11.734  0.0223  0.1910  0.0414
 7448W        W25652   5.291  14.272   0.009 -0.1506  0.0612  0.1358
 7449W        W25653   0.711   2.719   2.129  0.1801  0.0749 -0.0229
 7450W        W25654  11.625   3.215  14.060 -0.0196 -0.0936 -0.1422
 7451W        W25655   4.803   1.496   0.651  0.0844 -0.0550 -0.0598
 7452W        W25656   3.169   8.887  14.966  0.0549  0.2141  0.0349
 7453W        W25657   1.714  16.016   1.032 -0.1992 -0.0998  0.1069
 7454W        W25658  14.075   9.403   4.518  0.3158  0.5536 -0.1726
 7455W        W25659   4.614  17.886  10.844  0.0683 -0.0359  0.3031
 7456W        W25660   7.993  18.091   2.490  0.1110  0.0730 -0.1813
 7457W        W25661   1.913   4.153  10.729  0.1126  0.0399  0.1766
 7458W        W25662   7.459  13.012  14.612 -0.3220 -0.1802  0.2451
 7459W        W25663   2.967   2.729   5.049 -0.1526  0.1748  0.1575
 7460W        W25664   7.453   5.074  15.296  0.3479  0.1955 -0.0805
 7461W        W25665   0.381   8.305  12.433 -0.2098 -0.1430 -0.2121
 7462W        W25666  13.148  16.078   5.211  0.0031 -0.1526  0.1693
 7463W        W25667   2.392  15.481  14.572  0.1145 -0.2088 -0.0413
 7464W        W25668  16.592   4.733  11.682  0.0946 -0.0013  0.1226
 7465W        W25669  10.727   7.542   0.130 -0.2875 -0.2416  0.0089
 7466W        W25670  17.561   9.491  14.365  0.1726  0.0850 -0.2371
 7467W        W25671   7.257  14.174  12.195 -0.1558 -0.2346  0.0266
 7468W        W25672   8.020  15.661  11.520 -0.0783 -0.1427 -0.2772
 7469W        W25673  10.739   9.760  13.736  0.1402  0.0023  0.1389
 7470W        W25674   6.756  13.878  15.005 -0.3470  0.0872  0.1327
 7471W        W25675   1.816  15.976  11.532 -0.2685  0.0743 -0.2108
 7472W        W25676  10.188  17.574  13.835  0.1929 -0.1455 -0.3501
 7473W        W25677   1.484   1.011   0.996 -0.4014  0.1761 -0.0548
 7474W        W25678   0.641  17.391  10.765  0.2969 -0.0166  0.2147
 7475W        W25679   0.237   2.967  14.164 -0.1510  0.0829 -0.2294
 7476W        W25680  13.444   6.747   0.548 -0.1008  0.0844 -0.0186
 7477W        W25681   7.349   6.002  14.251 -0.1523  0.1507  0.0580
 7478W        W25682   7.047   7.481  14.410 -0.0104 -0.1031 -0.2708
 7479W        W25683   4.485  17.461  12.566  0.0205 -0.0335  0.2173
 7480W        W25684   3.766   7.953  13.946 -0.3726  0.2472  0.0755
 7481W        W25685  11.872   3.853   4.340 -0.1054 -0.0266 -0.1867
 7482W        W25686   8.496   7.116   6.102  0.2092  0.1584 -0.2814
 7483W        W25687   0.531   0.857   4.313  0.2691  0.2162 -0.0560
 7484W        W25688   9.336  14.382  13.241  0.1996 -0.0673 -0.3636
 7485W        W25689  14.898  15.598  11.230 -0.1786 -0.1629  0.0838
 7486W        W25690   8.792  13.543   6.087 -0.1888 -0.0742  0.0490
 7487W        W25691   0.375  18.187   4.023 -0.2629  0.0486  0.0562
 7488W        W25692   9.982  16.592  13.425 -0.0069 -0.2877 -0.0793
 7489W        W25693   3.164   5.422   4.587 -0.2196 -0.2442  0.0701
 7490W        W25694  16.257  15.851  11.059  0.0155  0.1640 -0.4085
 7491W        W25695   5.430   6.848  12.217 -0.1783  0.0356  0.2681
 7492W        W25696  11.292   3.460  15.131  0.1141 -0.1499  0.2785
 7493W        W25697  16.260   5.225  14.077 -0.1275  0.0235  0.0341
 7494W        W25698   5.296   4.573  14.405  0.0817  0.2059 -0.2290
 7495W        W25699  14.534   7.860   3.365  0.2272  0.1501 -0.1889
 7496W        W25700   5.304   2.755  13.815 -0.0777 -0.1292  0.2319
 7497W        W25701   9.373  12.619   3.573  0.0452 -0.0031  0.0691
 7498W        W25702   2.056   4.339   3.135 -0.0207  0.1192  0.0649
 7499W        W25703  10.005   3.359   3.619  0.1422  0.2108 -0.3488
 7500W        W25704  15.926   7.246   1.530 -0.3130  0.3276  0.1042
 7501W        W25705  17.391   0.229  12.178 -0.0804 -0.1193  0.1717
 7502W        W25706  12.150   0.587  14.436  0.0792  0.0626 -0.0830
 7503W        W25707   3.475   7.465   2.877 -0.1772 -0.2594  0.1514
 7504W        W25708   6.258   2.990   3.038  0.0991 -0.2529  0.0031
 7505W        W25709  15.791  14.038   0.526  0.0743  0.0356  0.0812
 7506W        W25710   3.380  13.495   3.537  0.1382  0.1808 -0.1286
 7507W        W25711  17.852  13.977   1.194  0.1527  0.1129  0.0848
 7508W        W25712  16.566   6.060  11.280  0.0966  0.0116  0.0316
 7509W        W25713  18.242   8.552  13.164  0.0805 -0.0270 -0.0610
 7510W        W25714   6.807   3.456   3.393  0.0662 -0.1539  0.0052
 7511W        W25715   8.185  13.616  12.766  0.2346 -0.1576  0.1072
 7512W        W25716   0.039   6.894   0.501 -0.2958  0.0337 -0.0473
 7513W        W25717   8.903   0.729   2.910  0.2108  0.3635 -0.0397
 7514W        W25718   5.611  13.046  11.715 -0.2464 -0.1321 -0.1929
 7515W        W25719  17.987  16.357  11.606  0.2017 -0.0833  0.0331
 7516W        W25720  15.457  16.553   1.842  0.0325 -0.2893 -0.0064
 7517W        W25721  16.358  17.053   1.676  0.0632 -0.0444  0.1885
 7518W        W25722  17.867  15.413   1.993 -0.1454  0.0929  0.1440
 7519W        W25723   8.368  14.724  12.764 -0.2098 -0.1058 -0.1039
 7520W        W25724   7.787   3.638   0.413  0.3033 -0.0268 -0.2880
 7521W        W25725  12.802  11.902   0.716 -0.2035  0.1436 -0.5965
 7522W        W25726  18.036   6.315   4.200 -0.0325  0.0004  0.0530
 7523W        W25727   6.580   9.318   4.066 -0.1018 -0.1824  0.2683
 7524W        W25728  13.279  11.015   2.922 -0.2805 -0.0518  0.0542
 7525W        W25729  10.873  15.730  13.325  0.2526 -0.0128 -0.0262
 7526W        W25730  11.002   9.579  12.416  0.2040 -0.3368 -0.2343
 7527W        W25731  17.582   1.667  15.410  0.1420  0.1473 -0.0956
 7528W        W25732  10.370   9.664   2.884 -0.0206 -0.1780  0.1335
 7529W        W25733   5.232   2.302   0.717 -0.1620 -0.2008  0.0136
 7530W        W25734  14.105  18.185  15.418  0.2241 -0.3068 -0.0334
 7531W        W25735   2.660  12.723  12.760  0.0411  0.2559 -0.1912
 7532W        W25736  13.897  10.880   1.655 -0.2427  0.1674  0.0970
 7533W        W25737   1.915  17.340  14.297  0.1176  0.0068  0.4425
 7534W        W25738   7.269   9.777  15.300  0.1264 -0.0636  0.1166
 7535W        W25739   8.633   4.803  13.413  0.0011  0.0563  0.0932
 7536W        W25740  17.092   2.199  12.132 -0.0972  0.0434  0.0490
 7537W        W25741   7.295  11.626  15.032  0.0926  0.0204 -0.0176
 7538W        W25742  13.009  13.083  11.938 -0.0382 -0.2245  0.3248
 7539W        W25743   1.966  17.578   1.775  0.0098  0.4496  0.0483
 7540W        W25744   2.662   9.751  10.507 -0.1498 -0.0921 -0.4388
 7541W        W25745  11.083   9.034   1.559 -0.0802 -0.3410  0.2544
 7542W        W25746  15.785  14.457   1.334  0.0026  0.0876  0.1160
 7543W        W25747   2.764  17.645   1.021  0.1556  0.1876  0.3328
 7544W        W25748   6.895  16.476  12.190  0.0016  0.1773 -0.2971
 7545W        W25749  12.546   7.254   2.921 -0.1076  0.4831 -0.2317
 7546W        W25750  10.226  13.263   1.592 -0.2123  0.1283  0.0231
 7547W        W25751   1.548  15.067   3.448  0.3070 -0.2563  0.0298
 7548W        W25752   4.756   4.054  11.439 -0.0980 -0.1639 -0.0282
 7549W        W25753  11.365   0.835  12.611 -0.3457 -0.1078 -0.2521
 7550W        W25754  11.060   8.949   3.943 -0.0453  0.0353  0.4647
 7551W        W25755  10.208   2.570  12.660 -0.4803  0.0006 -0.0362
 7552W        W25756  12.876   2.585  15.409  0.0282  0.3105  0.1633
 7553W        W25757   2.364  17.920  12.505  0.0515 -0.2390  0.1961
 7554W        W25758  13.714  10.958  13.583 -0.1625 -0.3070 -0.1837
 7555W        W25759  13.218  17.309   3.613 -0.2533  0.3104 -0.2022
 7556W        W25760  17.366  13.652  11.750  0.3142 -0.3241 -0.0322
 7557W        W25761  13.404   8.405  14.815  0.1517  0.0093 -0.3544
 7558W        W25762   6.483   0.949   0.864 -0.1076  0.2351 -0.1765
 7559W        W25763  12.238  14.942   0.458  0.0611 -0.2617 -0.0718
 7560W        W25764   6.747   3.662   2.934  0.0952 -0.1188  0.4903
 7561W        W25765  16.464   7.195  11.474  0.0808 -0.1697 -0.1600
 7562W        W25766  14.467   5.712  11.127  0.1646  0.3041 -0.0534
 7563W        W25767   7.062  14.237  11.299  0.1334  0.0191  0.1364
 7564W        W25768  16.161   8.683   3.972 -0.0409  0.0228 -0.0701
 7565W        W25769   9.852  14.353   2.471 -0.2106 -0.0044  0.1997
 7566W        W25770   6.636  18.147  12.886 -0.0669  0.2016  0.1303
 7567W        W25771  11.781  14.935   0.152  0.1934 -0.3408 -0.1268
 7568W        W25772   8.000  11.159  10.990 -0.0175 -0.0087 -0.0848
 7569W        W25773  14.344   1.077   3.039 -0.2411  0.0493  0.2146
 7570W        W25774   1.674  13.853   3.492  0.0942  0.2572  0.0993
 7571W        W25775   4.099   8.759  15.039 -0.1286  0.0500  0.1620
 7572W        W25776   2.581  18.108   3.119 -0.2918 -0.0159  0.1663
 7573W        W25777  18.002  17.562   3.352 -0.1369  0.2502 -0.4357
 7574W        W25778   7.299   6.219   0.804 -0.2504 -0.0116  0.0091
 7575W        W25779  16.321  11.674   4.403 -0.1198  0.1740  0.5406
 7576W        W25780  11.599   8.585   2.199  0.1332  0.2073  0.1752
 7577W        W25781  10.177  12.969   0.313 -0.2293  0.2462  0.2638
 7578W        W25782   4.399  14.396   3.504  0.1210  0.0734  0.0002
 7579W        W25783   8.740   8.719   2.562  0.4213 -0.2467 -0.2825
 7580W        W25784   2.079   4.310  13.553 -0.1277  0.0986  0.3210
 7581W        W25785  17.878   0.383  12.423 -0.0688  0.1590 -0.0697
 7582W        W25786   9.516   6.135  13.109  0.1762  0.1733 -0.2501
 7583W        W25787   2.585   9.143   1.437  0.0602  0.1666 -0.1350
 7584W        W25788  12.071   9.626  15.185 -0.0637  0.0181 -0.0953
 7585W        W25789  10.874  14.881   4.121  0.0298  0.2933  0.0851
 7586W        W25790   5.113  17.255  11.635 -0.1012  0.0182 -0.1266
 7587W        W25791   2.025   3.853  12.643 -0.1450 -0.2023 -0.0675
 7588W        W25792  15.684  10.863   1.525 -0.0264 -0.0340 -0.2216
 7589W        W25793  12.825  16.289   1.088 -0.0321 -0.0802 -0.0938
 7590W        W25794  16.627   6.628  14.369  0.1242 -0.0951  0.0864
 7591W        W25795  13.909   6.254  10.618 -0.0824  0.2352 -0.1861
 7592W        W25796   1.434  14.782  14.870  0.1344 -0.0555  0.2373
 7593W        W25797   5.756   5.630   2.678 -0.0203  0.1493  0.0389
 7594W        W25798   4.590   9.813  13.175 -0.4029  0.0231 -0.0814
 7595W        W25799   6.841  10.360   0.747 -0.1391  0.0870  0.0596
 7596W        W25800   0.196   3.748   0.877  0.1398  0.0436 -0.1012
 7597W        W25801   4.779  12.110  13.696 -0.1432  0.0373  0.0517
 7598W        W25802  16.950   3.678  15.047  0.3101  0.1681  0.0073
 7599W        W25803  11.616   9.779   1.674  0.2251 -0.1074  0.1135
 7600W        W25804  13.896  12.412   0.068  0.0622  0.3135  0.0858
 7601W        W25805  18.367   6.490   1.489  0.2766 -0.2564 -0.3270
 7602W        W25806   6.897  17.654   2.304 -0.0704 -0.3893 -0.2490
 7603W        W25807  14.053   4.131  11.451 -0.1733 -0.0315  0.2496
 7604W        W25808   5.922   5.240   1.846  0.1314 -0.1860 -0.3889
 7605W        W25809   8.085   9.766  14.599 -0.0499  0.0440 -0.2986
 7606W        W25810  10.979   4.564   2.362 -0.0963 -0.1358 -0.0725
 7607W        W25811   5.490  12.186   4.027 -0.1352 -0.0652  0.1921
 7608W        W25812  17.730  13.656   0.157 -0.2258  0.3142 -0.1171
 7609W        W25813  10.608   3.951   0.728 -0.1738 -0.3082 -0.0845
 7610W        W25814   5.494   5.397   2.222 -0.1962 -0.1057  0.1386
 7611W        W25815  17.551  12.053   1.525  0.1612  0.1013  0.0729
 7612W        W25816  16.384  16.788  11.172 -0.0559 -0.0576  0.1289
 7613W        W25817   1.461   9.065  14.681  0.2127 -0.1682 -0.1714
 7614W        W25818  17.203  12.811   0.233  0.3155  0.1151  0.2314
 7615W        W25819   3.803  15.655  10.404  0.1925 -0.3086  0.4718
 7616W        W25820   8.736   5.847   3.411 -0.0166 -0.0743 -0.3449
 7617W        W25821   7.329  10.194  14.399 -0.2984  0.1428  0.1335
 7618W        W25822   5.030  14.616   0.743 -0.1654 -0.2490  0.1485
 7619W        W25823   5.025   8.263   5.046  0.1936  0.0875  0.0223
 7620W        W25824  14.074   4.220   3.153  0.0826  0.0742 -0.1865
 7621W        W25825   6.619   6.159   3.603  0.0041 -0.1246  0.1778
 7622W        W25826   6.091   6.505   1.738  0.0097 -0.0146 -0.1541
 7623W        W25827  11.305  11.750  12.167  0.0959 -0.0294 -0.1002
 7624W        W25828   8.376   6.145   3.595  0.1946 -0.1931  0.1099
 7625W        W25829   1.588   9.476   4.436  0.1700 -0.1565 -0.1742
 7626W        W25830   2.309   9.110   4.321  0.0591  0.2854 -0.0979
 7627W        W25831  17.453   3.512   2.495  0.0835  0.2050 -0.0023
 7628W        W25832  16.581  16.951  11.626  0.0207  0.0811 -0.0105
 7629W        W25833  12.527  14.925  14.578 -0.0501  0.3582  0.1064
 7630W        W25834   8.152   7.386   4.842 -0.2583 -0.2388  0.0580
 7631W        W25835   4.559   5.103  14.493  0.0552 -0.1929  0.1964
 7632W        W25836   4.168   1.198  12.313 -0.1485  0.0269 -0.0348
 7633W        W25837  16.280   0.908   1.231  0.1973  0.1336 -0.3482
 7634W        W25838  16.886   3.280   4.713 -0.0285 -0.2284  0.0614
 7635W        W25839  11.126   4.955  15.008  0.0826  0.3099  0.2969
 7636W        W25840   5.066  12.949  13.684  0.1562 -0.1185  0.1266
 7637W        W25841   2.846   1.551   3.169  0.0880  0.0134 -0.1070
 7638W        W25842  17.472  15.293   0.653  0.1824  0.2853 -0.1106
 7639W        W25843  18.234  16.556   0.495 -0.0769  0.1404 -0.1450
 7640W        W25844   7.434  14.552  13.377 -0.0130  0.0447  0.0724
 7641W        W25845   9.896   4.936  13.835  0.0483  0.3007 -0.1794
 7642W        W25846   1.933   2.318   4.250 -0.1635  0.1540 -0.0174
 7643W        W25847  10.162   2.968  14.547 -0.1797  0.1715  0.0884
 7644W        W25848   6.066   8.030  13.595 -0.1003 -0.1004  0.2595
 7645W        W25849   2.822   1.688   0.189 -0.0356 -0.2733  0.0522
 7646W        W25850  13.594  17.820   3.464  0.0041  0.0724  0.1493
 7647W        W25851  14.089  17.665   3.219 -0.0103 -0.1562  0.1941
 7648W        W25852  15.163   9.787  11.826 -0.0104 -0.3587  0.0114
 7649W        W25853   2.424   5.667   1.780  0.1639 -0.3704 -0.1298
 7650W        W25854  18.011  16.315   1.859 -0.3324 -0.0845  0.0658
 7651W        W25855   1.964  17.016   0.458  0.2945 -0.1909  0.0253
 7652W        W25856  15.251   9.078  15.258 -0.0489  0.1739  0.0392
 7653W        W25857  10.703   3.570  12.576 -0.5141  0.0111  0.0869
 7654W        W25858   7.057   0.086   2.597 -0.1478 -0.0844  0.2492
 7655W        W25859  10.802  14.260   0.110 -0.1623 -0.0754  0.3267
 7656W        W25860   2.073   2.677   4.552  0.2616 -0.3054  0.1500
 7657W        W25861  11.202   1.059   1.976 -0.0953  0.3265  0.0676
 7658W        W25862  16.964  13.193  15.181  0.1406 -0.0392  0.1929
 7659W        W25863   1.441  15.815   0.634 -0.0348  0.2625 -0.2137
 7660W        W25864  14.642  12.674  15.463  0.1953 -0.0718  0.2911
 7661W        W25865   7.014   2.104   0.976  0.1339 -0.1530 -0.2612
 7662W        W25866  10.427  11.026   3.985  0.1045 -0.3148 -0.0053
 7663W        W25867   6.028   4.351  12.511  0.0731  0.0594 -0.0747
 7664W        W25868  13.509   2.012  11.977  0.2176 -0.1077 -0.0740
 7665W        W25869  13.088   4.672  14.516  0.0556  0.0030  0.4209
 7666W        W25870   9.137  13.425  14.090 -0.0770  0.1073  0.1493
 7667W        W25871   4.651   8.696  11.386 -0.0034  0.3104 -0.1080
 7668W        W25872  16.532  16.975  15.262  0.0121 -0.0262 -0.1612
 7669W        W25873  15.887  12.659  14.742  0.1460 -0.3371 -0.1533
 7670W        W25874  12.231  14.781   2.783 -0.1399  0.6505  0.0864
 7671W        W25875  14.633   5.038  11.106 -0.2776 -0.2184 -0.0594
 7672W        W25876  10.673   6.931  13.156 -0.0731 -0.1176 -0.3225
 7673W        W25877  12.044  11.464  12.747  0.0022 -0.3330 -0.0763
 7674W        W25878   2.946   4.431  15.167  0.1118  0.1144 -0.0085
 7675W        W25879  11.297   2.985  12.078  0.3407  0.0696 -0.1750
 7676W        W25880  10.512   8.686  15.592 -0.2064 -0.4595  0.1135
 7677W        W25881   1.159   3.937  13.150 -0.1323 -0.2949 -0.1711
 7678W        W25882   3.064   0.030  14.840 -0.0357  0.3153  0.0776
 7679W        W25883   7.472  16.451   2.652  0.1401  0.1045 -0.3043
 7680W        W25884   5.095  10.864   0.663 -0.2776  0.0321  0.0124
 7681W        W25885   6.885   2.213   1.629  0.0194  0.2912  0.0935
 7682W        W25886   1.331   4.756   0.062 -0.3081 -0.0287 -0.0138
 7683W        W25887   4.050   2.520   2.046  0.1553 -0.1443 -0.0209
 7684W        W25888  17.178   1.080  12.305 -0.1241  0.0191  0.0337
 7685W        W25889  13.593   3.800   4.530 -0.3694  0.1178 -0.3500
 7686W        W25890  11.389  16.215   3.875 -0.0786  0.0109  0.3452
 7687W        W25891  13.250   1.068  11.943 -0.2168  0.1760 -0.1306
 7688W        W25892   2.995   0.693   4.754  0.2296  0.0692  0.0233
 7689W        W25893   7.142   7.446   0.861 -0.0628 -0.1625  0.2412
 7690W        W25894  18.147  13.997   4.772  0.0887  0.4057 -0.0565
 7691W        W25895   8.946   7.723  14.917 -0.0139  0.2804  0.1665
 7692W        W25896  16.703   7.501   4.340  0.1011 -0.0516  0.1337
 7693W        W25897  10.581  12.833   4.324 -0.1091 -0.0588  0.0326
 7694W        W25898   8.023  17.820  12.348 -0.1993 -0.3830 -0.0329
 7695W        W25899   7.409   4.369   4.177  0.1442 -0.1920  0.2175
 7696W        W25900  14.531  10.919  14.950  0.1283 -0.0349  0.1342
 7697W        W25901   8.523  14.189  12.646 -0.4414 -0.1809 -0.1415
 7698W        W25902  12.066   3.819  14.756 -0.0095 -0.1903 -0.3025
 7699W        W25903   7.584   3.385   4.062 -0.0141 -0.3059  0.1684
 7700W        W25904   3.601   8.117   1.419  0.1967  0.4861  0.0893
 7701W        W25905   3.975   3.529  14.889  0.1482  0.0667  0.1184
 7702W        W25906   0.088   9.036   2.152 -0.1085 -0.3980  0.4260
 7703W        W25907  12.997   0.965  14.688 -0.0846  0.0206 -0.4837
 7704W        W25908  12.136   4.456   0.007  0.0816 -0.0288  0.0896
 7705W        W25909  17.861  17.214   5.584 -0.1702 -0.0529  0.3261
 7706W        W25910  14.794  10.921   4.391  0.0779 -0.1304 -0.0466
 7707W        W25911   5.292  12.212  11.629 -0.2088  0.1284  0.1062
 7708W        W25912  15.381  17.985   1.751  0.1501 -0.3146 -0.0205
 7709W        W25913  15.833   2.221   5.591 -0.1366 -0.1695  0.0116
 7710W        W25914  14.661  16.882   1.431 -0.0566 -0.3063 -0.3813
 7711W        W25915  14.483   6.019   1.832  0.0087 -0.1572 -0.0670
 7712W        W25916  10.958  18.018  12.603 -0.2451 -0.0599 -0.3613
 7713W        W25917   4.203   0.683  13.124 -0.0059 -0.1914 -0.1903
 7714W        W25918   3.331  10.113   2.523 -0.0962  0.3913 -0.0080
 7715W        W25919  10.506  13.414   1.147  0.4001 -0.0918 -0.0298
 7716W        W25920   6.154  13.347   1.783  0.0042  0.1727  0.0230
 7717W        W25921  16.274  12.929   0.947 -0.0227 -0.0938  0.0123
 7718W        W25922   0.796  17.474  14.942  0.2573  0.2740 -0.0988
 7719W        W25923   3.118   0.517  14.993 -0.0726  0.2544  0.1319
 7720W        W25924   7.031   8.330   3.523 -0.0448  0.1268  0.2663
 7721W        W25925   7.068  11.745  11.644  0.0854  0.1450  0.1960
 7722W        W25926   2.347  12.619  14.789 -0.2266  0.2387  0.0377
 7723W        W25927   0.125  11.443   0.234 -0.2073 -0.0241  0.2572
 7724W        W25928  10.899   9.673  14.630  0.0086 -0.0538 -0.0376
 7725W        W25929   2.973  16.601  13.684  0.0340 -0.2189 -0.1233
 7726W        W25930  17.619   0.111  11.235  0.0104 -0.1062 -0.0942
 7727W        W25931  12.245   2.307   0.645  0.0263 -0.0080 -0.0008
 7728W        W25932   0.598  12.850  13.538 -0.1709  0.3281  0.1275
 7729W        W25933   5.969  11.761   0.763 -0.0055  0.0971 -0.0966
 7730W        W25934   6.776   2.496  15.189  0.2840 -0.0559  0.0440
 7731W        W25935   0.345  10.407   1.565 -0.0268 -0.1249 -0.1892
 7732W        W25936  17.961   3.014   0.546  0.0655  0.0568  0.1062
 7733W        W25937   3.594   6.382  12.273 -0.3420 -0.1924  0.0969
 7734W        W25938  13.855  11.244  14.980 -0.2634  0.0283  0.0449
 7735W        W25939  16.936  14.760   1.859 -0.2745  0.0248  0.0862
 7736W        W25940  13.013   9.661  15.608 -0.2411  0.0512 -0.0641
 7737W        W25941   8.009   8.808   1.972  0.0461  0.2150  0.0138
 7738W        W25942   5.449  14.838   4.181  0.0599 -0.1052  0.0277
 7739W        W25943   9.110   6.733   0.329 -0.1669  0.1347  0.1218
 7740W        W25944  15.218   0.838   4.453  0.0082 -0.0761 -0.1301
 7741W        W25945  12.812  12.471   1.460 -0.0392  0.1040 -0.1502
 7742W        W25946  17.073  15.250   0.275 -0.2595 -0.1316  0.0674
 7743W        W25947  13.234  14.880   4.425  0.1700 -0.1188  0.1566
 7744W        W25948   2.038   2.397  12.644 -0.3475 -0.1891  0.2028
 7745W        W25949   8.985   8.728   4.015 -0.0447  0.0526 -0.0159
 7746W        W25950   5.386   3.252   2.480  0.1888  0.2649  0.1138
 7747W        W25951   5.101  14.556  10.167  0.0135 -0.1962 -0.3647
 7748W        W25952   6.806   7.150   3.724 -0.1423 -0.2779 -0.1023
 7749W        W25953   4.146   0.895  14.957 -0.2561 -0.0972  0.6052
 7750W        W25954  11.011  18.103  12.126  0.3763 -0.3023 -0.0653
 7751W        W25955  11.440   9.137   2.869  0.2127  0.3508 -0.0036
 7752W        W25956   8.389   7.438   2.202 -0.1176  0.0702  0.0585
 7753W        W25957   9.195   3.246   1.327 -0.0512 -0.0923  0.0314
 7754W        W25958   7.647   9.349   3.211  0.0970  0.2549  0.2327
 7755W        W25959   5.910  16.883  15.672  0.2826  0.2549 -0.0127
 7756W        W25960   4.720   1.319  12.772  0.0515  0.1003  0.0364
 7757W        W25961  10.587  16.441   0.845  0.0769 -0.1251  0.1281
 7758W        W25962   7.060   5.519   1.080 -0.4186  0.0514 -0.0113
 7759W        W25963  13.517  15.388  15.403 -0.2132  0.0118 -0.4322
 7760W        W25964   3.600  16.902   2.689  0.0337  0.3388 -0.0246
 7761W        W25965   4.347   7.428   2.174 -0.1613  0.1784  0.1686
 7762W        W25966  16.891  17.782  14.209 -0.0585  0.4982 -0.0856
 7763W        W25967  15.936   2.743  13.784 -0.2143 -0.5401  0.2999
 7764W        W25968  17.409  12.521  13.530 -0.0143  0.0655 -0.0815
 7765W        W25969   7.131  14.409   2.721 -0.0829 -0.2293 -0.1114
 7766W        W25970  15.570   1.925   0.511 -0.2971 -0.2409 -0.0312
 7767W        W25971  16.612  11.489  13.449 -0.0818 -0.1910  0.1921
 7768W        W25972  15.448   6.525   2.686  0.1183 -0.0219 -0.0521
 7769W        W25973  11.533   6.834   1.330 -0.3368 -0.3244 -0.1471
 7770W        W25974   5.749   2.758   3.146  0.0919 -0.2543 -0.0360
 7771W        W25975  12.087  17.349  11.036  0.0821 -0.4969 -0.1379
 7772W        W25976   4.231  14.094  11.222  0.0754 -0.0903 -0.2192
 7773W        W25977  10.151   7.683   2.129 -0.0190  0.3106  0.2378
 7774W        W25978   1.839   4.197  15.364 -0.0362  0.2009 -0.0308
 7775W        W25979   0.868   9.606  14.338 -0.0936  0.2180 -0.0219
 7776W        W25980   4.499   9.813   2.765  0.1533  0.2266  0.2439
 7777W        W25981   9.676   3.869  14.360 -0.0259 -0.1340  0.0286
 7778W        W25982   9.963   1.090   3.709  0.2293 -0.1511 -0.0812
 7779W        W25983  12.892  14.702  13.149  0.0732  0.2341 -0.4375
 7780W        W25984  12.670   3.960   1.061 -0.0543  0.2024  0.0763
 7781W        W25985  15.449  18.301   2.567  0.3448  0.2118  0.0995
 7782W        W25986  16.252   3.196   1.390  0.3239  0.0802  0.1717
 7783W        W25987   6.991  10.629   2.019  0.4211  0.1720  0.0311
 7784W        W25988  15.279  12.210   4.035  0.3796 -0.2256  0.0211
 7785W        W25989  15.270  11.523  12.487  0.0018 -0.1900 -0.3158
 7786W        W25990   2.945   9.724  11.951  0.0346  0.3011 -0.2211
 7787W        W25991   6.945   7.991   3.142  0.0086 -0.2867 -0.2353
 7788W        W25992   1.894   8.900  14.923  0.2038 -0.0006  0.2243
 7789W        W25993   2.790  15.037   0.815 -0.0198 -0.2150 -0.1627
 7790W        W25994  16.354  10.246   0.729 -0.0340 -0.1414 -0.0623
 7791W        W25995  17.892  11.981   5.478  0.0274  0.2513 -0.0591
 7792W        W25996   4.149  16.735   3.984 -0.2439 -0.1126  0.1903
 7793W        W25997   7.966  15.049   2.739  0.2754  0.0253 -0.2569
 7794W        W25998  14.602  14.827   0.608 -0.0671  0.1406 -0.0592
 7795W        W25999  18.379   8.249  15.306  0.0941 -0.0014 -0.0339
 7796W        W26000   7.518   5.433  14.296 -0.1471 -0.2123 -0.0054
 7797W        W26001   0.587  14.879   3.272 -0.0673  0.0984  0.0068
 7798W        W26002   9.926   9.603   5.239  0.1602  0.3119 -0.3318
 7799W        W26003   0.171  14.702   4.411 -0.0609 -0.2306 -0.1059
 7800W        W26004   2.764   2.908  10.917  0.0901  0.2646  0.0788
 7801W        W26005   4.444  16.579   0.719  0.1501  0.1599  0.0417
 7802W        W26006  16.222  10.576   0.321 -0.0107  0.5419 -0.0202
 7803W        W26007  10.077   5.800  15.710 -0.0116 -0.0093  0.0034
 7804W        W26008   4.225   3.905   0.079 -0.0760  0.0529 -0.0212
 7805W        W26009  16.745   2.241   3.283 -0.0263  0.4280  0.3082
 7806W        W26010  15.103   5.212   1.257 -0.4291 -0.1421 -0.4483
 7807W        W26011   2.477   3.969  13.372  0.0126 -0.4107 -0.0493
 7808W        W26012  17.220   0.593   3.197  0.0513 -0.1081 -0.0063
 7809W        W26013  10.260   1.538   3.759  0.0966 -0.2803 -0.0951
 7810W        W26014   4.354  17.962  14.137 -0.0195  0.1969  0.0478
 7811W        W26015   6.046  10.900   0.545  0.1610 -0.1101  0.1101
 7812W        W26016   3.133   1.229   4.553 -0.1399  0.1798  0.2926
 7813W        W26017  14.206  15.107   0.416  0.2890  0.1415  0.0330
 7814W        W26018   5.883   7.147   0.219  0.0239  0.1809  0.0249
 7815W        W26019  12.859   6.992  15.491  0.0386  0.1622  0.0393
 7816W        W26020   5.981  10.231   0.602 -0.0674 -0.1985  0.3535
 7817W        W26021   8.724  18.221  11.203 -0.1160  0.0033 -0.0134
 7818W        W26022  18.272   5.349  13.905  0.0637 -0.0554  0.1672
 7819W        W26023   4.963   8.946   4.315  0.0122  0.2262  0.0312
 7820W        W26024  15.789  10.573   5.903 -0.2570 -0.0908 -0.1425
 7821W        W26025   1.888   8.617   1.559 -0.1223  0.2109  0.3099
 7822W        W26026  12.704   7.909   0.702  0.1693 -0.1931 -0.0075
 7823W        W26027  12.175  18.151  15.646  0.0273 -0.3292  0.1414
 7824W        W26028   5.470   4.200   1.273 -0.2754  0.1313  0.3981
 7825W        W26029  14.538  12.762   1.548 -0.0062  0.1458  0.1938
 7826W        W26030   0.459  17.934   2.486  0.3003 -0.0308  0.2202
 7827W        W26031  17.538  12.764   1.089  0.0752 -0.0420  0.0214
 7828W        W26032  11.172   9.458  15.470 -0.2362 -0.0234 -0.2967
 7829W        W26033   0.037   4.784  15.385  0.1037 -0.0805  0.1578
 7830W        W26034   3.314   4.978   2.336 -0.2422 -0.0508 -0.4551
 7831W        W26035  15.554  15.424  14.958  0.1073 -0.1436 -0.1709
 7832W        W26036   0.734  12.562   1.407 -0.1163 -0.1627 -0.0103
 7833W        W26037  18.348   3.388   1.121 -0.0884  0.0766  0.5455
 7834W        W26038  12.454   5.933   3.347 -0.0179 -0.0282 -0.2943
 7835W        W26039   9.345  16.075   5.410  0.2556  0.0317  0.0559
 7836W        W26040  15.035  10.537   0.987  0.0620 -0.0386 -0.1580
 7837W        W26041  17.116   1.340  10.946  0.3532  0.4183 -0.1350
 7838W        W26042  17.306  12.977   0.671  0.3707 -0.0546  0.1560
 7839W        W26043  13.184   0.773  14.174  0.1601 -0.0304 -0.3699
 7840W        W26044   2.739  17.415  13.321 -0.0655 -0.2745  0.2095
 7841W        W26045   8.151   7.531  15.103  0.1446  0.3117 -0.0019
 7842W        W26046  17.865  10.506   4.336  0.4149  0.0324  0.0245
 7843W        W26047   8.767  18.204   0.362 -0.2048 -0.1103 -0.1487
 7844W        W26048  16.913   3.489   2.587  0.1410 -0.3690  0.2487
 7845W        W26049   0.934   0.696  14.238 -0.2021 -0.2524 -0.0244
 7846W        W26050   4.161   9.432  12.407  0.1852 -0.2288  0.2032
 7847W        W26051   6.728   2.353  12.395  0.1485  0.0114  0.1129
 7848W        W26052  16.006   2.929   4.177  0.1309  0.1836 -0.1530
 7849W        W26053  15.086   2.486   9.928  0.3884  0.1489 -0.2634
 7850W        W26054   8.663  12.211   4.729  0.2157 -0.0602  0.1733
 7851W        W26055   3.787   8.493  15.415 -0.2300 -0.2498  0.0287
 7852W        W26056  14.539   5.710   0.165 -0.0506  0.0840 -0.2144
 7853W        W26057   0.612  15.216  14.130  0.2330 -0.0560 -0.0794
 7854W        W26058   8.747   3.089   4.755 -0.0638  0.2170  0.0589
 7855W        W26059   8.877   6.559  12.691  0.0695 -0.1980 -0.1078
 7856W        W26060   4.902   8.413   3.112 -0.0966 -0.1795  0.0937
 7857W        W26061  11.917  14.493  14.086 -0.0244 -0.2951 -0.1881
 7858W        W26062   6.595  11.438  14.028 -0.0824 -0.0293  0.1121
 7859W        W26063   3.771  17.878  14.842  0.0226 -0.1266 -0.1641
 7860W        W26064  15.938   0.792  14.178  0.0940  0.1777 -0.1612
 7861W        W26065   4.622   9.297  12.864  0.1160  0.1603  0.1032
 7862W        W26066  12.522   7.965  13.246 -0.0860 -0.1031  0.1171
 7863W        W26067   0.070  17.504   1.532 -0.2002 -0.0237 -0.2015
 7864W        W26068  12.848  10.117   0.167  0.0575  0.3539 -0.0228
 7865W        W26069   7.091  13.739  11.192 -0.0161 -0.3499  0.0116
 7866W        W26070   7.444  12.749   4.408 -0.0408 -0.4196  0.0034
 7867W        W26071  14.155  16.111   2.963  0.2417  0.0173  0.2576
 7868W        W26072  16.261   1.569  15.316 -0.0417  0.0984 -0.1532
 7869W        W26073   6.330   7.321   1.678 -0.1789  0.2609  0.0361
 7870W        W26074  12.230   4.730   3.617  0.0208  0.0852  0.0171
 7871W        W26075   7.265  10.148   1.549  0.1434  0.0725  0.2865
 7872W        W26076   1.669  16.544  15.320  0.0627 -0.2245  0.1453
 7873W        W26077  11.994  17.508  12.680  0.0128  0.3023  0.1286
 7874W        W26078  12.695   1.218   1.006  0.0474 -0.2983 -0.0505
 7875W        W26079  12.743   5.222   0.087 -0.2030 -0.0432 -0.0731
 7876W        W26080   5.250  14.365   1.428  0.0214 -0.2130  0.3723
 7877W        W26081   7.424   8.669  10.751 -0.1025  0.1055  0.1013
 7878W        W26082   2.789   6.701  11.763 -0.2024 -0.3912 -0.1370
 7879W        W26083  12.468   4.491  11.623 -0.0386  0.0666 -0.1257
 7880W        W26084   6.992   0.297   9.978 -0.0684  0.0497 -0.4093
 7881W        W26085   0.751  15.931  12.938  0.3666 -0.0143 -0.2427
 7882W        W26086   6.488  15.456   0.548  0.2428  0.0681  0.0640
 7883W        W26087   2.581  17.248  14.902  0.0678  0.1515  0.0609
 7884W        W26088  11.075  11.708   0.285  0.3596 -0.1559  0.0882
 7885W        W26089  14.081  13.898   2.311  0.1320 -0.2162 -0.0630
 7886W        W26090   6.308  15.842  13.223  0.0798  0.2020  0.0080
 7887W        W26091  18.088  12.118  12.714 -0.1362  0.1971 -0.1935
 7888W        W26092   3.393   9.014   1.071 -0.0561 -0.2346 -0.3345
 7889W        W26093  18.324  11.494  15.448  0.0553 -0.1185  0.0821
 7890W        W26094  13.553  13.336  15.001 -0.4257 -0.0996  0.1444
 7891W        W26095   6.784  12.501  11.349 -0.2392  0.0613 -0.1354
 7892W        W26096  10.598  11.981  10.935  0.2499  0.1350 -0.3973
 7893W        W26097  16.753  11.763   3.406  0.1291 -0.0220  0.0721
 7894W        W26098   4.749  10.612   5.552  0.1904  0.1085  0.1188
 7895W        W26099   6.229  17.688  14.701  0.1374  0.0317 -0.3161
 7896W        W26100  10.444  13.930   1.023  0.0434  0.0124 -0.1789
 7897W        W26101   8.699   4.370   0.130 -0.1880 -0.0068  0.2011
 7898W        W26102  17.600   3.938   1.686 -0.0418 -0.0218  0.2018
 7899W        W26103   6.205  12.901  12.558  0.1824 -0.0251 -0.3993
 7900W        W26104   0.591  10.711  12.524 -0.0194  0.0577 -0.1656
 7901W        W26105  12.468  11.077  14.825  0.3165  0.1679  0.4545
 7902W        W26106  15.897   9.092  15.334 -0.1466 -0.1266 -0.4084
 7903W        W26107   4.623  17.273   4.515 -0.1182  0.4226 -0.0575
 7904W        W26108   1.860  14.824   4.538  0.2264 -0.2893  0.1196
 7905W        W26109   9.883   4.888  12.548  0.0846  0.1887  0.0937
 7906W        W26110   8.370  13.031  11.827  0.1701 -0.1264  0.0437
 7907W        W26111   5.838   9.269   2.947  0.0658  0.1551  0.0069
 7908W        W26112   0.486   2.047   2.745  0.0529 -0.4584  0.0348
 7909W        W26113  11.892  11.587  13.242  0.0595 -0.3320  0.0072
 7910W        W26114   7.340  17.168  15.448  0.1209 -0.1196 -0.0292
 7911W        W26115  18.291   8.606   1.822 -0.1695  0.0826  0.2766
 7912W        W26116  13.228  14.546  15.256  0.0660  0.2294  0.2035
 7913W        W26117  15.400  10.872   2.031 -0.2132 -0.1880 -0.3712
 7914W        W26118   2.498   7.066   1.609  0.3059 -0.1479  0.3629
 7915W        W26119   2.278  14.364  14.041  0.0769 -0.0991  0.2955
 7916W        W26120  11.238   0.625   4.389 -0.0390 -0.0668 -0.2300
 7917W        W26121  11.083   3.695  12.905  0.0913 -0.2812 -0.0813
 7918W        W26122   2.052  11.700  15.501  0.2067 -0.0989  0.0317
 7919W        W26123  16.593  13.358  11.715  0.0099 -0.5500  0.1572
 7920W        W26124  13.889  16.664   1.511  0.2710  0.1497 -0.2348
 7921W        W26125   9.788   6.513  11.709 -0.0711  0.0063  0.0901
 7922W        W26126  10.825  12.061   1.293  0.3102  0.0678  0.1949
 7923W        W26127   8.612   7.040   0.922  0.0798  0.0942 -0.1864
 7924W        W26128   5.138  16.171  11.234 -0.1258 -0.3260  0.2603
 7925W        W26129  13.376   1.662  10.959  0.1614  0.1040  0.0773
 7926W        W26130  16.387   7.839   0.360 -0.1182  0.2385 -0.0521
 7927W        W26131  14.674   2.732  15.298  0.0729 -0.2990  0.2580
 7928W        W26132   4.110   3.068  12.304  0.0027 -0.0520  0.1465
 7929W        W26133  14.979   8.089   4.658 -0.4170  0.2807 -0.1225
 7930W        W26134  11.525  10.240  12.170 -0.0585  0.1158  0.1432
 7931W        W26135  17.780   6.734  15.118 -0.1137  0.2557 -0.1951
 7932W        W26136   6.080   9.995  12.453  0.0500  0.1045  0.0903
 7933W        W26137  17.789  14.651  11.776 -0.0254  0.1267 -0.3154
 7934W        W26138   0.287  11.744   0.735  0.0189  0.2024  0.1886
 7935W        W26139   0.525  15.391   0.593 -0.1607 -0.2344 -0.0269
 7936W        W26140  10.663   0.830   2.726 -0.2621 -0.2575  0.1443
 7937W        W26141   3.267   9.325  15.195 -0.0782  0.3278 -0.0246
 7938W        W26142   0.835   8.723   9.951  0.0958  0.0118 -0.0674
 7939W        W26143  17.629   7.285  12.734 -0.0617  0.1981 -0.0953
 7940W        W26144   0.633  14.065   3.006  0.1552 -0.2092  0.2779
 7941W        W26145  18.230   6.623   0.968 -0.1333  0.2761  0.2022
 7942W        W26146   9.433   9.152   0.169  0.0198  0.3490  0.2867
 7943W        W26147   1.250  12.152  13.778  0.2881  0.1460 -0.0021
 7944W        W26148  14.821   8.078   0.340 -0.0110 -0.1396 -0.0295
 7945W        W26149  15.476   0.300   3.842 -0.0451 -0.0637 -0.1055
 7946W        W26150  17.487   6.588   2.916 -0.1840 -0.2222  0.0379
 7947W        W26151   2.040  16.344   1.213  0.0734  0.1005  0.0499
 7948W        W26152   5.139   6.205  12.793  0.0288  0.0118 -0.1075
 7949W        W26153  12.988   4.132  12.084 -0.3374  0.0392  0.0148
 7950W        W26154   5.695   7.758   4.167 -0.0713 -0.1375 -0.0554
 7951W        W26155   0.028   8.128  11.209 -0.0064 -0.0712 -0.1812
 7952W        W26156  18.154  15.086  15.282 -0.2455  0.1264 -0.1886
 7953W        W26157   0.724   6.109  10.836  0.0826  0.3747  0.1823
 7954W        W26158  15.636  10.296  14.390 -0.1027 -0.2153  0.1001
 7955W        W26159   8.374  12.792   1.221 -0.0719  0.0000  0.1031
 7956W        W26160   0.354  11.506   1.195  0.1859  0.0135  0.0648
 7957W        W26161  11.978  16.131  14.656  0.1287  0.3018  0.2646
 7958W        W26162   0.160  10.027  15.162 -0.0739  0.4210 -0.0103
 7959W        W26163  16.360   7.240   4.048 -0.4419  0.0747  0.0166
 7960W        W26164   8.785   1.838  14.638 -0.0590  0.1078 -0.2648
 7961W        W26165   1.561  16.287   0.434 -0.1506  0.2960  0.2077
 7962W        W26166   9.055  10.026   0.233  0.0049  0.0186 -0.1256
 7963W        W26167   8.246  11.185  15.540  0.1108 -0.0213 -0.1413
 7964W        W26168   8.456  12.650   3.176 -0.1438 -0.0135 -0.3160
 7965W        W26169   1.412  14.064   1.155 -0.3144  0.0237  0.0716
 7966W        W26170   3.138   3.088  15.666  0.0645 -0.1072  0.1056
 7967W        W26171   9.523   7.917   0.010 -0.1147  0.1234 -0.1840
 7968W        W26172   1.654   9.310   3.580  0.0847 -0.0251 -0.1184
 7969W        W26173   5.953  16.909  13.082  0.2236  0.2646  0.4839
 7970W        W26174  10.463   4.586  14.068 -0.0587 -0.2836  0.3027
 7971W        W26175   9.871   5.286   0.708 -0.2868  0.1597 -0.0166
 7972W        W26176   1.026   7.984   3.880 -0.3915 -0.1455 -0.3463
 7973W        W26177   6.648   4.996  11.171 -0.1674 -0.1856  0.0960
 7974W        W26178  16.487   0.394   3.712  0.1087 -0.0427 -0.0193
 7975W        W26179   3.872   5.598   2.820  0.0443 -0.0485 -0.0881
 7976W        W26180   2.606   6.281   0.639 -0.4167 -0.0475  0.2715
 7977W        W26181   7.258   4.541  12.685  0.1920  0.1939  0.2191
 7978W        W26182   0.890   2.807  11.610 -0.0662 -0.1154  0.2246
 7979W        W26183  12.351   3.222  13.000  0.0058 -0.1357 -0.0468
 7980W        W26184   7.068   5.782  11.880 -0.1258  0.0618  0.0637
 7981W        W26185  11.333   4.460  14.555 -0.2440 -0.1398  0.0171
 7982W        W26186   2.529   1.215   3.467 -0.1419  0.2114  0.3432
 7983W        W26187  17.139  10.694   0.103 -0.0522 -0.0767 -0.1164
 7984W        W26188   6.657  12.067   0.218 -0.2761 -0.1686 -0.0449
 7985W        W26189   0.354  13.250  14.975 -0.0055  0.2180 -0.0966
 7986W        W26190   2.014  10.011  11.691 -0.0890  0.1021 -0.0612
 7987W        W26191  14.207   5.229  13.223 -0.0688 -0.4825  0.0044
 7988W        W26192  17.313  15.498  14.620 -0.1197  0.0990  0.2332
 7989W        W26193   0.802  12.563   1.943 -0.1402  0.0909 -0.0170
 7990W        W26194   7.799   6.845   0.151 -0.1411  0.1981  0.1977
 7991W        W26195   4.022   6.630   1.895 -0.0292 -0.1091  0.0601
 7992W        W26196   3.647   6.572  14.706  0.0053 -0.0961 -0.1324
 7993W        W26197  18.160   1.110  13.849 -0.2187  0.0809 -0.2482
 7994W        W26198   0.136  18.068  10.955 -0.0683  0.2186  0.1211
 7995W        W26199   9.077   6.806  15.470  0.0484  0.2283 -0.5805
 7996W        W26200   4.839   8.857   2.823  0.0140  0.2165 -0.0383
 7997W        W26201   7.321   7.700  12.213  0.3463 -0.1644  0.1021
 7998W        W26202   1.669   6.818  10.431  0.3069  0.1514  0.1131
 7999W        W26203   9.836   2.708   4.370  0.0319  0.0569  0.1139
 8000W        W26204  13.306  16.168   0.154 -0.0956  0.1666 -0.2856
 8001W        W26205  10.452  12.526  14.181 -0.0099 -0.0544  0.2027
 8002W        W26206   2.660   0.601   3.274 -0.0414 -0.1789 -0.1240
 8003W        W26207  16.263   8.276  14.657 -0.0165 -0.1194  0.2058
 8004W        W26208  14.999  17.391  13.892  0.0770 -0.1655 -0.1756
 8005W        W26209   9.620  12.446   1.523  0.1798 -0.1130  0.0221
 8006W        W26210   3.893  15.191   3.710 -0.3343  0.2408  0.0917
 8007W        W26211  12.102  15.615  11.060  0.2551  0.0865 -0.0556
 8008W        W26212  15.279  14.343  14.215 -0.1421 -0.2025  0.3313
 8009W        W26213  12.104   1.771   2.227 -0.0303  0.0583  0.0569
 8010W        W26214   5.158   3.247   1.087  0.1439  0.1807  0.1603
 8011W        W26215  16.053  14.445  13.106 -0.2127 -0.0369 -0.0910
 8012W        W26216  10.808  13.197   0.349  0.1284 -0.1736  0.4265
 8013W        W26217   1.723   5.171  13.908 -0.1736  0.1563  0.2084
 8014W        W26218   1.789  18.307   2.601  0.0935 -0.4623 -0.1068
 8015W        W26219  10.024   6.313  14.166 -0.0160 -0.0226  0.0185
 8016W        W26220  10.360  16.094   0.388  0.0819  0.0696  0.1020
 8017W        W26221  16.082   6.155   4.062  0.0295 -0.0102  0.1664
 8018W        W26222   9.237   3.150  11.901 -0.0685  0.1155 -0.1576
 8019W        W26223   6.959  15.753   2.456  0.0900  0.0139  0.1081
 8020W        W26224   4.979   7.683   4.854  0.3274 -0.0438  0.0594
 8021W        W26225   7.107  17.430  11.917  0.4249 -0.2452  0.0693
 8022W        W26226  16.932   2.710   2.261 -0.0307 -0.0852  0.0090
 8023W        W26227   9.228   1.454   0.497  0.1694 -0.1622  0.1844
 8024W        W26228   3.721  16.985   1.645 -0.0598  0.2076 -0.1540
 8025W        W26229   8.450  18.166   1.933  0.2736  0.2747  0.0870
 8026W        W26230  10.960   2.737   3.533 -0.3002 -0.3440  0.0571
 8027W        W26231  15.649  16.340  11.445  0.0941 -0.1084 -0.4087
 8028W        W26232  14.466  12.263   1.612  0.4350  0.1330  0.4591
 8029W        W26233  16.971  10.792   0.604  0.0835 -0.2500  0.1499
 8030W        W26234  13.018   0.724   1.412 -0.0059  0.2638 -0.0230
 8031W        W26235   0.215  15.029   4.001 -0.2372  0.2410  0.0135
 8032W        W26236  13.388  10.327   2.342 -0.2087  0.2746  0.1632
 8033W        W26237   1.020   6.047  11.335  0.0751 -0.2679 -0.2881
 8034W        W26238  10.681   8.884   5.411 -0.1969  0.2051 -0.0329
 8035W        W26239   8.962  12.307  13.906  0.0438  0.0578  0.1291
 8036W        W26240   3.959   5.012  11.168  0.0891  0.2003  0.2914
 8037W        W26241  16.222   5.495   3.915  0.0598  0.2783 -0.0652
 8038W        W26242   0.262   4.682   1.592  0.2398  0.0696  0.4028
 8039W        W26243  13.075   7.782  14.066  0.2704 -0.0990 -0.1455
 8040W        W26244   6.462  12.730  14.076  0.0692  0.2644 -0.2558
 8041W        W26245  13.547  11.218   0.567 -0.0364  0.2881 -0.0090
 8042W        W26246  12.752   3.513   3.416  0.0106 -0.0309 -0.3700
 8043W        W26247  17.502   0.361  11.700  0.1382 -0.0165 -0.0031
 8044W        W26248  14.269   5.186   1.499 -0.1233 -0.1698 -0.2091
 8045W        W26249  11.175  12.490  14.688  0.1140  0.1458 -0.1226
 8046W        W26250   9.605  10.330  12.045 -0.0580 -0.0113  0.1399
 8047W        W26251   0.359  15.933   1.443 -0.2279 -0.3404  0.0966
 8048W        W26252   3.555  15.789  12.346 -0.1924 -0.0263  0.0814
 8049W        W26253   5.122  10.540   3.921 -0.1289  0.2046  0.1144
 8050W        W26254   6.007  12.638   4.473  0.1576 -0.0282 -0.0112
 8051W        W26255  12.123  11.949  11.392 -0.1580  0.0155 -0.0762
 8052W        W26256  15.913  11.374  11.566  0.1649 -0.2000 -0.0006
 8053W        W26257  12.551  12.875   2.684  0.1350 -0.3130 -0.1160
 8054W        W26258  18.003   0.134   2.373  0.1213 -0.1441 -0.0961
 8055W        W26259   5.210   6.893  15.354 -0.5502 -0.1200 -0.0163
 8056W        W26260   8.065  16.948   0.135 -0.0366 -0.0025 -0.0552
 8057W        W26261  12.893  10.657  12.458  0.1703  0.0833 -0.1439
 8058W        W26262   4.968  13.635  14.581 -0.1853 -0.1790  0.1420
 8059W        W26263  11.319  10.497   1.693 -0.1045 -0.0079  0.1962
 8060W        W26264   0.947   0.531   1.842 -0.1899 -0.0370  0.1363
 8061W        W26265   2.301  15.869  13.929  0.1195  0.0910  0.0300
 8062W        W26266  14.150   8.262   4.336 -0.0668  0.1008  0.2596
 8063W        W26267  16.452   2.603   3.395 -0.0324  0.1888  0.2847
 8064W        W26268   5.751   1.575   4.128  0.1280  0.1918  0.2139
 8065W        W26269  13.064   7.458  11.719 -0.0206 -0.0632  0.0962
 8066W        W26270   9.172  17.398  14.256 -0.0656 -0.3693  0.0863
 8067W        W26271   2.804  15.481   2.663  0.0940 -0.1084  0.0700
 8068W        W26272  13.620  12.865  12.286  0.0806 -0.2003 -0.0865
 8069W        W26273   9.020  16.433  14.098  0.4415  0.0540 -0.4022
 8070W        W26274  13.352  15.194   0.693 -0.2047 -0.0857 -0.1303
 8071W        W26275  14.968   9.862   4.226  0.0343  0.0130  0.2318
 8072W        W26276   5.035  15.357   4.649  0.0128  0.0501 -0.1960
 8073W        W26277   6.660  11.150   2.446 -0.1559  0.4726 -0.1367
 8074W        W26278  11.448  13.719  13.217 -0.0643  0.1996 -0.0875
 8075W        W26279  17.535  17.627   0.650 -0.4075 -0.0578  0.0492
 8076W        W26280   8.037   5.701   4.234 -0.2149  0.2567 -0.1936
 8077W        W26281   1.782   5.889  13.709  0.1081 -0.1513  0.1451
 8078W        W26282  10.145  11.152  11.154 -0.2074  0.0184  0.0875
 8079W        W26283  13.269   6.231   0.600  0.2289 -0.2770  0.0220
 8080W        W26284   0.268   6.796  15.002  0.2673  0.0141 -0.0716
 8081W        W26285   5.607   4.455   0.844  0.2648 -0.0194  0.1682
 8082W        W26286  18.363   1.701  15.271 -0.0314 -0.1024 -0.5633
 8083W        W26287   1.274  13.915  13.882  0.0090 -0.0567 -0.2092
 8084W        W26288  13.062  13.684   0.117  0.2221 -0.0073 -0.0671
 8085W        W26289   8.800   1.590   9.847  0.1925 -0.0031  0.3353
 8086W        W26290   6.850   5.719   3.758 -0.2077 -0.1608  0.2444
 8087W        W26291  13.929   1.905  13.843  0.0381  0.1406  0.2405
 8088W        W26292   3.220   7.340  10.111  0.0853  0.0111 -0.0978
 8089W        W26293   4.477   7.634  11.148 -0.0011  0.0371 -0.2667
 8090W        W26294   4.226  13.277  13.334 -0.1012  0.3867  0.3660
 8091W        W26295   2.917  10.910  12.113  0.0995 -0.0657 -0.4067
 8092W        W26296  15.347  16.939  12.542 -0.0827  0.0115 -0.1618
 8093W        W26297  12.598  11.384  11.786  0.0601  0.0366 -0.0892
 8094W        W26298  13.989   3.716   9.963 -0.1401 -0.0197 -0.1017
 8095W        W26299   0.434  13.151   1.605  0.1241 -0.0013 -0.0567
 8096W        W26300   4.991  12.545  12.638 -0.3583 -0.1786  0.0691
 8097W        W26301   1.692  11.049  12.320  0.0957 -0.0789  0.0443
 8098W        W26302   1.474   6.705   0.452 -0.0136 -0.0271 -0.3049
 8099W        W26303   6.564  13.550  12.933 -0.0944  0.2153 -0.0325
 8100W        W26304   5.480  11.885  15.466  0.3235 -0.2372  0.0662
 8101W        W26305  12.927   4.329   3.071  0.1719 -0.1844 -0.0865
 8102W        W26306  14.851  11.762   3.173 -0.1213 -0.0118 -0.0500
 8103W        W26307  17.844   5.965   4.568  0.3901  0.0874  0.1213
 8104W        W26308   4.943   3.673  15.133 -0.1912  0.2044 -0.0268
 8105W        W26309  12.533   4.345  12.452 -0.0240 -0.2908 -0.1946
 8106W        W26310   4.856   4.153   1.249 -0.1670  0.0334  0.2465
 8107W        W26311   8.859   2.005   3.853 -0.1701 -0.0333 -0.0023
 8108W        W26312  16.212   7.735  15.604  0.1256  0.0077 -0.2027
 8109W        W26313   8.119  15.552  14.933 -0.2683  0.2241 -0.3682
 8110W        W26314   1.719   0.482  14.879  0.1113 -0.0760  0.3858
 8111W        W26315   6.860  10.931   3.322 -0.1026  0.0155  0.1181
 8112W        W26316  11.544   7.044  14.443  0.3178 -0.0116  0.0822
 8113W        W26317  14.613  14.565  14.907  0.0745  0.1367 -0.1696
 8114W        W26318  15.697   3.412   0.154  0.2053 -0.1034  0.1749
 8115W        W26319   9.269   3.869  13.893  0.2602  0.1382  0.0015
 8116W        W26320  17.007  15.508  14.121 -0.1698  0.2795 -0.2655
 8117W        W26321   6.649  14.431  12.878 -0.0703  0.1671  0.1304
 8118W        W26322  18.001  10.290   1.107  0.2638  0.3272  0.0861
 8119W        W26323  15.833   3.029   4.668 -0.3797  0.1793  0.0340
 8120W        W26324   5.215   7.218  11.135  0.0589 -0.0944 -0.0477
 8121W        W26325  11.736  12.879  13.795  0.2201  0.0473  0.0356
 8122W        W26326   7.260  10.374  14.839  0.1325 -0.0262 -0.1806
 8123W        W26327  16.222   7.970   2.544 -0.0886 -0.2108 -0.1045
 8124W        W26328  12.498  16.947  15.305 -0.0155  0.3103  0.3828
 8125W        W26329   7.240  16.975   3.751 -0.0483  0.1588  0.0729
 8126W        W26330   9.463   5.538   1.962 -0.2492 -0.1910  0.1124
 8127W        W26331   8.270  12.341   0.207  0.2048  0.3360  0.0518
 8128W        W26332   8.615   8.704  14.940 -0.3159 -0.0445  0.0341
 8129W        W26333  18.076   3.351  14.080 -0.1233  0.3942  0.1998
 8130W        W26334  16.176  16.438   4.143  0.0213  0.0129 -0.3952
 8131W        W26335  11.764  15.098   1.364  0.0027  0.1276  0.0513
 8132W        W26336  17.173  14.502  13.316  0.1154 -0.0717  0.2265
 8133W        W26337  15.212  11.827  10.941  0.5119 -0.0780 -0.0351
 8134W        W26338   1.599   6.601   3.218  0.0600  0.2592  0.1169
 8135W        W26339   9.838   6.041   5.210  0.1584  0.0115  0.1074
 8136W        W26340   7.603   1.913  11.159 -0.3458 -0.0308 -0.1229
 8137W        W26341   0.639   8.590   1.718 -0.2483 -0.2058  0.0739
 8138W        W26342  16.237  14.164  12.170 -0.0650 -0.2517 -0.1184
 8139W        W26343   2.012  15.774  11.960  0.0796  0.1436 -0.1810
 8140W        W26344  14.115   3.020   4.439 -0.0395 -0.1848 -0.0175
 8141W        W26345  13.490   0.296   0.505  0.2062  0.2936 -0.2888
 8142W        W26346   9.320   6.880   1.470  0.1280 -0.1860 -0.2139
 8143W        W26347  15.827   2.036   4.466 -0.1945  0.1641  0.1828
 8144W        W26348   2.056   7.991   2.372  0.1925 -0.0450  0.1691
 8145W        W26349   2.732  11.234   5.412  0.3620 -0.1033  0.0586
 8146W        W26350  11.021   3.449   3.054 -0.0555 -0.0588  0.1264
 8147W        W26351   9.301  11.241  11.737  0.0672 -0.2320 -0.1627
 8148W        W26352  13.458  11.143  11.448 -0.3139 -0.1346 -0.0685
 8149W        W26353   4.682  10.808   0.351  0.0465 -0.1460  0.1854
 8150W        W26354  11.743   2.812   5.146 -0.0504 -0.0911 -0.2292
 8151W        W26355   1.881  16.740   0.863  0.2821  0.1250 -0.1307
 8152W        W26356   2.287   0.586  11.182 -0.2706  0.3026  0.0038
 8153W        W26357  17.035   3.196   2.236 -0.0624 -0.3329  0.0156
 8154W        W26358   0.951   2.267  12.496 -0.2301 -0.0717  0.0903
 8155W        W26359  18.029   7.880  10.844  0.1934 -0.0643  0.0532
 8156W        W26360   9.834   5.585   2.650  0.2306 -0.0809  0.4190
 8157W        W26361   2.455  17.435   1.383  0.1266 -0.0598 -0.0927
 8158W        W26362  13.264   3.553   0.277 -0.1223  0.1885 -0.0770
 8159W        W26363   9.838   8.849   0.218 -0.0960  0.0796  0.1931
 8160W        W26364  18.077   4.685  11.892  0.0935  0.1320 -0.1266
 8161W        W26365  17.430   8.180  13.650 -0.4534 -0.0049 -0.3943
 8162W        W26366  13.907   4.083  10.971  0.0360  0.2819 -0.2193
 8163W        W26367  14.347  17.932   1.511 -0.1617 -0.3099  0.0356
 8164W        W26368  10.338  16.101   4.589  0.1245 -0.0789 -0.0285
 8165W        W26369  18.179  15.083  14.232  0.4884 -0.2680  0.0646
 8166W        W26370  15.436  10.904  13.940  0.1539 -0.0219 -0.3261
 8167W        W26371   0.959  17.165   0.500  0.0570 -0.0807 -0.4042
 8168W        W26372   8.181   8.283  15.715 -0.5049  0.1251  0.1113
 8169W        W26373  13.710  13.558   2.134 -0.2469  0.0178 -0.1245
 8170W        W26374   3.360  11.085  11.556  0.1585 -0.2266  0.0052
 8171W        W26375  12.136  17.326   1.644 -0.3808 -0.1833 -0.2619
 8172W        W26376   2.909   3.518   2.193 -0.0253  0.0832  0.3123
 8173W        W26377  11.237   2.544  14.596  0.1531 -0.2681  0.1913
 8174W        W26378   8.850   4.688  11.067  0.2752  0.0180 -0.2307
 8175W        W26379  15.566  11.345   0.829 -0.3087 -0.0199 -0.1461
 8176W        W26380  14.454  10.973  11.171  0.1433 -0.0256 -0.1222
 8177W        W26381   5.339   3.053   4.474 -0.0944  0.1642 -0.1335
 8178W        W26382  14.025   4.107   0.726  0.0650 -0.1718  0.0566
 8179W        W26383   0.148  15.482   2.812 -0.1259  0.2366 -0.2430
 8180W        W26384   0.848  10.409  15.367 -0.2624 -0.0395  0.1631
 8181W        W26385  12.284  18.267  12.419  0.1786 -0.1313 -0.0633
 8182W        W26386  16.965   2.346  13.816  0.0938  0.0958 -0.3312
 8183W        W26387  10.783  10.119  11.364  0.0240  0.0119 -0.0123
 8184W        W26388   8.801  17.461  12.729  0.0931 -0.0750  0.1014
 8185W        W26389  17.517  15.397   0.103 -0.3348  0.0252  0.3600
 8186W        W26390  13.267   8.589  14.319 -0.1651 -0.1339 -0.0603
 8187W        W26391   4.066  11.579  10.210 -0.1876 -0.0833 -0.2313
 8188W        W26392  11.877   9.137  11.663  0.0240 -0.2630  0.0434
 8189W        W26393  15.844  16.531   1.492 -0.1588 -0.0753  0.3964
 8190W        W26394  15.884   8.349   2.570 -0.2160  0.0832  0.1549
 8191W        W26395  15.611  11.146   9.767  0.0633  0.1540  0.0094
 8192W        W26396  11.029   7.084  14.913 -0.3034 -0.0374  0.2690
 8193W        W26397   3.837  10.232   0.705 -0.0885  0.0606 -0.0419
 8194W        W26398  14.575   9.019  10.438  0.0578 -0.0619  0.0319
 8195W        W26399   7.635  16.367  14.718 -0.1361  0.1697  0.1753
 8196W        W26400   7.865  15.051  12.344 -0.1539 -0.1269 -0.1842
 8197W        W26401   6.215  12.978   3.682  0.0801 -0.2404  0.0635
 8198W        W26402  13.454   3.551   2.727  0.1649  0.2980 -0.0729
 8199W        W26403   2.037   0.686  12.192  0.0297  0.1357 -0.0156
 8200W        W26404   3.825   5.236   0.546 -0.1740  0.0755 -0.0940
 8201W        W26405   1.041   7.900   4.410  0.0989  0.2644  0.2400
 8202W        W26406   2.212   0.441   4.035 -0.2889  0.1141  0.0132
 8203W        W26407   7.226  16.104   0.636 -0.0583 -0.4620 -0.0555
 8204W        W26408  14.319  18.213  11.095 -0.1174 -0.1948  0.1793
 8205W        W26409   9.853   8.166  11.530  0.1112  0.1636  0.2844
 8206W        W26410   5.443   8.074  11.481 -0.0204  0.0490 -0.3257
 8207W        W26411  11.162  13.543  14.684 -0.0078  0.0360 -0.0561
 8208W        W26412   3.759   0.770   4.149  0.0148 -0.1028  0.2016
 8209W        W26413   1.234   2.375   2.371  0.2099 -0.0114 -0.0939
 8210W        W26414   7.917  15.427  15.451  0.0508 -0.0297  0.0858
 8211W        W26415  10.073  12.753   4.172 -0.1542 -0.2705  0.1274
 8212W        W26416   5.100  16.550   1.065  0.1459  0.0064 -0.1282
 8213W        W26417  18.240  10.732   1.243  0.0619  0.2823  0.1357
 8214W        W26418   6.816   6.360   2.233 -0.0003 -0.1420  0.0806
 8215W        W26419  11.280   6.600   4.107  0.0289  0.0358 -0.2600
 8216W        W26420   5.582  16.133   1.199 -0.0396  0.0649  0.1629
 8217W        W26421   8.926   9.520   3.206 -0.0324 -0.0414 -0.0481
 8218W        W26422   4.767  13.858   0.059  0.0878  0.0253 -0.2247
 8219W        W26423   0.421   6.201   5.126  0.4441  0.2347  0.1599
 8220W        W26424   8.941  12.628  12.338 -0.1153 -0.0507  0.0829
 8221W        W26425   5.318   7.617  13.972 -0.1261 -0.0257  0.3898
 8222W        W26426   8.026  15.081  12.854 -0.3299  0.0824 -0.1408
 8223W        W26427  17.500   3.287  12.410  0.0611 -0.0899 -0.2450
 8224W        W26428   6.099   9.284  15.094 -0.0423  0.2556 -0.3025
 8225W        W26429  12.887   7.812  11.404 -0.0009  0.2968  0.0253
 8226W        W26430  11.167  12.384  13.127 -0.1881  0.0753 -0.3399
 8227W        W26431   8.622  15.592   2.514 -0.3247 -0.1813  0.1561
 8228W        W26432  15.715   0.914   4.197  0.1826  0.3934 -0.1734
 8229W        W26433   8.452  16.531   1.580  0.0075 -0.3284 -0.0497
 8230W        W26434  11.323   3.161   5.225 -0.0806  0.6776  0.2297
 8231W        W26435   0.914   5.468   3.480 -0.1512  0.0105  0.0364
 8232W        W26436   7.239   7.014  15.100  0.1876 -0.1013  0.0773
 8233W        W26437   0.834  14.325  13.633 -0.0834 -0.0965 -0.2248
 8234W        W26438   6.029   0.073  14.007  0.0961 -0.2721 -0.2957
 8235W        W26439  15.233   3.252   0.402 -0.1350  0.1731 -0.1320
 8236W        W26440   5.987  14.253  10.783 -0.1021  0.1249  0.0240
 8237W        W26441  11.049  15.327  12.573 -0.0946 -0.0991  0.0391
 8238W        W26442  16.264  17.525  11.812  0.0971  0.0426  0.0870
 8239W        W26443   9.575   8.275  15.387 -0.3478 -0.0136  0.0829
 8240W        W26444  10.179   1.271  12.168 -0.1171  0.1181 -0.0081
 8241W        W26445   0.793  17.666   1.397 -0.2338  0.1187 -0.1009
 8242W        W26446  16.346   0.304   2.327  0.0306 -0.1107 -0.0215
 8243W        W26447   9.466  10.242   5.510 -0.1056 -0.0362 -0.2255
 8244W        W26448   2.883  15.917   0.085 -0.1278  0.0629  0.1055
 8245W        W26449   1.277   2.148   5.509 -0.0510  0.0721  0.2277
 8246W        W26450   5.447  13.697  14.497  0.2081 -0.0365  0.1905
 8247W        W26451   3.349   5.635   2.162 -0.0066  0.0120 -0.2156
 8248W        W26452   9.249  18.056  11.208 -0.1051  0.0161  0.1242
 8249W        W26453  15.183   0.353  14.552  0.0022  0.2419 -0.0280
 8250W        W26454  17.886   8.863   1.474  0.0633 -0.0787 -0.0004
 8251W        W26455  12.082  15.795  14.287 -0.3001 -0.0968 -0.2064
 8252W        W26456   7.672  15.770   1.652 -0.1086  0.4403  0.0295
 8253W        W26457   6.461   3.467   0.673 -0.2457  0.0550  0.1368
 8254W        W26458  18.069  18.210  11.244 -0.0209  0.0842 -0.2439
 8255W        W26459  12.221   0.881   3.258 -0.0911 -0.1788 -0.3327
 8256W        W26460  10.925   5.930  14.388 -0.1886 -0.2737  0.0822
 8257W        W26461   2.966  18.044   3.574 -0.1904  0.2172  0.3782
 8258W        W26462  10.235  10.333  14.733  0.1379  0.3509 -0.0823
 8259W        W26463   4.322   9.327   1.900  0.2611 -0.0034 -0.1179
 8260W        W26464   1.631  13.135  12.486 -0.1185  0.0022  0.2004
 8261W        W26465   7.092   8.964  12.362 -0.0009 -0.0890 -0.0978
 8262W        W26466   7.088  12.191  15.656 -0.1227 -0.1374  0.1326
 8263W        W26467   6.884  17.766   0.073  0.3165  0.5411  0.0232
 8264W        W26468   2.616  18.359  11.756 -0.1017 -0.2830  0.0583
 8265W        W26469   4.101   9.619  10.389 -0.1028  0.1237 -0.1242
 8266W        W26470  10.188   8.693  15.176 -0.2295 -0.0687  0.2768
 8267W        W26471  16.988   9.033   0.050 -0.0346 -0.0736  0.1929
 8268W        W26472  10.039   2.015  14.277 -0.2044  0.1736  0.1863
 8269W        W26473   5.997   8.222  15.271  0.1696 -0.1604  0.1123
 8270W        W26474  14.236  13.750   5.788  0.2892 -0.2442  0.1329
 8271W        W26475  17.494   5.187   4.098  0.1113 -0.0955 -0.1274
 8272W        W26476  17.682  17.996  12.888 -0.1395  0.4034 -0.5154
 8273W        W26477   2.026   6.299  12.036 -0.0102 -0.0103 -0.0415
 8274W        W26478   9.744  12.176   2.765  0.0921  0.0997  0.1442
 8275W        W26479   6.788  11.227   3.791  0.1653 -0.0426 -0.5095
 8276W        W26480   5.273   1.178  14.142  0.0071  0.1249 -0.0683
 8277W        W26481  11.650  12.422  14.973 -0.0543 -0.0102  0.1257
 8278W        W26482  14.362   4.144   2.371  0.3183 -0.2134 -0.3222
 8279W        W26483  12.273   1.569  10.020 -0.1281 -0.3854  0.0449
 8280W        W26484  13.704  14.251  13.546  0.4090 -0.0314 -0.3767
 8281W        W26485  17.941   8.621   3.394  0.0293  0.2619 -0.0029
 8282W        W26486   2.816   3.783   2.703 -0.0071  0.0952  0.1744
 8283W        W26487  15.723   9.560  15.397 -0.3025  0.0998 -0.2488
 8284W        W26488   6.470   8.272  15.287  0.1753  0.0657 -0.0664
 8285W        W26489  10.623   5.777   1.216 -0.1798 -0.0209 -0.0204
 8286W        W26490   5.635   7.733   3.451  0.0140  0.4559  0.3001
 8287W        W26491   0.286  10.829  11.462 -0.2390  0.0064 -0.0002
 8288W        W26492   2.889  11.369  10.984  0.1871 -0.0085 -0.1259
 8289W        W26493   6.902  13.498   2.371  0.2945  0.0355  0.1226
 8290W        W26494   7.639   7.659   3.752  0.2728  0.0058 -0.0072
 8291W        W26495  13.777   3.991   2.769  0.2144  0.0031 -0.0498
 8292W        W26496   6.230   8.899   5.239 -0.1216 -0.1438  0.0667
 8293W        W26497   8.074  15.802   0.829  0.1313  0.0091  0.1718
 8294W        W26498   2.927   6.515  15.480  0.0949  0.0541  0.1293
 8295W        W26499   8.721   2.819  11.110 -0.1276  0.0205  0.1727
 8296W        W26500  10.457   3.331   4.310 -0.0366  0.1276 -0.0080
 8297W        W26501   0.818  12.510   0.373  0.0962  0.1412 -0.1503
 8298W        W26502   3.472   3.424  11.184 -0.1765  0.0375  0.0384
 8299W        W26503   4.830   7.555  15.220  0.0046  0.0190  0.0872
 8300W        W26504   3.682  16.428   1.594  0.0159  0.4044  0.3169
 8301W        W26505   9.681   4.389  15.443 -0.0564 -0.1200 -0.0295
 8302W        W26506   3.258   7.673   1.411  0.0246  0.0179 -0.4377
 8303W        W26507   7.653   3.550  11.016 -0.0586  0.0309 -0.0555
 8304W        W26508  12.505  16.537  12.604 -0.3005 -0.2193  0.4068
 8305W        W26509  11.643   8.105   2.037  0.0507 -0.0824 -0.0266
 8306W        W26510   2.568   2.550   2.212  0.0043  0.2152 -0.0706
 8307W        W26511  15.677  12.557  13.693 -0.2325 -0.2158 -0.3299
 8308W        W26512   1.985  12.035  11.859 -0.3069  0.2199  0.1715
 8309W        W26513   8.913  11.423  12.924  0.1018  0.0712  0.0656
 8310W        W26514   9.199  10.767  14.649  0.1577  0.2632 -0.2493
 8311W        W26515  16.316   6.978  12.871 -0.0636  0.1539 -0.1517
 8312W        W26516   3.429   9.856  15.310 -0.3231  0.1556  0.1848
 8313W        W26517   8.425   2.097  14.990  0.1883  0.0405  0.1763
 8314W        W26518   4.196  15.076  11.418  0.1617 -0.0828  0.2015
 8315W        W26519  11.384   1.953   3.167  0.3192  0.2760  0.2129
 8316W        W26520   7.379   6.517  11.457 -0.1138 -0.3491 -0.0406
 8317W        W26521  15.961   6.862   1.148  0.4006  0.1560 -0.1644
 8318W        W26522   8.180   3.058  11.982  0.1646 -0.1226 -0.4208
 8319W        W26523   6.267  11.569   2.424  0.0015 -0.0283  0.1828
 8320W        W26524   8.136  12.828   3.504 -0.1582 -0.1929  0.1205
 8321W        W26525   4.564  13.219   0.553  0.0491 -0.1006 -0.3296
 8322W        W26526   0.440  17.776   0.055  0.0171  0.4259 -0.1476
 8323W        W26527   1.525  17.806   0.224  0.0101 -0.1588  0.1154
 8324W        W26528  15.880   5.904  13.391 -0.3444  0.0323 -0.1837
 8325W        W26529   7.136  10.284  15.506 -0.1001  0.0471  0.2282
 8326W        W26530   1.312   9.955  12.287 -0.0625 -0.0242  0.1757
 8327W        W26531   1.223   8.314   1.535 -0.1490 -0.1643 -0.0074
 8328W        W26532  15.497  10.733  12.344  0.2303  0.0643  0.0226
 8329W        W26533   2.612  17.907   2.014 -0.0810 -0.0096  0.2574
 8330W        W26534   6.348   6.739  14.211 -0.0807  0.0995 -0.0299
 8331W        W26535  15.363  13.282   3.063 -0.0068 -0.1129 -0.0938
 8332W        W26536   5.226   0.259  10.599  0.1958  0.0190 -0.0699
 8333W        W26537  13.542  15.002  12.187 -0.3006  0.1692 -0.3175
 8334W        W26538  12.376   2.781  12.772 -0.0541 -0.1303  0.0225
 8335W        W26539  13.582   9.122   3.315  0.0223  0.1972  0.0291
 8336W        W26540   0.241  12.437   0.994 -0.2368  0.0887 -0.0806
 8337W        W26541  11.833  16.031   0.449  0.1045 -0.0653 -0.0995
 8338W        W26542   3.557   2.849  15.399 -0.0419 -0.1585 -0.0147
 8339W        W26543  13.659   2.771   3.953 -0.0236 -0.4114 -0.0023
 8340W        W26544   9.106  10.435  11.930  0.1118  0.0967 -0.1631
 8341W        W26545   5.786  11.588   2.880  0.1428 -0.4283  0.0650
 8342W        W26546   5.532  15.110   3.219 -0.0731  0.5388  0.0812
 8343W        W26547   9.127   9.078   0.573 -0.2589  0.0847 -0.0547
 8344W        W26548   1.204   2.058   2.734  0.1762  0.1298  0.2917
 8345W        W26549  11.016  12.071  12.791  0.0991 -0.1065  0.2340
 8346W        W26550   6.507   0.208  12.592  0.2079 -0.2189 -0.0793
 8347W        W26551   1.087  11.626   0.294 -0.1880 -0.4373  0.0741
 8348W        W26552   2.230  17.907   2.788 -0.0961  0.1738  0.0442
 8349W        W26553   1.119  15.333  12.977  0.0191  0.0713  0.2338
 8350W        W26554   4.042  15.757   2.205  0.0689  0.0702  0.2097
 8351W        W26555   7.261   1.203   1.894 -0.1507  0.1185  0.2073
 8352W        W26556   2.248  10.483  12.453  0.1881 -0.0953 -0.1316
 8353W        W26557   8.691  17.021   0.532  0.1480  0.0683 -0.1535
 8354W        W26558   5.362   3.142   1.526 -0.3213  0.0004 -0.0639
 8355W        W26559   8.980   6.452  14.178 -0.0466 -0.3297  0.0994
 8356W        W26560   9.372   5.398   1.040  0.0558 -0.1258 -0.0196
 8357W        W26561  14.766   2.275  11.952  0.2101  0.0627  0.4976
 8358W        W26562  11.131   4.020  11.941 -0.0054  0.3538  0.3660
 8359W        W26563   8.425   3.471  13.282  0.2394  0.1799 -0.2410
 8360W        W26564   3.608  13.312  11.454 -0.0610  0.1429 -0.0663
 8361W        W26565   3.038  15.367  11.618 -0.0281  0.2264 -0.2457
 8362W        W26566   5.325   0.180  15.551  0.3010 -0.1074 -0.0790
 8363W        W26567   1.735   7.513   0.596  0.2119  0.0756 -0.5118
 8364W        W26568  10.583   6.693  12.691  0.0901  0.2249  0.0070
 8365W        W26569   1.411   1.157   3.985  0.0795  0.0487  0.0746
 8366W        W26570   9.475  17.931  12.152  0.0107  0.0370  0.3187
 8367W        W26571   8.945   1.473   1.682 -0.0971 -0.1189  0.0847
 8368W        W26572  10.933   8.396   3.332 -0.0919 -0.2465  0.0565
 8369W        W26573   7.337   3.819   0.332 -0.3808  0.0264 -0.1105
 8370W        W26574   1.154  12.847   0.274 -0.1789 -0.1297  0.0253
 8371W        W26575  15.810   0.342   5.190 -0.2211  0.0872 -0.2940
 8372W        W26576  11.326  15.793  12.446 -0.0972  0.3433  0.0327
 8373W        W26577  15.978  14.258  15.346  0.0977  0.0486 -0.0619
 8374W        W26578  17.104  14.677  14.675 -0.1121 -0.0074 -0.1123
 8375W        W26579  12.464  11.656  13.545  0.1386 -0.3207 -0.0834
 8376W        W26580   4.437  11.885  11.240  0.2475 -0.1192  0.0243
 8377W        W26581   2.082  10.284  12.941 -0.0964  0.2262 -0.0184
 8378W        W26582  15.918   4.343   2.921  0.4129  0.0106  0.2330
 8379W        W26583   7.754   8.697   0.471 -0.0993 -0.0469 -0.0954
 8380W        W26584   2.484   5.540  10.833  0.1024  0.1785  0.2756
 8381W        W26585  11.990   4.883   0.363 -0.0318 -0.3096 -0.0922
 8382W        W26586  15.636   0.366  12.662 -0.0534  0.0316 -0.2148
 8383W        W26587  15.826   3.522  15.372  0.1496  0.1094 -0.3262
 8384W        W26588   6.983   1.183   2.807  0.3035  0.1782  0.2056
 8385W        W26589   3.002  15.930   0.545  0.0704 -0.0029 -0.0224
 8386W        W26590   4.308  12.925  14.977  0.0895  0.0241  0.1042
 8387W        W26591   6.767  16.373  14.893 -0.1216 -0.4597 -0.0512
 8388W        W26592  15.431   2.128   4.108  0.2174 -0.0355 -0.0139
 8389W        W26593  17.976   5.471  14.325 -0.0283  0.1827 -0.2376
 8390W        W26594  13.934   6.280  11.742  0.0923 -0.0848  0.0284
 8391W        W26595  10.862  12.334   1.690  0.2373 -0.2305 -0.2524
 8392W        W26596   8.930  16.594   2.348  0.0765 -0.2363  0.0572
 8393W        W26597  12.131  12.492   0.460 -0.0647  0.0123  0.0258
 8394W        W26598  11.460   9.543  13.304 -0.0602  0.1419  0.2800
 8395W        W26599   7.106  17.916   1.472 -0.1720 -0.2403  0.2076
 8396W        W26600   7.751   4.666   3.925  0.2278 -0.0934  0.4524
 8397W        W26601   5.471   5.733   0.064 -0.0918  0.1655 -0.0549
 8398W        W26602   2.585   7.651  14.558  0.0165 -0.3959  0.1185
 8399W        W26603   1.732   9.231   0.188 -0.3145 -0.2139 -0.1576
 8400W        W26604  13.297   4.095   1.604 -0.2621 -0.0843 -0.1540
 8401W        W26605   3.025  16.998  14.008 -0.2321  0.1540 -0.0188
 8402W        W26606   4.320   3.271  10.448 -0.0711 -0.0489 -0.0648
 8403W        W26607  16.665  11.400  13.918 -0.1275  0.0709 -0.0720
 8404W        W26608  10.815  12.622  13.764  0.0219  0.1227 -0.3350
 8405W        W26609   0.036  15.790   4.175 -0.0459 -0.0905 -0.0108
 8406W        W26610   6.856   6.029  13.290 -0.0350  0.0729 -0.2742
 8407W        W26611   2.692   5.557   1.288 -0.1215 -0.1326 -0.1259
 8408W        W26612   7.730  16.354  10.786  0.1872  0.0823  0.2327
 8409W        W26613  11.256  13.045   4.590  0.0546  0.0678  0.0028
 8410W        W26614   4.775   7.984  10.822 -0.0806 -0.0033 -0.2787
 8411W        W26615  12.898  16.364  12.943 -0.1396 -0.4066  0.2078
 8412W        W26616   7.061  16.449  13.828 -0.0254  0.1776  0.1699
 8413W        W26617   1.809  14.659   3.439  0.3430  0.3482 -0.1368
 8414W        W26618   5.316  18.271   3.659 -0.0902 -0.0808 -0.1149
 8415W        W26619  15.474  12.049  11.889  0.0789 -0.4102 -0.2627
 8416W        W26620   0.522  15.331   3.080 -0.0612  0.1131 -0.0615
 8417W        W26621   7.523   0.702  11.367  0.0930 -0.1961 -0.2222
 8418W        W26622  15.963   6.073  11.995 -0.1598 -0.0421  0.2225
 8419W        W26623  13.335   2.279   2.132 -0.0772  0.4189  0.1852
 8420W        W26624   9.669  17.906  15.405  0.1269 -0.0718 -0.0252
 8421W        W26625  13.127  15.168   1.211  0.1776 -0.1961  0.2963
 8422W        W26626   1.853   3.819   3.123 -0.1005 -0.0240 -0.2273
 8423W        W26627   7.833   3.094   1.218 -0.0307  0.0679  0.1957
 8424W        W26628   3.305  14.247  11.701  0.1044  0.1433 -0.0765
 8425W        W26629   9.679  11.092  13.983  0.1388 -0.2070 -0.2956
 8426W        W26630   6.752   9.533   3.077  0.0722  0.0039  0.4916
 8427W        W26631   8.377   9.657  12.827 -0.1185 -0.1085  0.0343
 8428W        W26632   3.735   6.125   3.704 -0.1926  0.0252  0.2240
 8429W        W26633   8.642  16.169  14.335 -0.1102  0.0809  0.1714
 8430W        W26634   4.105  12.370   0.520 -0.1200 -0.0901 -0.1188
 8431W        W26635  14.937  11.176  11.203 -0.1069  0.1067 -0.1096
 8432W        W26636  11.043  13.257  14.261 -0.0162  0.2109  0.0774
 8433W        W26637   6.773   3.906   0.577 -0.1426  0.0662  0.3655
 8434W        W26638  16.999   4.196  12.694  0.6550 -0.2003 -0.1139
 8435W        W26639   4.706   9.933  14.726  0.0901 -0.2084 -0.0916
 8436W        W26640  11.600   7.470   2.885  0.0683 -0.1820  0.0157
 8437W        W26641   5.517   2.074   2.119  0.1962 -0.2234 -0.0077
 8438W        W26642  17.253  16.210  11.875  0.0164 -0.2736  0.0139
 8439W        W26643  18.012  18.159   4.568 -0.0055 -0.0261 -0.0027
 8440W        W26644  11.738   0.817  14.220  0.0286 -0.2982  0.0321
 8441W        W26645  17.804   3.904  13.470 -0.1892  0.4257 -0.3293
 8442W        W26646   5.977   8.924  13.407  0.0470 -0.0674  0.2863
 8443W        W26647   1.393  18.151   2.317 -0.2615 -0.0855  0.0318
 8444W        W26648   1.832   0.515   1.809  0.0920  0.0903  0.0264
 8445W        W26649   4.493  16.956  12.678 -0.0419  0.1029 -0.0873
 8446W        W26650   9.118  17.747  13.116 -0.0633 -0.0112 -0.3527
 8447W        W26651   6.232  14.162  11.703 -0.0724  0.2001 -0.1845
 8448W        W26652  13.402   8.540  11.822 -0.0178 -0.0158 -0.1073
 8449W        W26653  14.451  14.823   2.317  0.0539 -0.1872  0.0690
 8450W        W26654   7.002   7.704   1.729 -0.0248  0.3266 -0.1855
 8451W        W26655   4.773   2.874   0.492 -0.0705 -0.1252 -0.2747
 8452W        W26656   3.873   9.449  13.563  0.1131 -0.2032 -0.0551
 8453W        W26657   0.378  12.687   0.121 -0.0470  0.0909 -0.1814
 8454W        W26658  17.744   7.339  11.834 -0.0073  0.3692 -0.1604
 8455W        W26659  14.410  10.859  12.836 -0.0859  0.0559 -0.0007
 8456W        W26660   0.658   8.311   0.183 -0.0549  0.0183  0.0011
 8457W        W26661   9.763  16.411  13.063  0.1525 -0.1890  0.0008
 8458W        W26662   9.328  15.204   1.440 -0.1582 -0.2050  0.1732
 8459W        W26663   0.454   2.655   5.215 -0.0776 -0.1234  0.2505
 8460W        W26664   6.566   7.490  14.520  0.2351 -0.1006  0.0285
 8461W        W26665   8.878  14.565  13.297 -0.1729  0.0766  0.0270
 8462W        W26666  13.146  13.777  13.203  0.2017  0.1293 -0.0396
 8463W        W26667  10.157  13.253  14.880 -0.1640  0.1457 -0.0213
 8464W        W26668   9.533  17.033   5.064 -0.0831  0.0505  0.1249
 8465W        W26669  14.406  10.623   4.524  0.1670 -0.0691 -0.0616
 8466W        W26670   7.889   1.034  11.665  0.0591 -0.3017  0.0757
 8467W        W26671  15.048  16.381   0.693  0.1130 -0.2429  0.2862
 8468W        W26672   8.484  12.099  14.036 -0.0753  0.1786  0.0948
 8469W        W26673  15.505  12.870   2.746 -0.1228 -0.2950  0.1557
 8470W        W26674   6.614   2.728   4.245 -0.2644 -0.1137  0.0003
 8471W        W26675  13.387  10.931   1.404 -0.0938  0.1446 -0.3054
 8472W        W26676   8.558   1.127   3.495 -0.0053 -0.2263 -0.2289
 8473W        W26677  16.447  17.330   4.352  0.2100  0.0863 -0.3491
 8474W        W26678   3.596   4.803   1.996  0.0085  0.0662 -0.0492
 8475W        W26679   2.898  15.415  12.792 -0.1520 -0.0584 -0.0111
 8476W        W26680  11.006   0.244  13.838  0.1025 -0.1589 -0.0991
 8477W        W26681   4.800  12.999  14.138  0.1767  0.1410 -0.2053
 8478W        W26682  15.915  17.931   3.157  0.2202  0.0501 -0.0208
 8479W        W26683   4.236   6.431  13.856  0.1462  0.1358  0.0315
 8480W        W26684  16.790   7.956   1.348  0.2829 -0.0994 -0.1370
 8481W        W26685  12.822  14.566  12.645 -0.1928  0.1538 -0.2204
 8482W        W26686  11.279   9.539   4.354 -0.1406 -0.1973  0.2545
 8483W        W26687   9.883  12.934  10.281 -0.0258 -0.0071 -0.1709
 8484W        W26688  16.645  13.354  12.568  0.0797 -0.1733 -0.0446
 8485W        W26689  13.126   9.408   1.548  0.3030  0.3590  0.0592
 8486W        W26690   9.007  12.150  11.675  0.0409  0.0360  0.1740
 8487W        W26691   4.920   5.396   3.342 -0.1380 -0.0816  0.1340
 8488W        W26692  10.461   8.003   6.382  0.2646 -0.0604  0.1788
 8489W        W26693  18.322  17.368  11.551 -0.1507  0.0582  0.1290
 8490W        W26694  15.369  11.101   3.567  0.3335 -0.0982 -0.0308
 8491W        W26695   3.305   6.675  15.159 -0.1342 -0.2715 -0.1475
 8492W        W26696   4.441   9.370   4.338 -0.1523 -0.0600  0.2884
 8493W        W26697   5.625  15.649   0.304 -0.2152 -0.0409 -0.0582
 8494W        W26698  16.170   4.976   4.691 -0.0598 -0.0913  0.1528
 8495W        W26699  13.521  16.395  12.922  0.3846  0.2402 -0.0938
 8496W        W26700  14.203   0.961   2.534 -0.0352 -0.2802 -0.1459
 8497W        W26701   1.335   2.916  14.961 -0.1671  0.2315 -0.1927
 8498W        W26702   5.648   8.888  10.889  0.1330 -0.0661 -0.0919
 8499W        W26703   0.392  15.508   4.431 -0.0049  0.1162  0.2660
 8500W        W26704  17.010  18.283  12.300 -0.0164 -0.1069  0.0531
 8501W        W26705   4.943  14.675   4.013 -0.0047  0.2175 -0.2388
 8502W        W26706  16.906  10.759  15.347 -0.1110  0.1329  0.0998
 8503W        W26707   2.820   4.467  11.281  0.0937 -0.0081 -0.1130
 8504W        W26708  11.447   3.943   3.851  0.1919 -0.1350  0.0404
 8505W        W26709   0.190  17.492  12.751  0.0875  0.2181 -0.0864
 8506W        W26710   5.960   3.605   0.609 -0.2083  0.0369 -0.0627
 8507W        W26711  15.069   9.814   1.873 -0.2307 -0.0558  0.1309
 8508W        W26712   9.027  16.952  15.275  0.1224 -0.0937 -0.0623
 8509W        W26713   4.135   5.975  13.537  0.3651 -0.0754  0.2454
 8510W        W26714   9.513   7.631  13.102 -0.2263 -0.0385 -0.0955
 8511W        W26715  12.630  15.675  14.274  0.1413 -0.0053  0.1358
 8512W        W26716   9.908   5.697   3.165 -0.1073  0.0339 -0.3037
 8513W        W26717  10.041  10.022   3.268  0.0397 -0.2195  0.1449
 8514W        W26718   4.094   4.772  11.575  0.1724 -0.0583 -0.0122
 8515W        W26719   4.356  17.722  15.095 -0.0548  0.1871  0.0350
 8516W        W26720  14.254   7.933  14.460  0.0519 -0.0854 -0.0965
 8517W        W26721   3.405   4.743   4.152 -0.0417 -0.0300 -0.0050
 8518W        W26722  12.166   3.810  11.081 -0.1411 -0.0390 -0.3664
 8519W        W26723   7.794   8.607  11.217 -0.1624  0.0228 -0.2028
 8520W        W26724   4.052   6.267  12.564 -0.0233  0.3870  0.0006
 8521W        W26725  12.074  12.159  14.263 -0.0897 -0.0356  0.1811
 8522W        W26726   2.352  14.172  13.043  0.1579  0.1359 -0.0201
 8523W        W26727  12.064   0.554  12.890  0.0081 -0.1026 -0.1052
 8524W        W26728  11.330  17.975  11.014 -0.1869  0.0431 -0.4178
 8525W        W26729  12.786   9.248   6.070  0.0956  0.2935 -0.1274
 8526W        W26730  13.125  16.308   4.720  0.3772 -0.0829 -0.2244
 8527W        W26731  16.997  15.017   3.282  0.1979 -0.0093  0.0546
 8528W        W26732  17.090  11.397   3.547  0.1163 -0.1179 -0.0024
 8529W        W26733  13.865   2.232   1.996  0.0840 -0.0042 -0.2846
 8530W        W26734  12.974   5.169   1.651 -0.1425  0.0175  0.0103
 8531W        W26735   6.819   4.960  15.143  0.1448 -0.1612 -0.0407
 8532W        W26736  14.216  12.394  15.342  0.2790  0.0458  0.0968
 8533W        W26737   9.338   9.479   3.534 -0.0446  0.3436 -0.2327
 8534W        W26738   5.402   6.064  11.874 -0.3130 -0.1008 -0.2301
 8535W        W26739   7.175   8.270  11.686 -0.1856 -0.2826 -0.1940
 8536W        W26740   8.248  14.942  13.735  0.2022 -0.4370  0.0796
 8537W        W26741  15.572   9.436   3.173  0.2496  0.0351 -0.0117
 8538W        W26742  13.811  13.496   1.552  0.0027  0.1717  0.0279
 8539W        W26743   2.376   7.363   3.389  0.1638  0.0062  0.2074
 8540W        W26744   5.137   8.489   0.424 -0.0645 -0.0259  0.1715
 8541W        W26745  12.557   0.471   2.263 -0.1288 -0.1613  0.0644
 8542W        W26746   5.086   3.316  12.020  0.0786  0.2358  0.0303
 8543W        W26747   1.764  13.864  10.659 -0.5467 -0.2011  0.0917
 8544W        W26748   1.835   3.019   3.985  0.0092 -0.2060 -0.1156
 8545W        W26749  10.198   3.313   1.578  0.1550 -0.1692  0.0524
 8546W        W26750   6.708   1.294  11.416 -0.2510  0.0551 -0.1468
 8547W        W26751  14.188   1.337   0.874 -0.0622  0.1244  0.2346
 8548W        W26752   7.709  16.420   0.834 -0.4525 -0.1654  0.2662
 8549W        W26753  13.799   9.478   0.886  0.0001 -0.3530  0.0558
 8550W        W26754   2.495   3.579   1.613  0.3519  0.2715  0.2419
 8551W        W26755   2.597  12.325   3.938  0.1888  0.0265 -0.1073
 8552W        W26756  12.997   8.470   3.317 -0.1668  0.0522 -0.1543
 8553W        W26757  16.601   9.377  11.588  0.0564 -0.0400 -0.0403
 8554W        W26758  14.325  15.989  11.440  0.0025 -0.0201  0.2691
 8555W        W26759   5.732   8.580  15.483 -0.1468 -0.2075 -0.0506
 8556W        W26760  10.958  17.590  14.170 -0.0156  0.1548  0.2102
 8557W        W26761  16.274   9.092   3.594 -0.2857  0.1480 -0.1047
 8558W        W26762   0.437   4.637   3.127 -0.2182  0.2138  0.3318
 8559W        W26763   4.789   0.384   2.327  0.1749  0.0876  0.0063
 8560W        W26764  13.999  10.221  11.711 -0.0325  0.0389  0.1208
 8561W        W26765  10.111   8.969   0.724 -0.1313 -0.2885 -0.2450
 8562W        W26766  12.042   7.588  13.277 -0.0961 -0.0283 -0.0462
 8563W        W26767  16.260   8.834   1.852  0.0471  0.2465 -0.0902
 8564W        W26768   9.328   0.826   2.732 -0.0791  0.0847 -0.0846
 8565W        W26769   4.999  12.876   2.638  0.1672 -0.0455  0.0756
 8566W        W26770   0.604  17.372  13.670  0.1169  0.3585 -0.3481
 8567W        W26771  13.132   2.445   9.954  0.0683  0.2939  0.0244
 8568W        W26772   5.557   4.035   3.202 -0.1599  0.2235 -0.0948
 8569W        W26773   3.353   6.771  12.668  0.0712 -0.0850 -0.0218
 8570W        W26774  13.534   8.467   1.095  0.1123  0.2251 -0.1159
 8571W        W26775   0.045  11.115  13.773  0.0349  0.0754  0.1305
 8572W        W26776   4.831   4.410  15.158 -0.1956  0.1398  0.3985
 8573W        W26777  18.242   4.083  13.475  0.0219 -0.1260  0.0712
 8574W        W26778   2.916   1.903  10.852 -0.2019 -0.0853 -0.0249
 8575W        W26779   4.829   8.476  15.722 -0.1438  0.0589  0.0012
 8576W        W26780  10.741  16.038  11.843  0.2813  0.0641 -0.0670
 8577W        W26781   1.413  16.123  15.497  0.3046  0.1330  0.1136
 8578W        W26782   3.128  12.890  11.583 -0.1213  0.0786  0.0485
 8579W        W26783   3.959   8.632   2.270  0.1414 -0.1087 -0.0598
 8580W        W26784  18.093   0.430   0.341  0.2238  0.0447 -0.0032
 8581W        W26785  15.523   5.630   2.384 -0.0626  0.1565 -0.1127
 8582W        W26786   5.605   1.566   0.022 -0.0666  0.2395 -0.1863
 8583W        W26787   5.145  10.753  14.728 -0.3305  0.1868  0.1254
 8584W        W26788  15.343   7.028   2.612 -0.2716  0.0509 -0.4044
 8585W        W26789   1.071   4.571   3.818  0.2605  0.0961 -0.0431
 8586W        W26790   2.049   1.212   3.371  0.0247 -0.3032 -0.1406
 8587W        W26791   0.193  16.663  14.018  0.4784 -0.1792  0.2388
 8588W        W26792   5.267   0.314  13.400  0.0899  0.1302 -0.1146
 8589W        W26793  14.461   1.132  14.319  0.0911  0.1450  0.0685
 8590W        W26794   0.759   8.100   1.668 -0.2135  0.0219 -0.1228
 8591W        W26795  14.225   8.172  15.400 -0.0392 -0.1817 -0.0119
 8592W        W26796   0.885  12.018   3.998 -0.4578  0.2933  0.1096
 8593W        W26797   4.119  15.209   2.941  0.3503  0.1372  0.0447
 8594W        W26798  16.745  15.929  15.443  0.2381  0.0354  0.1202
 8595W        W26799   7.341   6.203   2.791 -0.1884  0.0181 -0.2609
 8596W        W26800   8.661   6.722   0.483 -0.2363 -0.1131  0.0865
 8597W        W26801  16.060  11.686  12.735 -0.1881 -0.3896  0.0817
 8598W        W26802   3.445   3.104  12.754  0.0946 -0.0547  0.0229
 8599W        W26803   0.851   5.096  13.569 -0.2558  0.1076  0.1474
 8600W        W26804  11.683  15.276  12.459  0.0006 -0.2893  0.1301
 8601W        W26805   3.004  16.332  10.705 -0.4061  0.2034  0.2688
 8602W        W26806   4.109  13.068  15.405 -0.0814  0.0409 -0.1045
 8603W        W26807   3.215  17.257  15.559 -0.1880  0.1496  0.0917
 8604W        W26808  11.559  14.589   0.568 -0.0801  0.0415  0.0304
 8605W        W26809  17.277  10.447  15.373  0.0087  0.0205  0.3220
 8606W        W26810   6.534   2.073  11.482  0.0472  0.1240 -0.5129
 8607W        W26811   9.751   0.632  14.342  0.1892 -0.1881 -0.0090
 8608W        W26812   2.979  10.331   1.184  0.2782 -0.3292 -0.0746
 8609W        W26813   3.819   6.988  14.458  0.0749 -0.1520 -0.1152
 8610W        W26814   3.839   3.558   1.490 -0.1411  0.1526 -0.1003
 8611W        W26815   9.420   4.296  14.189  0.0247  0.3427  0.1148
 8612W        W26816  12.202   8.203   3.815  0.2396  0.1206 -0.0962
 8613W        W26817   4.624   9.720   9.870  0.0918  0.0915 -0.0533
 8614W        W26818   7.588   2.212  13.685  0.1379 -0.2388  0.2310
 8615W        W26819  16.241  16.747   0.874  0.0888 -0.3805 -0.0757
 8616W        W26820   9.880   7.382  15.049 -0.1667 -0.2272 -0.0279
 8617W        W26821   7.851   4.569  10.099 -0.1380  0.0459 -0.0094
 8618W        W26822  15.909   4.349   0.135  0.1817 -0.1859 -0.1946
 8619W        W26823   0.550  16.215   4.763 -0.0092  0.2605 -0.0977
 8620W        W26824   1.638   8.063   2.682 -0.0784 -0.0454  0.2626
 8621W        W26825  16.801  15.756  12.885  0.0760 -0.3080  0.1291
 8622W        W26826   6.211   9.391   4.945  0.0382  0.1398  0.1309
 8623W        W26827   6.621  13.388   4.434  0.1197 -0.0165 -0.3197
 8624W        W26828  12.343  10.296   4.055  0.0478  0.2299  0.1535
 8625W        W26829   8.925   6.877   3.489 -0.1465  0.0678  0.0586
 8626W        W26830  13.850   4.293   4.590  0.1287 -0.0386  0.3090
 8627W        W26831   3.106   1.881   2.811  0.0809 -0.3404  0.2138
 8628W        W26832  10.360  16.731  11.223 -0.2548 -0.0162  0.2427
 8629W        W26833   8.407   2.090  13.116 -0.3305 -0.0212  0.0050
 8630W        W26834  13.889   7.246  11.959 -0.4570  0.0820  0.0168
 8631W        W26835   4.733   9.512  12.404  0.0860 -0.4586 -0.2636
 8632W        W26836  17.615  14.361  12.134 -0.0543  0.0772 -0.2229
 8633W        W26837   9.406   2.568   3.479  0.3895  0.5051 -0.0344
 8634W        W26838  16.531   2.059  14.510  0.1498  0.1870  0.0263
 8635W        W26839  15.912   2.991  13.299  0.0985 -0.1005 -0.2462
 8636W        W26840   7.023  10.171   4.372  0.0069  0.0690  0.1553
 8637W        W26841   1.595   9.023  10.928 -0.2204  0.2062  0.0498
 8638W        W26842  12.422   9.243  11.601  0.2349  0.0398  0.0189
 8639W        W26843  12.275  11.829   4.813 -0.2717  0.1240 -0.1409
 8640W        W26844  16.077   6.463  14.336  0.1940 -0.1316 -0.3230
 8641W        W26845   2.171  15.067   2.446  0.0959  0.4226 -0.0051
 8642W        W26846   6.017   4.958   4.686  0.1843 -0.0227  0.0930
 8643W        W26847  11.564   4.638   2.898  0.1570  0.1796 -0.2063
 8644W        W26848   7.787  15.420   0.656  0.0406 -0.0318  0.1363
 8645W        W26849   5.384   2.571  14.989 -0.1035 -0.1238 -0.0400
 8646W        W26850  15.665  17.567   0.955 -0.0227 -0.0123 -0.0107
 8647W        W26851   2.189  10.939   0.835 -0.0280  0.1549 -0.0735
 8648W        W26852  11.664   7.251  12.133  0.1476 -0.2758 -0.1711
 8649W        W26853   6.003   1.401  14.134  0.1069  0.3520 -0.2364
 8650W        W26854   0.890  13.049   2.098 -0.4568 -0.1049 -0.2760
 8651W        W26855  17.584   2.348  11.040  0.0384 -0.3141  0.4419
 8652W        W26856   6.946   4.800  12.909 -0.1262 -0.1482 -0.2250
 8653W        W26857   6.137   0.190   2.363  0.2224  0.0256  0.2028
 8654W        W26858  16.262   8.293   0.448 -0.2326  0.0871  0.1233
 8655W        W26859  13.583  12.768  10.803 -0.1080 -0.3059  0.1807
 8656W        W26860   0.848  18.067  15.576  0.1474  0.0309  0.2608
 8657W        W26861  15.366   3.752  13.311 -0.2083  0.2511 -0.0700
 8658W        W26862   6.235  14.717  15.082  0.1696 -0.1301  0.0023
 8659W        W26863  12.999   4.909   1.229  0.0143  0.1071  0.1056
 8660W        W26864   5.675   1.633   4.671  0.3662  0.0050 -0.2591
 8661W        W26865   8.559   4.405   2.896 -0.2226  0.1237 -0.1275
 8662W        W26866   3.643   0.587   1.226  0.1875 -0.0482 -0.3723
 8663W        W26867  16.836  17.644   4.136 -0.0770 -0.0753 -0.0216
 8664W        W26868   3.900  17.347  11.251  0.0045  0.0378 -0.1755
 8665W        W26869  13.972  14.819  11.946 -0.2168 -0.0762  0.0848
 8666W        W26870   3.965   7.310   0.309  0.0954  0.0231 -0.1153
 8667W        W26871  12.723  17.225   1.912 -0.1330  0.0647  0.0527
 8668W        W26872   2.676   3.491  11.604 -0.4359 -0.1146  0.0508
 8669W        W26873   4.233   0.927  11.324  0.0813  0.2854  0.1837
 8670W        W26874   8.204   4.481  11.900  0.4281 -0.2933  0.1078
 8671W        W26875   4.069   9.860   4.581  0.1593 -0.2862  0.1158
 8672W        W26876  14.919   4.966   3.981  0.2719  0.1253 -0.2237
 8673W        W26877   8.534   8.953   2.174  0.0834  0.0451 -0.1078
 8674W        W26878   9.470   2.882   2.513 -0.1159 -0.1997 -0.0329
 8675W        W26879   9.542   5.748   3.913 -0.3763 -0.3862 -0.1459
 8676W        W26880  13.954  13.671   0.648  0.1114 -0.1457 -0.0124
 8677W        W26881   4.769  13.837  11.313 -0.0628 -0.0086 -0.2829
 8678W        W26882  10.913   8.476   3.817  0.1560  0.0081  0.1177
 8679W        W26883  10.874  10.520   1.492  0.1093  0.1545 -0.1525
 8680W        W26884   2.518   5.837   9.887 -0.1440  0.0549 -0.1030
 8681W        W26885   5.422   6.986   0.550 -0.0779  0.0769 -0.2039
 8682W        W26886   5.028   5.867  10.744  0.0448 -0.0552 -0.1265
 8683W        W26887   0.240   1.599  10.285  0.0009  0.0645  0.0511
 8684W        W26888  15.924  11.387  13.047  0.1898 -0.0622 -0.0651
 8685W        W26889  10.547  10.435  13.189  0.0303 -0.2150 -0.4001
 8686W        W26890  13.014  11.091  14.776  0.1949 -0.1482 -0.3264
 8687W        W26891   8.347   8.543   0.382  0.0902 -0.2255  0.2253
 8688W        W26892  15.607  14.948   3.200  0.1118  0.1533 -0.1818
 8689W        W26893  10.909  12.731   1.289  0.0625 -0.0715  0.0983
 8690W        W26894  13.087   2.340   0.021  0.1961 -0.0337 -0.1383
 8691W        W26895  11.931  10.485   4.434 -0.0129  0.2976  0.0876
 8692W        W26896  18.195  12.906   4.496  0.1602  0.3207  0.2925
 8693W        W26897  13.551  13.618  15.385  0.1120  0.0625 -0.3694
 8694W        W26898   0.218   7.158   2.419 -0.2880  0.1065  0.3417
 8695W        W26899   9.274   6.902  14.360  0.2141 -0.0676  0.0684
 8696W        W26900  17.856  17.754  14.737 -0.0671 -0.2281  0.1489
 8697W        W26901  13.274   7.980   2.151 -0.2055 -0.3742 -0.0966
 8698W        W26902  12.232   2.516   3.933 -0.4093  0.1305 -0.0181
 8699W        W26903  18.142   6.308  11.474 -0.0739 -0.1004  0.2642
 8700W        W26904   2.791   0.114   3.457  0.3198 -0.0717 -0.0697
 8701W        W26905  18.166  15.061  12.940  0.1145 -0.0528  0.1173
 8702W        W26906   7.535  18.329   4.003 -0.1582 -0.2442 -0.1732
 8703W        W26907  12.119   9.726  11.655 -0.0286 -0.2510  0.1000
 8704W        W26908  10.164   1.701  12.450 -0.1083  0.1691  0.0758
 8705W        W26909  16.304   7.349  12.428 -0.1367 -0.1251 -0.1883
 8706W        W26910   8.746   0.055   4.160  0.0244  0.0232  0.1354
 8707W        W26911   1.801   1.827  14.346 -0.2805 -0.0150  0.1875
 8708W        W26912   9.469   1.535   0.970  0.1791  0.0590  0.0774
 8709W        W26913   5.358   7.160   2.226 -0.2081  0.2964  0.2339
 8710W        W26914  16.899   1.229  12.876  0.0384  0.2552 -0.0193
 8711W        W26915   5.831   9.289   3.855 -0.1082  0.2902 -0.2110
 8712W        W26916  14.410  16.386   0.302  0.0839 -0.2039  0.0550
 8713W        W26917  16.504   1.992  15.085  0.0620  0.0940 -0.1490
 8714W        W26918   4.353   2.857   3.946  0.1493  0.0203  0.0395
 8715W        W26919   1.526   4.263  11.805 -0.1910 -0.2523  0.1163
 8716W        W26920  11.680  12.664   4.862  0.1109 -0.0234  0.3375
 8717W        W26921   8.873  17.512   4.420  0.2432  0.1709 -0.2833
 8718W        W26922   6.523  12.506   4.220 -0.0411 -0.0023  0.0794
 8719W        W26923   8.765   5.520  13.202 -0.1307  0.0260 -0.1056
 8720W        W26924   3.218   4.844  15.206 -0.0057 -0.0984  0.4596
 8721W        W26925   6.612   8.354  14.813  0.1720 -0.3065 -0.1823
 8722W        W26926   9.374   9.071  14.623  0.1402 -0.0420  0.0883
 8723W        W26927   0.363  18.290  13.328  0.1778 -0.3669 -0.1476
 8724W        W26928  11.988  17.986   2.186 -0.1493  0.1709 -0.0571
 8725W        W26929  17.803   5.445   5.953 -0.0370 -0.1285 -0.0466
 8726W        W26930  11.164  12.720   1.834 -0.0506  0.0101 -0.2064
 8727W        W26931   0.299  10.466   0.318  0.1291 -0.1304 -0.0612
 8728W        W26932   6.979   3.115  13.715  0.2627 -0.0447  0.1532
 8729W        W26933  13.091  11.795  14.434  0.0365  0.3751 -0.1028
 8730W        W26934   8.199   5.884   1.961 -0.1493  0.2524 -0.0416
 8731W        W26935  11.854  13.904   2.127 -0.1278  0.0381  0.0711
 8732W        W26936  18.133   8.924   4.863 -0.1746 -0.0989 -0.3202
 8733W        W26937   0.916  12.925  13.080  0.2508  0.2058  0.1112
 8734W        W26938  11.550   5.122  12.398 -0.0721  0.0125 -0.0931
 8735W        W26939   7.594   9.388  15.426 -0.1725  0.3192  0.0189
 8736W        W26940   1.010  18.301  11.026 -0.2771  0.1347  0.2889
 8737W        W26941   1.588   2.244   1.991  0.0571 -0.0348  0.0238
 8738W        W26942   9.140   7.515  13.459  0.3476  0.1045 -0.1213
 8739W        W26943  17.207  14.912  15.563  0.0466  0.4604  0.1521
 8740W        W26944  16.537  14.514   1.620 -0.3350  0.0978 -0.1723
 8741W        W26945  16.933   8.221  15.415  0.1836 -0.1503 -0.0053
 8742W        W26946   2.062   6.340   2.361 -0.0672  0.0896  0.2091
 8743W        W26947  15.729   0.124  14.464 -0.0464 -0.0579  0.4362
 8744W        W26948   6.382  14.555   4.240  0.0252 -0.2243 -0.1955
 8745W        W26949   7.027  12.711  12.115  0.0607 -0.0440 -0.0353
 8746W        W26950   6.033  18.067   0.581  0.2007 -0.1248  0.0064
 8747W        W26951   0.741   2.978   3.066 -0.2475  0.4510 -0.0721
 8748W        W26952   8.703   3.422  12.772  0.0552 -0.1995 -0.2901
 8749W        W26953  11.787  10.664  11.896  0.0334  0.1759  0.0834
 8750W        W26954  16.623   3.961   2.560 -0.2202  0.3731 -0.1212
 8751W        W26955  15.920  13.462   2.320  0.0349 -0.1203  0.1367
 8752W        W26956  17.340  16.141   1.079  0.1833 -0.3132 -0.3030
 8753W        W26957   1.700   2.143   2.442  0.0861  0.1128 -0.1097
 8754W        W26958  17.931   3.372  15.297  0.0493 -0.2693  0.0755
 8755W        W26959   2.064   9.483   4.727  0.0259  0.0703  0.1407
 8756W        W26960   2.719  15.920  13.513  0.1947 -0.0221 -0.0471
 8757W        W26961  12.116  16.361   3.197  0.1799  0.0236  0.1851
 8758W        W26962   2.900   8.718   3.013  0.1925  0.3375 -0.5483
 8759W        W26963  17.176   7.369  15.465  0.1136 -0.0365 -0.1693
 8760W        W26964  16.252   0.109   4.154  0.0501  0.0300  0.4903
 8761W        W26965   7.735  12.533   4.073  0.1112 -0.1219  0.0466
 8762W        W26966  12.330  10.660  11.819  0.0261 -0.0400 -0.3366
 8763W        W26967  16.391   8.816  11.782 -0.2647  0.0370  0.0899
 8764W        W26968  14.526   6.234  15.309  0.0658 -0.1836  0.1408
 8765W        W26969   6.703  16.616  10.817  0.1350 -0.2785  0.0483
 8766W        W26970   3.381  16.029   3.022  0.0051 -0.0646  0.0752
 8767W        W26971   8.221   0.994   0.349 -0.4348  0.0143  0.2171
 8768W        W26972  10.141  17.888  10.836  0.1807 -0.2151  0.1126
 8769W        W26973   5.184  15.424   0.101  0.0664  0.0459  0.0795
 8770W        W26974  12.512   5.132   1.828  0.0773  0.1427 -0.0949
 8771W        W26975  15.698  14.974   2.574  0.1861  0.2192 -0.2008
 8772W        W26976  12.758   3.581  10.188 -0.2396 -0.0879  0.2627
 8773W        W26977  15.372   9.430   4.882  0.0759 -0.0209 -0.0091
 8774W        W26978   5.334  14.601  14.772  0.0480  0.1433  0.1060
 8775W        W26979  11.408   5.012   4.549  0.3291 -0.2926  0.2193
 8776W        W26980   7.056   7.323   2.139  0.1718  0.1821 -0.1483
 8777W        W26981   4.132   2.266  14.876  0.0784 -0.1369 -0.3323
 8778W        W26982   5.073   5.613   0.816  0.2124  0.1419 -0.1140
 8779W        W26983   6.873  16.440   3.539  0.0705 -0.0304  0.0836
 8780W        W26984   4.209   0.812   4.842  0.0723  0.2967 -0.0306
 8781W        W26985   9.225   0.432  12.435 -0.1879  0.2204  0.1275
 8782W        W26986  17.334   9.162  12.173 -0.1832 -0.0579  0.2163
 8783W        W26987   8.166   6.935  11.954 -0.2195  0.1273  0.4351
 8784W        W26988  16.076   1.033   0.807 -0.0434  0.4397 -0.3096
 8785W        W26989   8.564   2.296   2.256 -0.2752 -0.3272  0.1770
 8786W        W26990   5.311  17.391  13.413  0.0991 -0.0958  0.0797
 8787W        W26991  14.697   6.772  13.891  0.0216  0.0122 -0.4295
 8788W        W26992  14.430   8.616   2.068  0.1816  0.4472  0.1673
 8789W        W26993   7.068   7.845   2.215  0.1797  0.1887  0.2575
 8790W        W26994  14.410   0.312  14.179  0.0409  0.2727  0.2401
 8791W        W26995  17.949   9.881  11.942 -0.1267 -0.0205 -0.1084
 8792W        W26996   8.602  13.589   0.039 -0.5267 -0.0215 -0.1007
 8793W        W26997   8.551  10.608   1.161 -0.1267  0.0749  0.0127
 8794W        W26998  11.149  15.471   0.499 -0.1579  0.1624  0.0041
 8795W        W26999   0.572  17.798  15.276 -0.1701 -0.1514 -0.1758
 8796W        W27000  13.787  12.857   3.157 -0.0571  0.0365 -0.0804
 8797W        W27001   5.035   1.664  11.805  0.2476 -0.1771  0.2765
 8798W        W27002  13.613  10.056  13.777  0.1015 -0.1574  0.0393
 8799W        W27003  14.954   7.601   0.553 -0.2033  0.3138  0.0343
 8800W        W27004   4.599   2.327   4.142  0.0673  0.2106  0.3577
 8801W        W27005   8.674   3.345  15.677  0.2680 -0.1394  0.0162
 8802W        W27006  10.730  18.286   1.228 -0.0786  0.1357  0.1108
 8803W        W27007   4.800  11.374  12.045  0.4040 -0.2081  0.1198
 8804W        W27008  11.524  17.016  14.298  0.1569  0.1227 -0.2007
 8805W        W27009   3.217   8.536   3.908 -0.3462  0.1191  0.1833
 8806W        W27010   7.323  15.118  13.345 -0.0157  0.4158  0.4241
 8807W        W27011  17.701   2.378   1.660  0.1020  0.0145 -0.0701
 8808W        W27012   4.773   1.046  15.646 -0.1560  0.0544 -0.2211
 8809W        W27013  12.455   5.546   2.985 -0.0993  0.1994  0.0153
 8810W        W27014  10.696  14.744   3.560 -0.0828  0.1408  0.4615
 8811W        W27015  15.287   1.283   2.562 -0.1110 -0.4006  0.3290
 8812W        W27016   3.625  18.086  12.513 -0.1643 -0.2736  0.1290
 8813W        W27017  11.825   5.142   4.320  0.2631 -0.0669  0.0382
 8814W        W27018  16.566   1.313  13.248  0.0905 -0.2511 -0.0686
 8815W        W27019   6.637   9.097  15.146 -0.0647  0.2653  0.1638
 8816W        W27020   5.273   3.877   4.112 -0.0999 -0.3076  0.0900
 8817W        W27021   1.844  10.570   3.142  0.0222  0.0032  0.0979
 8818W        W27022   2.277  11.198   4.760  0.1191  0.1018 -0.1735
 8819W        W27023  11.938   9.969   5.055 -0.0566  0.2265  0.1824
 8820W        W27024  16.197  13.921   1.035  0.1030 -0.0430 -0.0990
 8821W        W27025  11.691   9.011   1.366 -0.0867  0.1210  0.1302
 8822W        W27026  11.550  17.721   1.014  0.0062 -0.0903  0.1351
 8823W        W27027   9.777  12.887   2.947 -0.0956  0.1710  0.0568
 8824W        W27028   3.511  15.733   2.317  0.1304  0.0273 -0.0739
 8825W        W27029   2.276  12.708  13.154  0.2476 -0.1448 -0.2627
 8826W        W27030   8.830  10.696   2.158 -0.1647  0.0406  0.1338
 8827W        W27031   6.378  12.278   4.773 -0.0689  0.2480  0.1399
 8828W        W27032   4.890   7.981   0.090  0.2448  0.0090 -0.4648
 8829W        W27033   6.074  14.867  14.206 -0.0198  0.0310 -0.1508
 8830W        W27034  12.823   9.481  14.373 -0.1292  0.2169  0.1474
 8831W        W27035   4.017   7.841   1.185  0.0265 -0.1439  0.4033
 8832W        W27036  13.041  11.472   0.435  0.0333 -0.0091  0.0867
 8833W        W27037   1.654   7.256   4.680 -0.1149  0.0705  0.0366
 8834W        W27038   7.338  12.948  13.070  0.2562  0.2470 -0.4448
 8835W        W27039   8.355   7.452   3.022 -0.1395  0.0185 -0.0332
 8836W        W27040  16.249   3.841  14.456 -0.1041  0.1386  0.0614
 8837W        W27041   5.153   3.094   3.722  0.3387  0.1440 -0.1059
 8838W        W27042   0.718   3.698  13.098 -0.0024  0.2353 -0.0495
 8839W        W27043   6.143   7.026  13.362 -0.0973  0.0906 -0.2489
 8840W        W27044   9.467  16.842  12.890 -0.0691  0.0053 -0.1850
 8841W        W27045  15.375   0.673  12.260  0.1345  0.0009  0.3515
 8842W        W27046  13.632  11.365   1.937  0.2863  0.0764  0.0160
 8843W        W27047   3.702  11.159  14.107 -0.0975  0.1062  0.1083
 8844W        W27048  11.148   3.277  12.536  0.0613 -0.0279  0.0810
 8845W        W27049   1.221   2.703   1.062  0.1634  0.0065 -0.0179
 8846W        W27050  16.642   9.864  10.761  0.0337 -0.1848  0.0022
 8847W        W27051   6.763  16.212   1.455 -0.1110  0.2499 -0.3328
 8848W        W27052  14.242   3.177   2.111  0.2973  0.0090  0.0364
 8849W        W27053  16.739   1.684  15.471 -0.2447 -0.2843 -0.0105
 8850W        W27054   6.366   8.764  10.445  0.1838  0.0132 -0.2726
 8851W        W27055  13.765   1.191   4.625 -0.0510  0.2842 -0.0950
 8852W        W27056   8.239   4.541   2.374 -0.1087 -0.2816  0.4819
 8853W        W27057  17.482   6.173  13.213 -0.1544 -0.0455  0.0999
 8854W        W27058  15.404   5.415   4.371 -0.1169  0.1623  0.2344
 8855W        W27059   6.426  13.481   3.547  0.0523  0.1238  0.0555
 8856W        W27060  17.865  12.578   2.096 -0.2521 -0.0073  0.0719
 8857W        W27061   6.663   6.758   3.943 -0.0841  0.1576 -0.0641
 8858W        W27062   6.791   6.943  14.471 -0.0304  0.1014 -0.1100
 8859W        W27063   6.306   8.649  12.532  0.0312  0.2041  0.1771
 8860W        W27064  13.210  13.117   0.426 -0.0376  0.0448 -0.0118
 8861W        W27065  14.741  17.445  15.236 -0.1912 -0.0029 -0.1396
 8862W        W27066   9.601   1.335   5.692  0.1722  0.0500 -0.0555
 8863W        W27067  15.418   2.397  11.133  0.1502  0.2798  0.3412
 8864W        W27068   2.512   2.851   4.392  0.1055  0.0942 -0.2719
 8865W        W27069  16.301  15.502  14.270 -0.0358  0.0922 -0.2188
 8866W        W27070  12.751   5.010  14.376 -0.0455 -0.0177  0.2559
 8867W        W27071   6.581  11.748  11.823 -0.0085  0.2377 -0.4044
 8868W        W27072   6.622  16.654   2.289  0.1071 -0.2340 -0.1471
 8869W        W27073  15.775   9.985   4.600  0.1057 -0.1723  0.1330
 8870W        W27074  15.579  10.673   3.456  0.0558 -0.1049 -0.2656
 8871W        W27075  10.906   6.588  13.704  0.1085 -0.0212  0.1081
 8872W        W27076  15.255   1.065   3.533  0.2159  0.1268  0.1058
 8873W        W27077   8.358  17.233   2.095 -0.1063  0.1006  0.3645
 8874W        W27078   8.744  16.576  12.218 -0.0727 -0.0512 -0.0068
 8875W        W27079  10.708   2.904   3.007 -0.1151 -0.1799 -0.0253
 8876W        W27080  13.098   2.442   4.319  0.1061  0.1036 -0.0106
 8877W        W27081   0.783  17.001   2.644  0.1262  0.0241  0.4680
 8878W        W27082   5.277  16.392  15.411 -0.0224  0.0956  0.3253
 8879W        W27083   1.314  14.757  15.367 -0.2818  0.0750  0.4012
 8880W        W27084  14.670  11.895   1.388 -0.0393  0.2325 -0.0618
 8881W        W27085  12.634   5.373   2.547 -0.0001  0.3204  0.2251
 8882W        W27086   6.827  10.836  11.645 -0.2217  0.0843  0.2014
 8883W        W27087  11.327   1.596  14.706 -0.2468  0.0695  0.1483
 8884W        W27088   6.718  16.243   4.673  0.1853 -0.1593 -0.2424
 8885W        W27089  12.770  12.383   1.936  0.0129 -0.0604  0.1946
 8886W        W27090  12.030  14.858  12.227  0.0344 -0.0696  0.0395
 8887W        W27091   5.287   8.172   2.337 -0.1875 -0.0082 -0.3655
 8888W        W27092   0.038  12.121  13.180 -0.1141 -0.1815  0.1401
 8889W        W27093   7.039   4.694   0.604  0.2188  0.2978  0.0849
 8890W        W27094   9.464  11.729  11.682  0.0165  0.1464  0.1541
 8891W        W27095  18.015   7.546   1.212 -0.5172 -0.1085  0.0338
 8892W        W27096   4.176  14.296   2.443  0.3202 -0.3286  0.2779
 8893W        W27097  12.870   0.552  14.921  0.0343  0.0485 -0.0782
 8894W        W27098   5.797   3.531  15.537  0.1418 -0.0928  0.2825
 8895W        W27099   9.373   2.155  11.452 -0.0929 -0.0148 -0.2629
 8896W        W27100   2.810  12.934   1.114  0.0071  0.1612  0.1070
 8897W        W27101   3.485  14.618  14.585  0.2907 -0.1931 -0.1015
 8898W        W27102   7.362  12.327   3.834 -0.2215 -0.2043 -0.2579
 8899W        W27103  15.096   7.709  11.812  0.1656  0.1219 -0.4247
 8900W        W27104  15.962   8.336  15.091  0.0217 -0.0791  0.4133
 8901W        W27105   0.202  10.160  13.684 -0.0452  0.2496 -0.0845
 8902W        W27106   6.384  14.779   3.787 -0.0780 -0.2031 -0.2114
 8903W        W27107  12.348   0.485  14.876 -0.2595  0.2326 -0.2766
 8904W        W27108  11.592  13.672   0.263  0.0143  0.2316  0.0466
 8905W        W27109  12.434  16.494  14.962  0.3624 -0.1438  0.2204
 8906W        W27110  16.978   1.820  14.806  0.1232 -0.0005  0.0354
 8907W        W27111   6.324   1.918  15.637  0.1217  0.1656  0.0017
 8908W        W27112  15.038  18.301  13.016  0.2970  0.1511  0.1576
 8909W        W27113   1.370  12.060   0.338  0.2384 -0.1840 -0.0386
 8910W        W27114  14.630  15.631   1.139 -0.0510 -0.1901 -0.0353
 8911W        W27115   4.647  15.048   1.579 -0.1746 -0.0276  0.1396
 8912W        W27116  10.936  11.050  14.272 -0.1254  0.2622  0.0841
 8913W        W27117  18.344  12.955  14.835 -0.1834  0.3059 -0.0827
 8914W        W27118   1.424   1.298  12.223  0.0442  0.2189  0.1315
 8915W        W27119   1.472  12.765  15.612 -0.0854  0.0485 -0.1052
 8916W        W27120  17.444  16.812  15.624 -0.1253 -0.0632 -0.0446
 8917W        W27121   8.668  12.653  14.217  0.0254 -0.0237  0.1006
 8918W        W27122   4.376   6.571  11.608 -0.1887  0.1355 -0.0063
 8919W        W27123  13.072   1.948  13.661 -0.0508 -0.0626 -0.2538
 8920W        W27124  16.839  13.478   2.214  0.3809 -0.0577 -0.0582
 8921W        W27125  15.702   6.241   4.962 -0.0691  0.1276 -0.2487
 8922W        W27126   7.350  18.189  12.247 -0.0692 -0.3823  0.2163
 8923W        W27127  11.799   5.678   0.256  0.0063  0.0844  0.2894
 8924W        W27128   3.753   2.733   2.982  0.2947 -0.2069  0.2290
 8925W        W27129   6.774   7.448  13.000 -0.0425  0.3271  0.0172
 8926W        W27130   3.518   4.398  15.281 -0.1108 -0.2186 -0.1004
 8927W        W27131  13.195   2.099  12.651  0.5795  0.0563  0.0531
 8928W        W27132   7.189   7.020   3.357  0.1420  0.0145 -0.2892
 8929W        W27133   6.209   9.219  11.724 -0.0250 -0.1170 -0.4209
 8930W        W27134  11.727   6.145   2.561  0.1904  0.0828 -0.0651
 8931W        W27135   1.814  15.372   1.645 -0.1053  0.0837 -0.0224
 8932W        W27136   6.043   0.441   3.586 -0.2222  0.3516 -0.0330
 8933W        W27137   9.638   3.963   0.858 -0.0548 -0.0774  0.0924
 8934W        W27138  12.822   4.766   2.109 -0.0898  0.0850 -0.1067
 8935W        W27139   1.787   5.464  11.496  0.2501  0.0095  0.2521
 8936W        W27140  13.853   0.463  12.461  0.2689 -0.1178  0.0004
 8937W        W27141   7.079  17.390   3.556  0.2075  0.1066 -0.4277
 8938W        W27142   8.625   8.364  12.944 -0.1410  0.0685 -0.0769
 8939W        W27143  11.019  10.427  13.440 -0.3495  0.1648  0.0103
 8940W        W27144  14.219   6.010  14.405 -0.1338 -0.1775  0.2047
 8941W        W27145   4.438   7.852   1.956 -0.2266  0.0519  0.0098
 8942W        W27146  15.500   6.533  15.052  0.0400  0.0665  0.1088
 8943W        W27147   2.419   8.672   1.347  0.3416  0.3061 -0.4146
 8944W        W27148   9.600   4.634   4.027 -0.1227  0.0620 -0.1461
 8945W        W27149  14.310   1.387   3.566  0.3342 -0.4243  0.3347
 8946W        W27150  14.559  17.778  14.085 -0.1399  0.1662 -0.1459
 8947W        W27151   4.144  17.072  10.888  0.4073  0.2619 -0.3755
 8948W        W27152  12.564  18.362   0.612  0.0796 -0.1145  0.0210
 8949W        W27153   4.830  11.994  12.368  0.3154  0.0438 -0.3232
 8950W        W27154   1.716  11.542  12.423 -0.0978 -0.0600  0.2460
 8951W        W27155  16.476   2.663   0.936 -0.1914  0.0744 -0.4593
 8952W        W27156   0.956   5.434  15.272 -0.0438  0.0299 -0.2165
 8953W        W27157   8.540   3.814  15.030  0.1610  0.0163 -0.0723
 8954W        W27158  15.293  14.343   3.375  0.0300 -0.0801  0.2667
 8955W        W27159  13.398   6.477  14.275  0.2441  0.2843  0.1406
 8956W        W27160   3.803   1.985  15.164  0.0683 -0.2390  0.1514
 8957W        W27161   9.457   4.707  13.945  0.1083 -0.0195  0.1136
 8958W        W27162  14.960   9.781  12.338 -0.1736 -0.0588 -0.1216
 8959W        W27163  18.189   8.045  14.337  0.1643  0.0707  0.2119
 8960W        W27164  15.784  15.819  14.688 -0.1094 -0.4622 -0.2412
 8961W        W27165   1.345  12.043   3.759  0.0617 -0.4109 -0.1801
 8962W        W27166  17.228  12.943  12.830 -0.0372 -0.1757  0.1943
 8963W        W27167  12.642   0.728  13.593 -0.2820 -0.2592 -0.0434
 8964W        W27168   1.596  16.353  11.989 -0.3466 -0.0068  0.0279
 8965W        W27169  12.308   4.542   0.503  0.2632 -0.0997  0.1083
 8966W        W27170  10.660  16.525   0.361  0.0159  0.0402  0.3292
 8967W        W27171   2.634  18.066   3.951 -0.0005  0.0151  0.2606
 8968W        W27172  17.565  13.427   1.558 -0.0003  0.0624 -0.0414
 8969W        W27173   3.217   6.685  13.640 -0.0808  0.0468  0.1345
 8970W        W27174  15.142   0.091   1.993  0.0533 -0.1387 -0.1172
 8971W        W27175  18.043   1.411   3.321 -0.2291  0.0126 -0.1318
 8972W        W27176  13.643  15.920  15.236 -0.1000  0.0731  0.0530
 8973W        W27177  15.494  10.295   1.031 -0.0197  0.1252  0.0130
 8974W        W27178   5.965   7.297  10.784 -0.0699 -0.0234  0.0557
 8975W        W27179   8.565  17.714  11.064  0.0466 -0.3742 -0.1221
 8976W        W27180   3.370   4.244   4.253 -0.2522 -0.1088  0.0800
 8977W        W27181  12.228   5.294   0.244  0.2160  0.2082 -0.3296
 8978W        W27182   0.150   2.290  11.449  0.0619 -0.4779 -0.1497
 8979W        W27183   1.102  13.346   0.339  0.0808  0.0944  0.2613
 8980W        W27184   3.585   0.010  14.786 -0.0989 -0.5659 -0.3059
 8981W        W27185   6.891   1.789   3.377  0.1669  0.2331  0.2953
 8982W        W27186  12.585  17.570  15.632  0.0171 -0.0830 -0.1293
 8983W        W27187  17.368   8.776   0.798 -0.2635 -0.0228 -0.1511
 8984W        W27188   3.050  13.929  11.139  0.2082  0.0002  0.1403
 8985W        W27189   1.911   4.382   1.880 -0.1137  0.0313 -0.1390
 8986W        W27190   2.955   6.337  14.993  0.5282  0.1365 -0.4466
 8987W        W27191  11.640  17.514   2.128  0.3466  0.0420  0.0657
 8988W        W27192  17.310   4.873  11.481 -0.1213 -0.0758 -0.1396
 8989W        W27193   4.322  11.149   1.736 -0.1716  0.1635  0.1186
 8990W        W27194   5.884   1.360  11.880 -0.0240  0.0234  0.0966
 8991W        W27195   2.345   2.419   0.230  0.3899  0.0623  0.0773
 8992W        W27196   2.268   3.582   4.659 -0.0266 -0.2857 -0.0515
 8993W        W27197  11.287   2.705  15.464 -0.1754 -0.3359 -0.3757
 8994W        W27198   9.924   0.221   1.266 -0.0195  0.4268 -0.1327
 8995W        W27199  16.518  15.807   3.123  0.0031  0.0927  0.0484
 8996W        W27200   8.647   4.176   2.450 -0.0971 -0.0598  0.2040
 8997W        W27201  13.541  12.829   0.192 -0.1607  0.1299  0.0020
 8998W        W27202   4.427  13.407  12.006  0.0774  0.0911  0.3872
 8999W        W27203   7.796  16.872   3.850 -0.2172  0.1140 -0.2201
 9000W        W27204  11.995   5.083  12.150 -0.0106 -0.0770  0.0924
 9001W        W27205   9.066  16.633   1.751 -0.0074 -0.0911 -0.0765
 9002W        W27206   0.256  10.299  11.581 -0.3052  0.0344 -0.0410
 9003W        W27207   1.829  13.913   0.581  0.2845  0.4848 -0.1214
 9004W        W27208  18.319   3.994   2.695 -0.0534  0.2290  0.1536
 9005W        W27209  13.019  16.640  11.426  0.4164 -0.1759 -0.0411
 9006W        W27210  14.514  15.918   0.389 -0.1926  0.3097 -0.1090
 9007W        W27211  10.607  11.558   1.977  0.3891 -0.0185 -0.1438
 9008W        W27212  13.013   8.795   0.297 -0.3575 -0.2830  0.1442
 9009W        W27213   1.265   9.986   0.518 -0.1021 -0.2042 -0.1826
 9010W        W27214  18.352  16.255   4.038 -0.2388  0.1466  0.1250
 9011W        W27215  10.778   6.521  15.400  0.1343  0.0648 -0.0336
 9012W        W27216  17.943   4.274   2.473  0.3638 -0.2066 -0.4900
 9013W        W27217   2.266   0.012   0.132 -0.1987 -0.3374 -0.1472
 9014W        W27218   4.038   2.706  15.127 -0.2036 -0.2178 -0.0299
 9015W        W27219  17.307   2.355   3.907  0.0053 -0.1822  0.2824
 9016W        W27220   1.485  17.696  11.975 -0.3769 -0.0810  0.0880
 9017W        W27221   9.104   6.649   2.462  0.0974  0.1604 -0.4161
 9018W        W27222  14.055   4.340  13.536  0.2620  0.1036  0.0187
 9019W        W27223   2.223  17.975  12.017  0.2325 -0.2211 -0.1037
 9020W        W27224  17.417  13.937   4.333  0.0542  0.3899 -0.5048
 9021W        W27225   8.413   4.072  11.633 -0.5519 -0.0370 -0.1193
 9022W        W27226   5.051   3.653  11.132 -0.2540 -0.0559 -0.0061
 9023W        W27227   5.214   0.396   1.504  0.3957 -0.0523  0.1122
 9024W        W27228   1.004  13.358   4.613  0.1207 -0.0599 -0.0096
 9025W        W27229   8.933  12.002  15.345 -0.1217 -0.0690  0.1101
 9026W        W27230  18.219   3.566   2.894 -0.0253 -0.2361  0.1802
 9027W        W27231  13.263   4.183   3.677  0.0050  0.0471  0.1157
 9028W        W27232   0.124   2.440  14.955  0.1591  0.0893  0.0969
 9029W        W27233   9.539   3.042   3.729 -0.0291 -0.3105  0.2197
 9030W        W27234   3.686  13.272   0.080  0.0718 -0.2956 -0.0199
 9031W        W27235   5.549   4.327   2.221 -0.1064  0.1439 -0.1595
 9032W        W27236   7.052  11.073   4.195  0.1469 -0.0738  0.0445
 9033W        W27237  12.038   0.199  14.682  0.0419  0.2371  0.0343
 9034W        W27238  13.420  17.936  11.695  0.0066  0.0048 -0.0894
 9035W        W27239   3.901   9.363  14.381  0.0855  0.0214  0.1412
 9036W        W27240  12.866  12.650  14.883  0.1084  0.3144 -0.0238
 9037W        W27241  17.835  17.677  12.063  0.1808 -0.1066  0.1024
 9038W        W27242   7.281   8.825   0.820  0.2043  0.2163 -0.2584
 9039W        W27243  18.115   6.370   3.691  0.1742 -0.1673  0.0065
 9040W        W27244   6.472  16.915   5.094 -0.1323  0.0063  0.0489
 9041W        W27245  13.911   0.165  14.208  0.2257  0.2631  0.2923
 9042W        W27246  15.787  17.176  11.657 -0.0015  0.1243 -0.0975
 9043W        W27247  10.940   8.431  15.543 -0.0053  0.0079 -0.0080
 9044W        W27248  17.715   9.645  11.575  0.2058 -0.1434 -0.2574
 9045W        W27249  16.585  13.164  11.274 -0.1987 -0.0396 -0.0892
 9046W        W27250   2.612  10.107  11.768  0.1159 -0.1235 -0.0496
 9047W        W27251   6.811  10.593  12.103  0.1333 -0.2301 -0.1551
 9048W        W27252   0.617   2.850  12.051 -0.5663 -0.0815 -0.0514
 9049W        W27253   9.039  15.542   4.130 -0.0477  0.1511 -0.4409
 9050W        W27254  14.946  16.390   2.748 -0.1648  0.0891 -0.1629
 9051W        W27255   8.048   9.869   2.415 -0.1283 -0.0814 -0.2053
 9052W        W27256  16.662  15.625   2.279  0.0257  0.2505 -0.0185
 9053W        W27257   9.461  14.590   3.270  0.0042  0.3196 -0.0495
 9054W        W27258   8.759   3.853  14.073 -0.1535  0.2126  0.0947
 9055W        W27259   4.646  11.302   0.708  0.1588 -0.0047 -0.0880
 9056W        W27260  17.919  13.028   0.850 -0.2160  0.1051 -0.1756
 9057W        W27261   9.763  11.127   5.313  0.0701  0.3351  0.1422
 9058W        W27262  17.882  18.199  12.416  0.0600 -0.0047  0.1450
 9059W        W27263   2.528   5.547   2.461 -0.3885 -0.2457  0.0765
 9060W        W27264  15.944   9.527  12.262  0.0090 -0.0348  0.2923
 9061W        W27265  12.962   1.301  12.242  0.1275 -0.0273 -0.2457
 9062W        W27266  17.872   6.296   1.894 -0.2181  0.1695  0.0203
 9063W        W27267   9.662   9.301   2.059 -0.1459  0.0437  0.1829
 9064W        W27268  12.569   7.411   3.998  0.3653 -0.0146  0.1451
 9065W        W27269   2.081   4.120   4.565  0.0161  0.0551  0.3624
 9066W        W27270  15.774  17.679  13.239  0.0017  0.4068  0.1199
 9067W        W27271  10.253   6.857   4.427  0.0019 -0.0296  0.0390
 9068W        W27272  14.606   3.035   2.498  0.2768 -0.1329  0.0825
 9069W        W27273   1.831   9.416  14.622  0.0583 -0.0767  0.2653
 9070W        W27274   1.330   1.721   3.128  0.2810 -0.3100  0.1280
 9071W        W27275  10.547   5.746   0.682 -0.1886 -0.0037 -0.0402
 9072W        W27276  10.154  14.855  12.191 -0.2300 -0.1274 -0.1668
 9073W        W27277   8.420   9.138  15.210 -0.0596 -0.2957 -0.0145
 9074W        W27278  13.680  17.589   1.691 -0.1799 -0.1879  0.0471
 9075W        W27279   8.310   8.795   2.913  0.1047 -0.1872  0.3036
 9076W        W27280  15.480  17.939   2.892  0.0220 -0.1207 -0.0889
 9077W        W27281   9.508   0.783   1.477  0.0518 -0.0868  0.2516
 9078W        W27282  10.612   0.689  13.374 -0.2272 -0.1619 -0.1862
 9079W        W27283   4.340   6.783   3.287 -0.1127  0.3159  0.1791
 9080W        W27284   6.430  13.787   3.959 -0.0470  0.2745 -0.1155
 9081W        W27285   6.000  15.471  11.492  0.1342  0.0926  0.4306
 9082W        W27286  11.494   4.978   5.077 -0.0007 -0.0571  0.0146
 9083W        W27287  15.139   3.231  13.818 -0.1323 -0.0350  0.1905
 9084W        W27288  16.868   0.394  15.682  0.0576  0.0991  0.2152
 9085W        W27289   5.325  11.435   1.808  0.1115  0.4444  0.1784
 9086W        W27290   7.878  10.085   3.817  0.1660 -0.0970 -0.1349
 9087W        W27291  11.747  10.667  13.473  0.5012 -0.0464 -0.1740
 9088W        W27292  13.084   1.617  12.657  0.2107  0.0993 -0.2125
 9089W        W27293   5.534   3.478  15.092  0.2522 -0.2906  0.0034
 9090W        W27294  16.508  15.158  11.955  0.1383  0.2663  0.1317
 9091W        W27295  14.847   4.641   3.498  0.1498  0.0016 -0.2382
 9092W        W27296   2.968  13.668   3.285  0.0976 -0.0063 -0.0491
 9093W        W27297  10.162  13.898   3.047  0.1989 -0.4385 -0.2570
 9094W        W27298   5.213   3.080  15.322  0.4612  0.2132  0.1210
 9095W        W27299   1.223   7.717   0.272 -0.0313 -0.3885 -0.2174
 9096W        W27300  14.255  16.129  13.547 -0.2784 -0.2517  0.0520
 9097W        W27301   4.281  18.020  11.142  0.2704 -0.0988 -0.0873
 9098W        W27302  17.616  12.596  11.927  0.0382 -0.0619 -0.1568
 9099W        W27303   1.799   4.983  15.714 -0.0085 -0.0878 -0.1668
 9100W        W27304   2.294   5.037  15.623  0.4677 -0.1335  0.1784
 9101W        W27305   9.347  11.743  15.146 -0.0732  0.0016  0.0867
 9102W        W27306  10.258   5.175  14.675 -0.0548  0.0416  0.1925
 9103W        W27307   3.229  13.971  12.126  0.0142 -0.3953 -0.1704
 9104W        W27308   8.669   2.194  11.985 -0.2231 -0.0420  0.3369
 9105W        W27309   0.170  16.809   2.398 -0.1016 -0.1946 -0.0440
 9106W        W27310  13.118  18.207   3.438  0.0123  0.0497  0.0025
 9107W        W27311   3.128   2.684  11.302 -0.4469 -0.3084 -0.2128
 9108W        W27312   6.597   0.822   3.000 -0.1166 -0.1289 -0.1993
 9109W        W27313  16.448   5.118   2.201 -0.0705 -0.0497 -0.2298
 9110W        W27314   2.583  16.373   0.203  0.0657 -0.3678  0.1958
 9111W        W27315   3.831   8.672   1.010  0.0825  0.0851 -0.2642
 9112W        W27316  15.983  12.698  15.237  0.1366  0.2193  0.2765
 9113W        W27317  16.734   6.034  15.482 -0.1071 -0.0105  0.2884
 9114W        W27318   1.660   1.747   1.601 -0.1856  0.1474  0.0019
 9115W        W27319   8.158   1.146   1.460  0.0919 -0.0288 -0.1392
 9116W        W27320  14.507  11.643   3.674  0.0879 -0.1857  0.1335
 9117W        W27321   4.515   1.488   4.549 -0.0822 -0.0573  0.0371
 9118W        W27322  10.836   3.854   2.221  0.0485  0.1053  0.1584
 9119W        W27323   1.549  10.344   1.232  0.1130  0.0724 -0.2372
 9120W        W27324   9.078  15.821  11.383  0.1552 -0.1138  0.0581
 9121W        W27325  16.625   2.342  13.401  0.1738  0.3447 -0.0818
 9122W        W27326   7.408  11.088  15.660  0.1678 -0.0364 -0.0502
 9123W        W27327   7.602  13.393   0.496  0.2565 -0.0597  0.1000
 9124W        W27328  12.929   1.852  12.247 -0.2971  0.1139 -0.0532
 9125W        W27329  15.508  18.052   5.718 -0.3729 -0.1521 -0.2051
 9126W        W27330   0.854  12.862  11.138 -0.0225 -0.2091  0.3785
 9127W        W27331   5.999   2.833   0.478 -0.2396 -0.3199  0.0477
 9128W        W27332  15.487   4.018   3.207  0.2506 -0.0036  0.0022
 9129W        W27333  13.847   0.291   4.015  0.0069  0.0605  0.2964
 9130W        W27334  17.242  17.876  12.432  0.0039  0.2296 -0.0480
 9131W        W27335  16.542   7.429   0.592 -0.4754  0.0313  0.0057
 9132W        W27336  12.486  14.657   0.811 -0.1450  0.0196 -0.0133
 9133W        W27337   2.855   5.465  14.489 -0.0019  0.1426 -0.2569
 9134W        W27338  16.868   9.861   1.812  0.3720 -0.1592  0.2328
 9135W        W27339  12.358  14.139   2.299 -0.0093  0.0246 -0.2570
 9136W        W27340  16.976  13.911  12.497 -0.2040 -0.0113 -0.0259
 9137W        W27341   9.648   9.572   4.845  0.0976  0.0567  0.4929
 9138W        W27342  17.785   7.698   0.344 -0.2116  0.1470  0.1864
 9139W        W27343  10.993  12.797   0.109  0.6437  0.4031 -0.0025
 9140W        W27344  15.123   1.314  13.480  0.0956  0.0930  0.3203
 9141W        W27345  14.952  15.242   1.398  0.2543 -0.1629 -0.2699
 9142W        W27346   7.701   8.145  11.776 -0.1131 -0.2239 -0.0077
 9143W        W27347  14.239   8.448  14.410 -0.0156 -0.0604  0.0266
 9144W        W27348   1.176   3.594   2.522 -0.0965 -0.1915 -0.0882
 9145W        W27349  11.523  14.917  15.478 -0.0056  0.1568 -0.1031
 9146W        W27350   3.519   3.577  14.273 -0.1214 -0.0731 -0.2318
 9147W        W27351   1.809   0.186  11.461 -0.1625 -0.1524  0.1576
 9148W        W27352  13.601   7.697   0.309 -0.0552 -0.0632 -0.1186
 9149W        W27353   2.911  13.481  12.968 -0.2156  0.2313 -0.3465
 9150W        W27354   5.560   1.089   0.986 -0.0303  0.2166 -0.0374
 9151W        W27355  17.159   3.449   4.205  0.0539 -0.2210 -0.1117
 9152W        W27356   3.553   7.149  14.960 -0.3033 -0.0471  0.0129
 9153W        W27357   1.677  15.169  15.109 -0.1399 -0.1667 -0.3513
 9154W        W27358   7.526  13.842  12.819 -0.1280  0.0698 -0.2988
 9155W        W27359   4.312  14.217   2.924  0.2885  0.1691 -0.0502
 9156W        W27360   3.960   9.814   0.051 -0.1387  0.0570 -0.2397
 9157W        W27361  14.201   1.830   1.045  0.2883  0.3049  0.1265
 9158W        W27362  14.928   8.105  13.566  0.4262  0.0232 -0.2207
 9159W        W27363   9.705  17.439   1.715  0.1008  0.1496  0.0308
 9160W        W27364   8.019  17.154  14.895 -0.0493  0.2390  0.0103
 9161W        W27365   3.027   1.173   1.560  0.0161  0.0540 -0.1990
 9162W        W27366   9.182   0.899   2.248 -0.2034 -0.0752  0.1601
 9163W        W27367  12.061  15.488   2.800 -0.1186  0.4156  0.0925
 9164W        W27368   2.076  13.998   1.133  0.0571 -0.0526 -0.1031
 9165W        W27369   6.550   2.694   2.678 -0.0968  0.0480  0.1363
 9166W        W27370   3.382   1.544   2.474 -0.1087 -0.0012 -0.0059
 9167W        W27371   6.702  16.351   3.041 -0.2595  0.0344  0.1208
 9168W        W27372  13.304  15.913  12.254  0.0587 -0.0860  0.0773
 9169W        W27373  16.700  16.924   3.224  0.1440 -0.2317 -0.5185
 9170W        W27374   8.281   8.043  14.402  0.0465 -0.1100 -0.0152
 9171W        W27375   9.001   4.989   2.730 -0.4362 -0.1338 -0.1872
 9172W        W27376   8.422   3.154   2.582 -0.0312  0.1855 -0.2295
 9173W        W27377  13.481   7.078   2.596  0.0938  0.1584  0.2643
 9174W        W27378  11.110   8.466  13.457 -0.0254 -0.0984  0.0936
 9175W        W27379   4.872  16.876  14.486 -0.3651  0.0146 -0.1485
 9176W        W27380  12.972  13.815  14.902 -0.2808 -0.2058 -0.1553
 9177W        W27381   6.615   1.030   2.466  0.0518  0.2470  0.0194
 9178W        W27382  12.670  15.529  12.759  0.0602  0.0947  0.2742
 9179W        W27383   5.036   3.339  13.760 -0.2418 -0.0421 -0.2892
 9180W        W27384  16.183  10.470  12.313 -0.1911 -0.3163  0.1360
 9181W        W27385   1.331   9.219   3.219 -0.1354 -0.0804  0.2681
 9182W        W27386  15.428   5.009   3.841 -0.3804 -0.0510 -0.1264
 9183W        W27387   2.080   4.064  14.880  0.2951  0.1218  0.2518
 9184W        W27388  13.605  11.674   4.478 -0.0861 -0.0281 -0.1499
 9185W        W27389   2.671   3.660   3.928  0.1012 -0.1622  0.0120
 9186W        W27390  10.169  13.230   5.146 -0.1408 -0.1116 -0.1760
 9187W        W27391   5.790   3.000  11.056 -0.1893 -0.0508 -0.3952
 9188W        W27392   3.167   3.035   3.361 -0.1371 -0.1629 -0.0277
 9189W        W27393   8.867  17.585  14.696  0.0946  0.1078 -0.3083
 9190W        W27394  17.082  11.071   3.098 -0.0629  0.1516 -0.2687
 9191W        W27395  10.551  13.247  15.183  0.0278 -0.1970 -0.3987
 9192W        W27396   4.422   7.733   4.623  0.3090  0.1531  0.1721
 9193W        W27397   4.141   7.917  11.453  0.0428  0.4138  0.1841
 9194W        W27398   6.618  16.804   4.464 -0.2668  0.1491  0.1578
 9195W        W27399   1.708  15.914  10.194  0.2022  0.0545 -0.4529
 9196W        W27400   7.816   5.441   2.671 -0.0835  0.0609 -0.0556
 9197W        W27401   7.434  14.065   1.908 -0.0523  0.1519 -0.1648
 9198W        W27402   5.804  13.939   0.850 -0.1583 -0.0556  0.0530
 9199W        W27403  15.277  14.629  15.046  0.0080  0.0518  0.0501
 9200W        W27404   6.456  10.693  15.316 -0.1888 -0.0276 -0.0097
 9201W        W27405   6.486   9.671  15.176 -0.2140  0.0155  0.0182
 9202W        W27406  14.538  13.800  13.616 -0.0453  0.1535  0.1349
 9203W        W27407  15.994  15.818  13.085  0.0418  0.1366 -0.1935
 9204W        W27408  13.236  11.101   0.982  0.1790 -0.1842 -0.0717
 9205W        W27409  10.973  14.582  11.175 -0.0935 -0.1049 -0.2050
 9206W        W27410  11.963   1.592   2.989  0.0906  0.0264 -0.0274
 9207W        W27411   4.341   0.244  15.640 -0.0987 -0.0760  0.3369
 9208W        W27412   4.822   1.245  14.260  0.0873  0.1833 -0.2023
 9209W        W27413  14.620   2.506   3.872  0.3678  0.0401 -0.2459
 9210W        W27414  16.119   3.940   1.004 -0.1218 -0.0061  0.1257
 9211W        W27415  11.351  10.196   1.252  0.1085 -0.0333 -0.0395
 9212W        W27416   6.893  14.886   3.861  0.0399 -0.0507  0.0291
 9213W        W27417   3.242   4.333  14.177  0.2116  0.1089 -0.1680
 9214W        W27418  13.114   0.074   3.965 -0.1372  0.0196  0.1149
 9215W        W27419  14.448   8.588   0.866  0.1100 -0.1280 -0.1026
 9216W        W27420  10.984  18.189  13.568 -0.0808  0.0953  0.1555
 9217W        W27421   6.370   2.651   1.593  0.1726  0.0930  0.1884
 9218W        W27422  10.489   1.921  12.829 -0.0267  0.2845  0.1403
 9219W        W27423   3.927  11.808  14.814  0.0742  0.1330  0.2746
 9220W        W27424   0.782   4.890  14.671 -0.1553  0.0819 -0.0534
 9221W        W27425  16.558  14.040   5.592 -0.5663 -0.1781  0.0919
 9222W        W27426  13.197  15.726  15.641 -0.0391 -0.0841  0.0058
 9223W        W27427   7.574   0.989  14.542  0.0447 -0.2012 -0.0721
 9224W        W27428   9.313   2.621  15.724 -0.1384 -0.0638  0.0296
 9225W        W27429   4.963  16.726   0.588 -0.0642  0.1867 -0.0020
 9226W        W27430   9.477   6.377   2.967  0.0587  0.0057 -0.0707
 9227W        W27431   5.618  10.498   3.745 -0.3013 -0.0607 -0.0770
 9228W        W27432  10.901   6.838   0.199 -0.2356  0.0769 -0.0360
 9229W        W27433  16.953   0.443   2.401 -0.1326  0.2240  0.1213
 9230W        W27434  10.417   0.613  14.687  0.0487 -0.1106 -0.1060
 9231W        W27435  10.288  10.613  15.581  0.1187  0.1193 -0.0468
 9232W        W27436   5.943   8.669  14.395 -0.1957  0.1796 -0.0173
 9233W        W27437  10.768   8.481   0.265  0.1170 -0.0755 -0.0081
 9234W        W27438  15.972   9.963  15.523  0.2654  0.0238 -0.1454
 9235W        W27439   5.892  12.180   5.381 -0.2990 -0.1774 -0.0640
 9236W        W27440  11.654   6.803  15.349 -0.0266 -0.2049  0.1887
 9237W        W27441   0.067  12.701  14.251  0.0440 -0.0859  0.1675
 9238W        W27442   7.071  14.744  11.333  0.2375 -0.1420 -0.0370
 9239W        W27443   3.047  15.446   0.272  0.1168 -0.1623 -0.0582
 9240W        W27444  16.274   7.732   3.928  0.0515  0.1529  0.0182
 9241W        W27445  16.365  12.501   3.844 -0.2285 -0.0985  0.4155
 9242W        W27446  13.406   9.123   0.248 -0.2313 -0.2399 -0.0109
 9243W        W27447   0.157  13.849  14.380 -0.1439 -0.0467  0.1619
 9244W        W27448   8.107  12.959   1.635  0.1013 -0.1355 -0.1639
 9245W        W27449  12.959  14.007   2.190 -0.1604  0.0427  0.0103
 9246W        W27450  14.247   7.263  14.987  0.0530 -0.2288 -0.0556
 9247W        W27451   8.146  17.555   1.723  0.0910  0.2814 -0.1170
 9248W        W27452  10.071   4.417   0.060 -0.1615 -0.0183  0.1975
 9249W        W27453   0.297   1.305   3.932  0.0118 -0.0589 -0.0617
 9250W        W27454   0.491  14.065  13.991 -0.3413  0.0785 -0.0376
 9251W        W27455   4.284   7.528  13.951 -0.1363  0.1066  0.1985
 9252W        W27456  11.018  10.052  12.039 -0.1378  0.2425 -0.0996
 9253W        W27457   5.676   7.187  11.896 -0.0317  0.0549  0.1496
 9254W        W27458   3.517  14.238  13.308 -0.0396 -0.1383  0.2153
 9255W        W27459   3.140   8.306   1.310  0.2097 -0.1714  0.0127
 9256W        W27460   8.787  17.999  13.995 -0.1577  0.1922  0.0030
 9257W        W27461   1.756   7.665  14.907 -0.1751 -0.1393 -0.0739
 9258W        W27462  10.606  17.021   0.691  0.0151 -0.4943 -0.1236
 9259W        W27463   2.609   5.521  13.566 -0.2138 -0.1980 -0.1745
 9260W        W27464  13.566   1.183  11.071 -0.2246 -0.2106  0.1276
 9261W        W27465   8.604   9.263  13.144  0.2091 -0.0558 -0.3057
 9262W        W27466  16.984   7.877  13.658 -0.0345  0.0743  0.0612
 9263W        W27467   1.913  10.283  14.412  0.0762  0.0484 -0.0261
 9264W        W27468   5.505  14.550  11.080 -0.1252  0.3128  0.0655
 9265W        W27469   3.991   8.120   4.570 -0.2105  0.2268 -0.2093
 9266W        W27470  15.905   8.511  12.204 -0.0277 -0.0578  0.2014
 9267W        W27471  14.283  15.752   1.608 -0.0327  0.2841 -0.0068
 9268W        W27472  14.911   9.971  15.501 -0.0462 -0.1486 -0.2397
 9269W        W27473   4.925   7.114   0.464  0.1401  0.1407 -0.1191
 9270W        W27474   5.106   2.846  12.236 -0.0644 -0.0335 -0.1960
 9271W        W27475  15.420   0.636   1.250 -0.3012 -0.1141  0.0229
 9272W        W27476  12.347  15.744   1.340 -0.1516  0.0739 -0.0112
 9273W        W27477  13.728  17.462   2.617  0.1549 -0.0719 -0.1347
 9274W        W27478  10.183   5.109   1.240 -0.0317 -0.3209 -0.0196
 9275W        W27479   9.004  10.914   4.145 -0.3902 -0.3184 -0.0647
 9276W        W27480  15.005  16.335   4.979  0.2942  0.3839  0.0741
 9277W        W27481   0.019  12.087  11.420  0.0266  0.0226  0.1427
 9278W        W27482  17.667  10.117   2.406  0.1712 -0.1205  0.1559
 9279W        W27483  10.779  15.344   0.128 -0.3212  0.2957  0.1127
 9280W        W27484   0.494  10.449   2.745 -0.0919 -0.0192 -0.0908
 9281W        W27485   1.350  18.082  15.408  0.1055  0.0966 -0.3319
 9282W        W27486   5.119  16.667  12.430  0.1854 -0.1682  0.2411
 9283W        W27487   0.101  14.765  15.569 -0.0616 -0.0613  0.3662
 9284W        W27488   8.295   7.566  14.584  0.2911  0.0330  0.0988
 9285W        W27489   0.695  10.000  13.605  0.1403  0.2359 -0.0326
 9286W        W27490   3.644   2.851  11.973  0.1928  0.2980  0.2453
 9287W        W27491  12.397  14.133  15.193  0.0488 -0.1679 -0.1742
 9288W        W27492   1.768   5.986   0.900  0.0807 -0.0054 -0.3577
 9289W        W27493  13.717  16.027  11.949 -0.0355 -0.0002 -0.3328
 9290W        W27494   1.068   7.983  11.377 -0.3507  0.4770 -0.2112
 9291W        W27495   8.034   3.642  11.909  0.3269  0.1932 -0.1146
 9292W        W27496  11.207  10.802   2.899 -0.0919  0.0986 -0.0690
 9293W        W27497  17.155  15.791   2.081  0.0487 -0.2016 -0.0169
 9294W        W27498  17.968  12.037   1.872  0.0469 -0.2083  0.0813
 9295W        W27499  12.220  17.641   1.218 -0.0914  0.1328  0.2983
 9296W        W27500   5.678   5.680  13.447  0.0670  0.1300 -0.1626
 9297W        W27501   7.119  14.159   2.301  0.2372  0.4594 -0.1359
 9298W        W27502  10.281   6.428  15.082 -0.4195 -0.1459 -0.0883
 9299W        W27503  11.642   7.956   3.857  0.0337 -0.3589  0.0777
 9300W        W27504   8.459  13.528   0.887 -0.0940 -0.0266  0.0191
 9301W        W27505   6.221   8.152  12.701 -0.0601  0.1865 -0.0352
 9302W        W27506  16.007   4.859   3.817 -0.0382  0.0155 -0.4032
 9303W        W27507  16.123  12.830   2.751  0.2666 -0.0113  0.2305
 9304W        W27508   6.868  15.778  14.989  0.0000 -0.0130 -0.0674
 9305W        W27509  13.501  13.423   0.150 -0.0086  0.2904  0.1179
 9306W        W27510  13.338   4.899   0.449  0.1509  0.0674 -0.4516
 9307W        W27511  13.004   4.580  13.526  0.0371  0.1733  0.0001
 9308W        W27512   0.276   5.360   3.411 -0.2357  0.2618 -0.0632
 9309W        W27513  10.441   9.159  15.253  0.0065  0.0262  0.1756
 9310W        W27514   8.056   4.760  10.540 -0.3259 -0.3386  0.2872
 9311W        W27515   1.038   6.482   1.451  0.1734 -0.3997 -0.0304
 9312W        W27516  14.945  11.327   3.476  0.2365 -0.0314  0.1572
 9313W        W27517   6.694  12.412   2.884 -0.1784  0.1655 -0.1584
 9314W        W27518  14.916  17.672   5.208  0.0918 -0.1043  0.1119
 9315W        W27519   3.580  12.151  12.641  0.2331  0.0930  0.1960
 9316W        W27520   2.843  16.478   2.584  0.2128  0.0825  0.0511
 9317W        W27521  13.880   2.833  14.009  0.0120  0.0838 -0.2700
 9318W        W27522   9.762  12.462  12.932  0.1883 -0.0905 -0.2390
 9319W        W27523  16.550  12.339  12.394 -0.2656  0.1642 -0.0183
 9320W        W27524  12.861   2.333  12.348  0.1253 -0.3571  0.0323
 9321W        W27525   4.087   6.265   4.125  0.0176  0.0957 -0.1668
 9322W        W27526   6.965  12.553  14.908 -0.1599 -0.0214  0.3464
 9323W        W27527   2.876  11.065  12.972 -0.0252  0.2346  0.5987
 9324W        W27528   1.061   7.743  12.780  0.0664 -0.1209 -0.0274
 9325W        W27529   3.964  14.519   3.235  0.0135 -0.0847 -0.0990
 9326W        W27530  18.089   7.674  11.394 -0.0056  0.0832  0.1880
 9327W        W27531   2.162   2.323  14.276 -0.2012  0.2448 -0.2402
 9328W        W27532   1.282  13.351   0.983 -0.1167 -0.1443 -0.1700
 9329W        W27533   7.469   2.377   1.683  0.0498  0.3638  0.0452
 9330W        W27534  14.219   8.970  14.352  0.0655  0.0320  0.2392
 9331W        W27535  14.967   9.439   3.628  0.0545  0.2116 -0.2820
 9332W        W27536   3.716   0.693   3.235  0.0366  0.2253  0.2138
 9333W        W27537  13.269  13.744  11.248 -0.3053  0.2099  0.1190
 9334W        W27538  13.777   9.707  11.664  0.1362  0.0181  0.3415
 9335W        W27539  16.078  13.766   3.662 -0.0032  0.0659 -0.1427
 9336W        W27540   7.174   8.358   0.951  0.0374 -0.0613 -0.0532
 9337W        W27541  17.290   7.113   4.979 -0.5331  0.0482 -0.0183
 9338W        W27542  15.639   7.929  15.097  0.0249  0.1037 -0.1229
 9339W        W27543  14.414   5.286  15.535 -0.0256  0.1679 -0.1784
 9340W        W27544   8.610   7.360  14.884  0.0174 -0.3225  0.0403
 9341W        W27545   4.105  16.637  12.461 -0.1384  0.0859 -0.1335
 9342W        W27546   9.452  14.013   1.533  0.0561  0.0429 -0.0807
 9343W        W27547   8.979  13.046  14.489 -0.2025  0.0295  0.0583
 9344W        W27548   4.032   1.508   4.685  0.2729 -0.2267 -0.1757
 9345W        W27549   9.993  14.645  14.190 -0.1798 -0.0576  0.3760
 9346W        W27550  12.293  11.491   3.813  0.0897 -0.0704 -0.2820
 9347W        W27551   4.261  12.306  10.839  0.1826 -0.1625  0.0665
 9348W        W27552   0.339   1.353   2.117  0.2615 -0.1489 -0.0522
 9349W        W27553   4.989  12.819  11.235 -0.1440 -0.4439  0.0892
 9350W        W27554   3.508   7.738   4.594  0.0126 -0.2443 -0.1118
 9351W        W27555   2.319  15.471   1.460  0.1809  0.1499  0.0391
 9352W        W27556  14.956  15.638  14.211 -0.1197 -0.1843  0.2111
 9353W        W27557   4.402   7.982   0.857 -0.2536  0.2062  0.1219
 9354W        W27558  10.374  11.933   1.579 -0.3002 -0.0323  0.3613
 9355W        W27559  15.841  17.069   1.630  0.3481 -0.0036 -0.1245
 9356W        W27560   8.661  16.571   0.804  0.3089 -0.0154 -0.0353
 9357W        W27561   4.395   9.306  13.872  0.1662  0.3377 -0.0496
 9358W        W27562   0.264   2.551   4.314 -0.4513 -0.1771  0.1612
 9359W        W27563   7.082   8.701   2.757  0.2293  0.3472 -0.1210
 9360W        W27564   6.920  13.012  11.725  0.0038  0.0764  0.0081
 9361W        W27565   9.353   2.065   5.239  0.1123  0.2662  0.1937
 9362W        W27566   6.868  11.568   1.191  0.1771 -0.0718  0.2664
 9363W        W27567  13.418   1.430   1.961  0.0792  0.0029 -0.0643
 9364W        W27568   0.468  13.065   3.211 -0.2473 -0.0138 -0.0372
 9365W        W27569  10.250   5.186  12.521 -0.2493 -0.0543  0.4138
 9366W        W27570   6.004   0.759   0.237 -0.2939  0.0494  0.1105
 9367W        W27571  15.581   5.878  11.139 -0.0381 -0.0423 -0.0826
 9368W        W27572   7.156   1.047  13.090  0.0078 -0.2882  0.0868
 9369W        W27573   6.786   4.417  14.149  0.0208 -0.2205 -0.0301
 9370W        W27574   1.019   7.211  14.546 -0.0233 -0.0481  0.1433
 9371W        W27575   0.786   1.515   0.426 -0.1226  0.1495  0.1187
 9372W        W27576  15.609   8.391  14.690 -0.0998  0.0221 -0.3356
 9373W        W27577   8.860  14.547  12.747  0.0874  0.1467 -0.4892
 9374W        W27578   8.309   4.672  15.683  0.0400 -0.0398  0.0425
 9375W        W27579   5.820   5.520  13.919 -0.3863 -0.1401  0.2688
 9376W        W27580   4.902   9.515  13.965  0.1596  0.1326 -0.0939
 9377W        W27581  14.516  18.114   3.184  0.0160 -0.2608 -0.0097
 9378W        W27582   5.343  13.116   0.102  0.0793 -0.0222  0.0041
 9379W        W27583  14.925  15.145   3.850  0.1191  0.0349 -0.1845
 9380W        W27584  14.386   9.501   3.500 -0.1305 -0.1095  0.1857
 9381W        W27585   1.712  11.832  12.824  0.1083 -0.2054 -0.1297
 9382W        W27586  15.462  17.536  12.276  0.2864 -0.2832 -0.2178
 9383W        W27587   8.579   4.688  12.920 -0.0276  0.1199 -0.0563
 9384W        W27588  14.777  15.187  11.866 -0.1966  0.2918  0.2200
 9385W        W27589   9.464   1.129   3.619 -0.1149 -0.1539 -0.2516
 9386W        W27590   3.322   4.905  15.675  0.3941 -0.0269 -0.3862
 9387W        W27591  18.235  12.077   0.798 -0.0311  0.0997  0.1576
 9388W        W27592  17.571   0.346   4.439  0.0348  0.1364  0.0468
 9389W        W27593  13.603  14.065  14.484  0.3576 -0.1388 -0.0539
 9390W        W27594   3.105  13.728  12.587 -0.0110  0.1393 -0.2332
 9391W        W27595   2.698   4.656   4.778 -0.2055 -0.0401 -0.1551
 9392W        W27596  16.635  15.255   0.549 -0.3931  0.2330  0.0700
 9393W        W27597   0.378   2.496   3.804  0.2052 -0.0666  0.3257
 9394W        W27598  13.820   5.738  15.388 -0.1399 -0.2567  0.1318
 9395W        W27599  15.947   5.855  15.661 -0.0630 -0.0918 -0.2862
 9396W        W27600   3.262  16.027   1.974  0.1127  0.1289  0.4381
 9397W        W27601   7.875  17.965   1.977  0.4426 -0.0073  0.3268
 9398W        W27602   8.430  10.762  13.883 -0.2768  0.1863  0.3848
 9399W        W27603  17.517  14.248  13.076 -0.0753  0.1466 -0.0503
 9400W        W27604   7.948   8.254   4.281 -0.6146  0.1378 -0.0086
 9401W        W27605   9.423  14.864  13.509 -0.1412 -0.1096 -0.0982
 9402W        W27606  14.582  18.289  13.905  0.1187  0.2318 -0.2312
 9403W        W27607   3.488   8.979  11.935 -0.2919  0.0033 -0.1449
 9404W        W27608  11.230  12.244   2.015 -0.5161  0.1895  0.2687
 9405W        W27609  10.981  11.685   5.093 -0.1045  0.0440 -0.0277
 9406W        W27610  13.736   5.613  12.332  0.1626 -0.1145  0.0829
 9407W        W27611  14.136  10.318  15.213 -0.1462 -0.0793  0.0118
 9408W        W27612  18.279   6.671  11.839  0.1285 -0.1539 -0.0254
 9409W        W27613   1.408  12.951  12.068 -0.4149 -0.1398  0.0030
 9410W        W27614   3.275  17.865  14.750  0.2016  0.1059 -0.0423
 9411W        W27615  14.605   8.028   2.152  0.0129  0.1799  0.1002
 9412W        W27616  11.485  12.127   3.043 -0.0167  0.2118  0.1542
 9413W        W27617   3.192  16.885   3.605  0.0300 -0.0519 -0.1881
 9414W        W27618   4.455   5.358   2.297  0.2835  0.0933 -0.1931
 9415W        W27619   7.779  17.823   5.592 -0.1254  0.0500  0.1366
 9416W        W27620  16.054   3.037  12.795 -0.0186 -0.0022 -0.1412
 9417W        W27621  13.999   5.155  14.308 -0.1735  0.0559 -0.0722
 9418W        W27622   0.475   4.572  13.028  0.2460  0.1552 -0.0380
 9419W        W27623   5.717   4.204  13.002  0.2180 -0.3452  0.1203
 9420W        W27624  12.347   4.749  15.146 -0.0930  0.3412 -0.0418
 9421W        W27625   0.500   7.143   1.974  0.0672  0.1102 -0.1830
 9422W        W27626  13.505   3.099   2.497 -0.0496  0.0049  0.1567
 9423W        W27627  11.301  10.844  13.358 -0.2114  0.2511  0.2728
 9424W        W27628   4.014  11.360   0.779  0.0936 -0.3251 -0.1356
 9425W        W27629   9.227  12.188   3.328 -0.1071  0.0389 -0.3544
 9426W        W27630   3.503  15.116   1.097  0.0707 -0.1932  0.0989
 9427W        W27631   3.938   0.258   0.995 -0.0812 -0.2474 -0.0290
 9428W        W27632  16.465  15.216  14.827  0.0144 -0.1602 -0.0536
 9429W        W27633  11.247  16.000   0.875 -0.1814  0.3634 -0.0773
 9430W        W27634  10.034  16.010  12.930  0.0313  0.1033  0.1183
 9431W        W27635  11.290   9.012   4.407  0.0918 -0.2021  0.0266
 9432W        W27636   7.543   2.396  12.907 -0.2945 -0.0479  0.1426
 9433W        W27637  12.951  14.509   0.502  0.1261  0.2063  0.2773
 9434W        W27638  16.159  12.738  12.211  0.0609 -0.1320  0.0121
 9435W        W27639  15.869   4.344  13.647  0.2337  0.1425  0.3838
 9436W        W27640  12.669  12.568   4.245  0.2500 -0.2537 -0.1268
 9437W        W27641  16.699   0.086   2.617 -0.1127 -0.3013 -0.2281
 9438W        W27642  12.753   7.865  11.912  0.1517  0.0167  0.0439
 9439W        W27643   3.660   3.893   1.999  0.0097 -0.4058 -0.0888
 9440W        W27644  10.545  16.708  13.406 -0.0117  0.0194 -0.2292
 9441W        W27645   9.081  11.863   1.279 -0.0540  0.3314  0.0232
 9442W        W27646  16.212   2.915   2.155 -0.0288 -0.0677  0.0832
 9443W        W27647   0.836  10.760  14.783  0.3543 -0.0562  0.1175
 9444W        W27648  10.221  16.150  11.209  0.0628  0.0165  0.1292
 9445W        W27649   2.159  10.137  13.980  0.0868  0.1792 -0.0223
 9446W        W27650  15.216   9.841   3.764 -0.2125  0.0909 -0.0410
 9447W        W27651   0.018  14.699  10.048 -0.0203  0.0021  0.0867
 9448W        W27652   3.114   5.812  13.143 -0.1964 -0.3814 -0.0541
 9449W        W27653  16.799   9.342   3.853 -0.0008  0.0194  0.1836
 9450W        W27654   9.716  17.322   0.443  0.1020 -0.2523  0.0541
 9451W        W27655   1.791   3.793  14.512  0.0931  0.0590 -0.1996
 9452W        W27656   0.650   1.335  13.759 -0.0616 -0.1146 -0.0418
 9453W        W27657  11.672  15.069  11.927  0.0641 -0.0584 -0.0225
 9454W        W27658   7.459  17.709  12.438 -0.1035  0.0954 -0.0029
 9455W        W27659   7.836  14.366   1.875 -0.0168 -0.3334  0.1751
 9456W        W27660   7.316   9.139   3.571  0.3640  0.0085 -0.0074
 9457W        W27661   9.664  10.564   2.411  0.0030 -0.1672 -0.2412
 9458W        W27662   9.534  13.373   3.619 -0.0074 -0.1054  0.0185
 9459W        W27663  15.941  12.385   3.630  0.1095 -0.3395  0.1377
 9460W        W27664  14.988  17.452  13.381  0.0401  0.0968  0.0840
 9461W        W27665  12.709  14.595   3.808 -0.0227  0.1974 -0.1514
 9462W        W27666  18.274  16.144   1.465  0.0899 -0.0752  0.0879
 9463W        W27667  15.499  11.312   1.826  0.2100 -0.0453  0.0651
 9464W        W27668  12.394   1.408  15.399 -0.0239  0.1856 -0.1292
 9465W        W27669   9.163   6.138   3.239  0.1963 -0.3886  0.1476
 9466W        W27670  12.923   4.624   4.432  0.0917  0.1869 -0.1931
 9467W        W27671   3.587   7.628   1.040  0.1755 -0.1403  0.0493
 9468W        W27672   2.918   7.870   1.804  0.2028 -0.0552  0.0802
 9469W        W27673   4.581  16.999   1.060 -0.2192 -0.1369  0.2432
 9470W        W27674   5.879   0.378   1.361  0.1963 -0.0679 -0.1428
 9471W        W27675  15.343   1.186  11.720  0.0414  0.2259 -0.0475
 9472W        W27676  12.570  17.645  11.914 -0.1652 -0.5439  0.2465
 9473W        W27677   4.097  16.919   3.443 -0.1051  0.0341 -0.0337
 9474W        W27678   3.701  13.055  15.106  0.2081 -0.0248 -0.0605
 9475W        W27679   6.504  17.760  12.021 -0.1763  0.1068 -0.1077
 9476W        W27680  14.008   4.390  14.064  0.0465 -0.0378  0.1742
 9477W        W27681  10.593  16.170  13.424  0.2529  0.0005 -0.1544
 9478W        W27682  17.536  13.831   2.697  0.0095 -0.3027 -0.0124
 9479W        W27683   8.675   6.736   2.790  0.2368  0.0791 -0.1848
 9480W        W27684   6.282  10.457  12.020 -0.0983  0.0030  0.0406
 9481W        W27685   9.218   7.795  15.360  0.1171 -0.0721  0.3251
 9482W        W27686  13.899   5.245  15.428 -0.1714 -0.0004  0.1985
 9483W        W27687  18.075  11.706   3.561  0.1433 -0.2142 -0.1231
 9484W        W27688   5.762  16.825  11.610  0.1617 -0.1358 -0.1839
 9485W        W27689   9.114   4.276  12.751 -0.3988 -0.0465 -0.2704
 9486W        W27690   0.760  13.754   0.542  0.0371 -0.2377  0.3049
 9487W        W27691  14.318  11.844   3.178 -0.1154 -0.0174  0.0502
 9488W        W27692  14.617   9.704   3.947  0.0751 -0.0179 -0.2400
 9489W        W27693   4.087   1.008  13.560  0.1566  0.0073  0.0145
 9490W        W27694  17.612  11.730  14.675  0.1651  0.2463 -0.0081
 9491W        W27695   0.862   1.558  12.753 -0.0080  0.0971  0.4688
 9492W        W27696   4.636   4.696   4.803  0.1887 -0.1630 -0.2525
 9493W        W27697   6.679   6.211  10.703  0.0432  0.0701 -0.3951
 9494W        W27698   8.329  14.830   2.988  0.0023  0.3752  0.1018
 9495W        W27699   6.877   8.617   1.302  0.0654  0.1545 -0.0546
 9496W        W27700  11.929  11.631   1.335 -0.2562 -0.0983  0.3426
 9497W        W27701   3.811  18.069  13.052  0.3297 -0.0882 -0.1232
 9498W        W27702  14.193  16.854  11.249 -0.0910  0.0997  0.0124
 9499W        W27703  10.539   0.317   1.427 -0.2274  0.0713  0.0932
 9500W        W27704  13.433  17.717   0.097  0.1617 -0.1615  0.3303
 9501W        W27705   1.902   5.050  12.961 -0.2148  0.1315  0.2286
 9502W        W27706  13.806  14.808   2.820 -0.1226  0.2167 -0.1085
 9503W        W27707  17.840  10.439  14.228 -0.2142  0.2238 -0.0347
 9504W        W27708   2.742   4.555   1.417 -0.1439  0.1207 -0.0805
 9505W        W27709  10.115   4.664  14.706 -0.1283  0.1363  0.0092
 9506W        W27710   3.898  11.630   3.367  0.1899 -0.0241 -0.0603
 9507W        W27711  17.579  11.584  11.915 -0.1668  0.1559 -0.1709
 9508W        W27712   3.699  10.378   2.899 -0.2527  0.0140 -0.0691
 9509W        W27713   0.051  17.935   4.751  0.0922 -0.1265 -0.1773
 9510W        W27714  17.635  17.267   3.572 -0.1284  0.0799  0.1939
 9511W        W27715  10.292  10.963  12.565  0.0535  0.0347  0.1307
 9512W        W27716   2.692   6.677  14.653  0.0120 -0.1070 -0.0959
 9513W        W27717  11.035   7.261  14.418  0.2304  0.0947 -0.0175
 9514W        W27718   9.895   4.301   3.055  0.0882  0.0034 -0.1101
 9515W        W27719   4.962  12.880   0.231  0.2028  0.2287 -0.3518
 9516W        W27720   7.595  14.806  14.775 -0.1502 -0.2156  0.0673
 9517W        W27721  16.442  13.172   2.952  0.1211  0.1272 -0.0399
 9518W        W27722  16.566  14.302  12.564 -0.0408 -0.2166  0.2844
 9519W        W27723  11.447  12.402  14.116 -0.0081 -0.1295 -0.1343
 9520W        W27724   0.128  17.732  15.017  0.2227 -0.3890  0.0006
 9521W        W27725   7.677  17.447   4.245  0.2554  0.3082 -0.1495
 9522W        W27726  17.136  10.085   4.848 -0.2763  0.1148 -0.1610
 9523W        W27727   5.853   8.022  13.161 -0.2566 -0.0897  0.0991
 9524W        W27728  14.566   5.662  13.643 -0.1483  0.0618 -0.1597
 9525W        W27729   5.882   2.284   4.699 -0.2255 -0.0558  0.2091
 9526W        W27730  18.256   0.382   0.808 -0.0557  0.1909  0.0290
 9527W        W27731   8.254  18.371   4.375  0.0174 -0.0144 -0.1273
 9528W        W27732   9.888   2.405   3.484 -0.0046 -0.1485  0.2376
 9529W        W27733  12.084   7.696  11.945  0.0985  0.0270  0.0237
 9530W        W27734  16.078   6.069   3.074 -0.2293 -0.1969  0.2765
 9531W        W27735   3.571   1.221   4.286 -0.0084  0.2108  0.0297
 9532W        W27736   7.534   9.168   0.482  0.0478  0.2559 -0.1398
 9533W        W27737  14.116   5.765  13.427 -0.0475  0.3394 -0.3287
 9534W        W27738  17.064   3.496  11.657  0.3370 -0.2380 -0.1180
 9535W        W27739   4.897  17.764   0.476 -0.0481  0.0625 -0.2988
 9536W        W27740   6.572   0.846  10.166 -0.0273 -0.1441  0.1137
 9537W        W27741  10.844   6.696   1.602 -0.2525  0.1910 -0.4056
 9538W        W27742   1.027   4.461  11.099  0.2004 -0.1645  0.0409
 9539W        W27743   0.373   9.785  10.829  0.0101 -0.0350  0.4445
 9540W        W27744   8.732  14.583   3.899 -0.0174  0.1935  0.2135
 9541W        W27745   2.845   1.709   1.789 -0.2752 -0.1741 -0.2565
 9542W        W27746   4.221   2.923  14.300  0.1528 -0.1173  0.3669
 9543W        W27747  11.205   8.103  11.463 -0.1428  0.0322 -0.2955
 9544W        W27748   4.392   6.292   1.978 -0.0942  0.1192 -0.0475
 9545W        W27749   7.908   1.761  12.436  0.1573 -0.1352  0.0964
 9546W        W27750  10.394  15.565  14.036 -0.1809 -0.0635 -0.1172
 9547W        W27751   5.831   7.919  14.891  0.0611 -0.1637 -0.1515
 9548W        W27752  13.809   7.013  15.112  0.1808  0.2110  0.3213
 9549W        W27753  14.383  14.286   2.115  0.1121 -0.4110 -0.0007
 9550W        W27754   6.828   8.805  10.998  0.0140  0.1466 -0.0139
 9551W        W27755   6.267   6.814  10.031  0.0022 -0.0577 -0.2297
 9552W        W27756   7.567   7.465   1.131 -0.2149  0.0780 -0.2063
 9553W        W27757   1.331   6.900  12.712 -0.2526 -0.1710  0.1826
 9554W        W27758   6.933   6.406   2.684 -0.2385  0.1616  0.1425
 9555W        W27759   0.217   7.586  11.491 -0.0601 -0.1504 -0.1873
 9556W        W27760  11.516  13.904  13.683 -0.0125 -0.0799 -0.0022
 9557W        W27761   3.470   7.233  12.560 -0.3610 -0.2187  0.2258
 9558W        W27762   5.324   6.423  14.031 -0.0249  0.4502 -0.3309
 9559W        W27763  11.721  11.973  10.526 -0.1356  0.2107  0.0796
 9560W        W27764   8.887   3.778   2.338  0.1035 -0.2519  0.1956
 9561W        W27765   1.669  11.489  14.214 -0.1142 -0.2385 -0.2064
 9562W        W27766   6.702   8.061   5.198 -0.0999  0.0914 -0.2650
 9563W        W27767  15.725   2.221  11.864 -0.0949 -0.3194  0.4377
 9564W        W27768   8.191  11.182   3.622 -0.1170 -0.0488 -0.1033
 9565W        W27769  17.884  16.883   0.718 -0.0763 -0.0524  0.3207
 9566W        W27770  15.394  12.026  14.151  0.0815 -0.2673 -0.0281
 9567W        W27771  17.184  11.879   3.723  0.0202  0.0792  0.2106
 9568W        W27772  16.365  13.144   2.367 -0.1031 -0.1787 -0.3215
 9569W        W27773   9.159   0.211  15.656 -0.0244  0.0244  0.0282
 9570W        W27774   4.712  12.628  13.067  0.1310 -0.0350 -0.0438
 9571W        W27775   6.399  13.706   2.107  0.0144  0.2074 -0.0436
 9572W        W27776   7.440   6.611   1.877 -0.0235  0.0595 -0.0645
 9573W        W27777  17.949  11.790  12.170  0.1401  0.1585 -0.0741
 9574W        W27778  12.064   5.126  14.053  0.0823  0.0032 -0.0410
 9575W        W27779  11.606  11.408  15.083 -0.1398 -0.4269  0.1012
 9576W        W27780  14.800  10.128  12.773  0.3089  0.0866  0.1784
 9577W        W27781   9.964   6.262   3.753  0.3155 -0.1345  0.2466
 9578W        W27782   6.360  16.640   3.878 -0.2216 -0.0368 -0.0758
 9579W        W27783   6.725  17.469  10.942 -0.0124  0.2761  0.1836
 9580W        W27784  12.219   9.670   4.247  0.2198 -0.2468 -0.1655
 9581W        W27785  16.100   2.232  14.036  0.2155  0.0207 -0.3886
 9582W        W27786  13.785   2.250  12.337  0.1458  0.0624  0.4668
 9583W        W27787  16.933  16.295   2.809  0.2258  0.0795 -0.3191
 9584W        W27788  17.191   7.861  15.140  0.1837 -0.2720 -0.1777
 9585W        W27789   7.131   7.137   4.893  0.0427 -0.0927  0.0192
 9586W        W27790  12.645   8.643  13.821  0.1842 -0.1092 -0.0643
 9587W        W27791  17.749   1.135   4.039  0.0803  0.0852  0.0544
 9588W        W27792  15.516  15.432   3.468 -0.1525 -0.0383 -0.1468
 9589W        W27793   6.087   4.734  15.610  0.1157  0.3393 -0.0149
 9590W        W27794  11.617  10.243  12.641 -0.0917 -0.1092 -0.1933
 9591W        W27795  11.742  12.975  15.220  0.1159  0.0231 -0.1031
 9592W        W27796  12.527   8.211   6.051 -0.0042  0.0490 -0.0910
 9593W        W27797  12.906   5.105  11.912 -0.1557 -0.1269  0.0156
 9594W        W27798   7.997  12.116  11.473  0.0256 -0.0399 -0.1146
 9595W        W27799   3.802   5.101   4.216  0.0408 -0.1367  0.2473
 9596W        W27800   2.314   9.001   0.975  0.2566  0.3220  0.0693
 9597W        W27801   7.994  17.706   0.396 -0.1168 -0.3322 -0.1080
 9598W        W27802   7.182  14.648   3.178 -0.0237  0.2708  0.1426
 9599W        W27803  11.675  16.567  11.443  0.0015  0.0681  0.0951
 9600W        W27804  10.130  17.750  14.846  0.0981  0.0263 -0.0353
 9601W        W27805   7.937  16.583  13.602 -0.2897 -0.0480 -0.2448
 9602W        W27806   9.114   8.257   3.749  0.0408 -0.0002 -0.3614
 9603W        W27807  12.202  15.616  15.466 -0.2134  0.0304  0.0825
 9604W        W27808   7.437  15.726   3.198 -0.0236  0.0520 -0.0173
 9605W        W27809  17.854  12.669  14.070 -0.1390  0.1264 -0.2682
 9606W        W27810  16.146  16.842  12.716 -0.0025 -0.1885  0.0494
 9607W        W27811   7.766   6.912  11.538 -0.0757  0.0847  0.3485
 9608W        W27812  10.210   6.077  13.711  0.0269 -0.1568  0.1333
 9609W        W27813  15.775   2.601   3.813 -0.1808  0.1098  0.1500
 9610W        W27814   0.736   7.627  11.283  0.1946 -0.0377  0.2075
 9611W        W27815   4.625   1.086   0.408  0.2689  0.1965 -0.1315
 9612W        W27816   1.329  16.550   0.111 -0.0952 -0.0697  0.1733
 9613W        W27817  14.506   8.574  15.314  0.1413  0.1297  0.0399
 9614W        W27818   6.999   2.829  15.497 -0.0815  0.0473 -0.3310
 9615W        W27819   3.455   6.119  14.868 -0.1799  0.1690  0.0684
 9616W        W27820   8.201  14.318  14.367 -0.1365  0.1229  0.0584
 9617W        W27821  10.100  17.741  11.885 -0.0978  0.2823  0.1232
 9618W        W27822   2.208  14.836   3.218  0.1411  0.2179 -0.1987
 9619W        W27823  12.007  14.154  12.778 -0.1075  0.4009  0.1737
 9620W        W27824  15.015  13.257   2.091  0.2292  0.0740  0.0712
 9621W        W27825   0.380   7.087   0.806  0.0229 -0.2067 -0.0991
 9622W        W27826  18.294   0.798   2.728  0.0716 -0.1022 -0.2762
 9623W        W27827  15.872  17.685  13.886  0.2702  0.1506  0.0520
 9624W        W27828   8.074  14.018   9.977  0.3494 -0.3270  0.0157
 9625W        W27829   7.201  13.891   2.703  0.2410 -0.1423 -0.2392
 9626W        W27830   2.952   5.411   2.279  0.0869  0.0036  0.1668
 9627W        W27831   7.759  15.908  10.986 -0.1230 -0.1678  0.0574
 9628W        W27832  15.174  15.606  11.706  0.0361  0.0991  0.1223
 9629W        W27833  11.961   1.989  13.643 -0.0659 -0.2023  0.0395
 9630W        W27834   4.573   1.939   0.361 -0.1165 -0.1041 -0.1112
 9631W        W27835  11.134   1.321   1.568 -0.3255 -0.0544  0.2218
 9632W        W27836  14.069   5.553  14.609 -0.2351 -0.2325  0.0596
 9633W        W27837  10.951   1.700   0.809  0.0740  0.2557  0.0519
 9634W        W27838   0.890  12.036  12.135 -0.0131  0.0257 -0.2060
 9635W        W27839   9.611   6.432   1.672  0.1882  0.3656 -0.4889
 9636W        W27840  13.511  14.363  11.083 -0.1392  0.0690  0.1415
 9637W        W27841   0.041  17.888   3.701  0.3260 -0.0162 -0.3275
 9638W        W27842  11.043   4.165   3.809  0.0762 -0.0169 -0.1108
 9639W        W27843  13.593   9.014   3.870  0.0914  0.0162 -0.5562
 9640W        W27844  14.346   5.898   4.619 -0.2028 -0.1467 -0.0529
 9641W        W27845  15.954  16.651   2.798  0.2606  0.2480 -0.0870
 9642W        W27846  13.713  14.647  15.363  0.0994 -0.0705 -0.1210
 9643W        W27847  13.463  17.015   3.206 -0.3685  0.1927 -0.0628
 9644W        W27848  13.761   0.315   1.320  0.1782  0.1109  0.1361
 9645W        W27849  12.233   8.261   1.381  0.1231 -0.1056  0.1155
 9646W        W27850   2.531  17.039  12.337 -0.0329  0.2425 -0.2128
 9647W        W27851  15.621   0.809   2.617 -0.4145 -0.1892  0.0830
 9648W        W27852   4.926   6.039   3.946  0.0084  0.4142  0.3290
 9649W        W27853   5.281   5.553  11.552  0.0345  0.1426  0.1143
 9650W        W27854   5.708   1.799  12.411 -0.0952  0.0419  0.5845
 9651W        W27855   3.349   5.941  12.283 -0.2508  0.2305 -0.0104
 9652W        W27856   8.810  10.863   0.704  0.3224 -0.2036 -0.3140
 9653W        W27857   6.561  13.216   3.004 -0.1566 -0.2832  0.1590
 9654W        W27858   6.115  16.321  13.060  0.1344 -0.0909  0.1859
 9655W        W27859   0.678   2.304  11.631  0.2266  0.1693 -0.1632
 9656W        W27860   6.117   9.578   0.282  0.2245 -0.4181  0.1641
 9657W        W27861   4.872   9.979   2.100 -0.0335 -0.0154  0.0945
 9658W        W27862  16.775  13.974   0.347 -0.1828 -0.0982  0.1681
 9659W        W27863   4.953  13.084  10.831 -0.1476 -0.1519  0.1793
 9660W        W27864  10.400   3.262   2.818  0.0210  0.0369 -0.0265
 9661W        W27865   8.815   8.188  14.900 -0.1923 -0.3101 -0.0877
 9662W        W27866   7.566  17.349  15.025 -0.2958  0.1322 -0.3111
 9663W        W27867   9.400   8.705   4.376  0.2526  0.2322  0.1356
 9664W        W27868  13.784   0.725  11.081  0.0819  0.0149 -0.1541
 9665W        W27869   4.502  18.316   3.514  0.2840  0.1066 -0.1554
 9666W        W27870   9.251   9.876  12.588  0.2900 -0.2296  0.1346
 9667W        W27871   3.290   5.589   0.538  0.1978  0.2248  0.1483
 9668W        W27872   0.235   4.853  14.834  0.2361 -0.0287 -0.2167
 9669W        W27873   8.874  13.665  13.727  0.2456  0.0501  0.1021
 9670W        W27874   2.870   4.235   2.439  0.1454 -0.0917  0.1511
 9671W        W27875   3.968  17.672   2.424 -0.0881 -0.3466 -0.3018
 9672W        W27876   3.661  11.663   1.644 -0.1564  0.0468  0.2075
 9673W        W27877   1.354   0.688   2.136 -0.0712  0.1695  0.0201
 9674W        W27878  13.205   5.202   2.528  0.2049  0.2226 -0.0450
 9675W        W27879   1.319   5.717  12.338 -0.2313 -0.0601  0.0165
 9676W        W27880   8.533   5.501  15.233  0.2043 -0.1555 -0.1470
 9677W        W27881  14.103   6.702   3.940 -0.2155  0.2602 -0.0861
 9678W        W27882   4.348   2.080  14.229 -0.0936 -0.1094 -0.0787
 9679W        W27883  13.513  17.608   3.885 -0.2823  0.1941 -0.2057
 9680W        W27884   9.873  11.621  13.306 -0.0832 -0.1622 -0.3133
 9681W        W27885  13.148  14.106   3.107  0.1541 -0.3894 -0.2853
 9682W        W27886  18.275  17.886  13.706  0.2980 -0.0251  0.0176
 9683W        W27887   1.937   0.890  14.129 -0.0061 -0.1864 -0.1371
 9684W        W27888  12.362   5.744  15.107 -0.0462  0.1283 -0.0357
 9685W        W27889  11.733  17.042  11.716  0.1668 -0.0137  0.2612
 9686W        W27890   8.271  12.672   4.061 -0.0273  0.2309  0.2967
 9687W        W27891  14.838   6.384  15.722  0.0502  0.2055 -0.1795
 9688W        W27892  14.425  10.093   0.036 -0.1699 -0.0795 -0.2007
 9689W        W27893  14.346   7.473  11.855 -0.1990  0.0030 -0.2583
 9690W        W27894  10.391   6.985   2.720  0.1581 -0.2033  0.1829
 9691W        W27895   8.137  17.885   3.331 -0.1792 -0.3228  0.2676
 9692W        W27896   7.044   6.947  12.757 -0.3203  0.0060  0.0372
 9693W        W27897  17.074   0.927   2.427  0.2047 -0.1090  0.2254
 9694W        W27898   1.287  13.043   2.929  0.1427  0.0408 -0.1103
 9695W        W27899  10.649  15.378  11.124 -0.2294  0.2455  0.3140
 9696W        W27900  13.616   9.204  13.101  0.0153 -0.1559  0.1207
 9697W        W27901  16.137   0.828  11.965  0.0689  0.0332  0.0374
 9698W        W27902  13.073  11.829   3.603  0.0141  0.1922  0.4483
 9699W        W27903  16.028  11.308   1.745  0.3347  0.0852  0.0246
 9700W        W27904  17.115   7.157  13.074 -0.0610  0.2799  0.2281
 9701W        W27905  11.214   1.098   4.353 -0.0494 -0.0999  0.1662
 9702W        W27906  10.053  15.290  14.337  0.2065  0.3676  0.1155
 9703W        W27907  17.701  18.307  14.122 -0.1532  0.0817 -0.2693
 9704W        W27908   3.234  11.683   4.097 -0.1355 -0.0093 -0.0245
 9705W        W27909   4.917   6.779  12.101 -0.3348 -0.0490 -0.2668
 9706W        W27910  12.785   5.285   4.425  0.1365 -0.1141 -0.2052
 9707W        W27911   6.413   3.692  14.172 -0.0813 -0.0080  0.0423
 9708W        W27912   9.355   0.084   4.069  0.0418 -0.4499  0.0883
 9709W        W27913   1.216  12.535   2.860 -0.0447 -0.1429 -0.1408
 9710W        W27914   4.998  15.101   2.288 -0.2559  0.0206  0.1772
 9711W        W27915  13.143  11.456   2.803 -0.1466  0.0814  0.0558
 9712W        W27916  13.627   3.550  12.455  0.1310  0.0999  0.1782
 9713W        W27917   8.293   6.064  14.579  0.1782 -0.0262 -0.0398
 9714W        W27918  12.587   8.044   1.637  0.0234 -0.6106 -0.1153
 9715W        W27919   1.530   3.441   2.892  0.2598 -0.2702 -0.0958
 9716W        W27920  11.850   0.862   1.916  0.0735 -0.1091 -0.3177
 9717W        W27921  15.584   7.570   0.519  0.0763  0.0697  0.1159
 9718W        W27922   3.571  13.685   3.955 -0.0411 -0.0591  0.1583
 9719W        W27923  10.406  13.895  12.155  0.3641 -0.1311 -0.1244
 9720W        W27924   7.749  10.474  12.624 -0.0464 -0.0226  0.0167
 9721W        W27925  17.217  10.980  14.497  0.1680 -0.0258 -0.0045
 9722W        W27926   9.818  12.408  15.116  0.0648 -0.2709 -0.0672
 9723W        W27927   3.604  13.122   0.778 -0.1083 -0.3021 -0.0270
 9724W        W27928   7.630   2.598   4.454  0.0037  0.0200  0.1236
 9725W        W27929   1.308   7.344   3.219 -0.0114 -0.1335 -0.0031
 9726W        W27930   1.477  16.453  11.509  0.0194  0.1322  0.2530
 9727W        W27931   7.648   8.522   1.097 -0.0349  0.1810  0.2613
 9728W        W27932  11.815  10.744   1.843 -0.0111  0.1677 -0.1123
 9729W        W27933  13.850  17.306   3.543  0.0440  0.2275  0.0864
 9730W        W27934  12.903   3.812  14.737 -0.2069  0.1225  0.2084
 9731W        W27935   7.641  11.878   2.219  0.2903  0.0208  0.0185
 9732W        W27936  16.979   1.381   0.840 -0.2581  0.0705  0.1403
 9733W        W27937   0.339  15.762   2.379  0.5244 -0.0582  0.3474
 9734W        W27938  10.633   7.212  15.548  0.0527  0.1818 -0.1655
 9735W        W27939   0.557  16.910   4.052 -0.1346  0.4294  0.2112
 9736W        W27940   3.144  10.068   1.997  0.3022 -0.0047 -0.2393
 9737W        W27941  16.257   9.996   4.373 -0.2345  0.2255  0.1208
 9738W        W27942   6.851   4.540   2.626  0.0503  0.0508  0.0207
 9739W        W27943   3.914   0.266   2.867 -0.2271  0.1559 -0.3674
 9740W        W27944   5.297  17.771  10.890  0.0073 -0.0065  0.0811
 9741W        W27945  15.662   3.972   0.412  0.2680 -0.1208  0.1569
 9742W        W27946   1.807  13.095  15.526  0.0109  0.4238 -0.0469
 9743W        W27947  13.866   7.346   0.671 -0.0141  0.1473 -0.1771
 9744W        W27948  17.597   4.422  13.408  0.1739 -0.1119 -0.0275
 9745W        W27949   0.999   0.726   4.089  0.2620  0.1158 -0.0075
 9746W        W27950  16.285  14.179   0.607  0.1545 -0.0759  0.2844
 9747W        W27951   0.912   1.853   0.851  0.0036 -0.0093 -0.2330
 9748W        W27952  12.742   7.170   2.484 -0.0124 -0.0724  0.2133
 9749W        W27953  14.395  17.854   4.130 -0.3202 -0.1226  0.1386
 9750W        W27954   5.507   5.913  13.043 -0.0823  0.0771  0.0560
 9751W        W27955   0.909  11.834   3.466  0.2013  0.2450  0.0968
 9752W        W27956   1.874   2.692  10.855  0.0949  0.2367 -0.0161
 9753W        W27957   2.730   0.691  14.725  0.3174  0.2253 -0.1616
 9754W        W27958   4.550   0.593   3.595 -0.0757 -0.0380 -0.3327
 9755W        W27959   1.762  12.437  13.791 -0.1760  0.2123 -0.2940
 9756W        W27960   7.950   9.107   4.531  0.0074  0.0922  0.2265
 9757W        W27961  11.121  10.123   0.739  0.3530 -0.1496  0.0906
 9758W        W27962  10.146  11.379   1.830  0.2251  0.1286 -0.1790
 9759W        W27963   9.164  15.582   3.248  0.1462  0.0818  0.1028
 9760W        W27964  16.721   0.265   1.992  0.0759 -0.1793  0.0785
 9761W        W27965  12.825   9.277  13.377 -0.0773 -0.1527 -0.1801
 9762W        W27966   6.454   2.883  11.463  0.0507  0.3528 -0.0109
 9763W        W27967   6.676  14.054  11.956 -0.0993 -0.1774 -0.0369
 9764W        W27968  16.639   9.858   0.993  0.0870  0.1572  0.0129
 9765W        W27969  17.868   7.205  11.231 -0.0646  0.3540  0.1451
 9766W        W27970  12.620   8.884   4.201 -0.2175 -0.1285 -0.2372
 9767W        W27971   0.747  11.204   4.286 -0.0830 -0.1437  0.0238
 9768W        W27972   2.022   1.393   1.677  0.0386 -0.0872 -0.0920
 9769W        W27973   5.194   2.373  12.437 -0.0652 -0.2675 -0.0651
 9770W        W27974   0.645  12.536  14.470  0.1225  0.0031 -0.2647
 9771W        W27975  10.833  13.998  11.856 -0.0766  0.0786 -0.0433
 9772W        W27976   5.993  16.560  12.586 -0.1107 -0.5992 -0.0701
 9773W        W27977   6.540  12.196  13.981  0.1024  0.3110 -0.0045
 9774W        W27978   9.819  10.411  13.821 -0.4046 -0.1322 -0.1292
 9775W        W27979   5.646   4.180   2.708  0.0323 -0.0509  0.0764
 9776W        W27980  10.714  15.881  10.952 -0.0658  0.1071  0.3187
 9777W        W27981  17.874  12.960   1.433 -0.0569 -0.0217 -0.0111
 9778W        W27982   9.588  11.230  12.309 -0.1647  0.0997 -0.1356
 9779W        W27983  11.989  13.831  12.305  0.4093  0.0468  0.0071
 9780W        W27984   6.189  14.833   2.465 -0.1022 -0.0600 -0.0653
 9781W        W27985  15.301  10.680  15.715 -0.0932  0.2933  0.0453
 9782W        W27986   9.002   4.387   4.876 -0.1737  0.0502 -0.2956
 9783W        W27987   9.637   6.079   1.351 -0.0949 -0.2527  0.0235
 9784W        W27988   9.379   4.523  12.376 -0.0560 -0.1657 -0.0731
 9785W        W27989  14.328  14.327   3.934 -0.2282 -0.1994  0.0022
 9786W        W27990   7.883  11.039  11.532  0.0079  0.0833 -0.1109
 9787W        W27991   1.996   4.047  11.606 -0.2279  0.0273 -0.1765
 9788W        W27992  14.988  11.218  15.156 -0.0927 -0.0005 -0.0261
 9789W        W27993  15.349  11.563   2.967  0.0449 -0.1580 -0.3767
 9790W        W27994  11.886   0.923   4.187 -0.0834  0.2285 -0.1274
 9791W        W27995   0.571  16.328  13.810 -0.3218 -0.1603 -0.0086
 9792W        W27996   6.043  18.187   1.425  0.1205 -0.2134  0.1629
 9793W        W27997   1.432  15.349  12.380  0.1852 -0.1256 -0.1513
 9794W        W27998   1.451   0.607   3.940 -0.0111 -0.0556 -0.0082
 9795W        W27999  18.112   6.358  14.397 -0.1404  0.1595  0.2464
 9796W        W28000   9.540  10.759   0.124 -0.3165  0.2816  0.1491
 9797W        W28001   2.706  12.338   1.795  0.1024 -0.1138 -0.3144
 9798W        W28002   5.632   1.729  14.889  0.0815  0.0787 -0.1027
 9799W        W28003   9.101  17.057   2.424  0.1315 -0.0911 -0.0498
 9800W        W28004   4.253   0.964  14.434 -0.0976 -0.1258 -0.0071
 9801W        W28005  17.525   6.431   0.460 -0.1236 -0.0439  0.3531
 9802W        W28006  11.344  13.190   3.317 -0.0083 -0.1973  0.0128
 9803W        W28007   1.286   0.193  15.006  0.1551 -0.0183 -0.0732
 9804W        W28008   4.468  12.023  14.980  0.0980 -0.2291 -0.2683
 9805W        W28009  16.051  16.004   1.373  0.0262 -0.0537  0.1590
 9806W        W28010  14.639   8.338   3.429  0.1276  0.1318 -0.1451
 9807W        W28011  16.332   4.618  12.114  0.0887 -0.1704  0.1360
 9808W        W28012   0.980  14.806  13.598 -0.1085  0.2099  0.2007
 9809W        W28013  17.498  14.240   2.973 -0.0227 -0.1852  0.0406
 9810W        W28014   9.704   7.498   0.174  0.0318 -0.0235  0.0209
 9811W        W28015  13.583   0.052  12.686  0.0538  0.0717 -0.1284
 9812W        W28016  18.039  14.209  11.796  0.0285 -0.1422  0.0046
 9813W        W28017  13.536  12.219  14.172  0.2399 -0.3513  0.2384
 9814W        W28018   6.577   1.904  12.126 -0.0010  0.0485  0.3089
 9815W        W28019  12.609   6.609  11.984 -0.3144 -0.1847 -0.2788
 9816W        W28020   4.060   0.242   4.112 -0.1643 -0.0258  0.2073
 9817W        W28021   8.600  18.041   3.285  0.0399  0.0452 -0.1082
 9818W        W28022   5.863  10.263   1.143 -0.1175  0.0594  0.1019
 9819W        W28023   9.775  11.969  10.626  0.0900  0.2096  0.1641
 9820W        W28024   9.699   6.858  11.335 -0.3103 -0.1326 -0.2304
 9821W        W28025   1.267   1.622  11.311  0.2422  0.0027 -0.1093
 9822W        W28026   8.568  10.670  15.446 -0.3961 -0.0124 -0.0153
 9823W        W28027   6.131  15.922  15.245 -0.0659  0.1360 -0.0569
 9824W        W28028   3.250  10.671  13.460 -0.1410 -0.0263 -0.1921
 9825W        W28029  11.871   9.463  12.938 -0.0424 -0.0607 -0.2230
 9826W        W28030   2.394   4.666   3.299  0.1686  0.0267  0.1876
 9827W        W28031   0.424  14.425  11.713  0.0635  0.0642 -0.3776
 9828W        W28032   0.289  13.674  12.219 -0.1738 -0.1672  0.1541
 9829W        W28033   4.108  17.719   2.942 -0.0958 -0.2760  0.3052
 9830W        W28034   6.257   0.397   4.505 -0.1210 -0.2084 -0.3151
 9831W        W28035  10.452   3.002  15.322 -0.1789  0.4164  0.1758
 9832W        W28036   9.779   3.802   3.489 -0.1214  0.2967 -0.0084
 9833W        W28037  14.293  17.168  13.961 -0.2661 -0.2415 -0.1414
 9834W        W28038  17.264  15.808  12.242 -0.0614 -0.2116 -0.0402
 9835W        W28039  12.433   8.782  14.693 -0.2336 -0.2886  0.2381
 9836W        W28040  13.591   1.670  15.721  0.4343  0.0176 -0.1406
 9837W        W28041  16.856   6.640   4.363  0.0843 -0.1056  0.0170
 9838W        W28042  11.077   5.522   1.338 -0.1758 -0.0025 -0.0280
 9839W        W28043   5.621  12.546  14.185  0.1127  0.2994 -0.1717
 9840W        W28044   1.392   0.830   4.392 -0.1955 -0.2282 -0.0411
 9841W        W28045   5.090  18.083   0.104 -0.0242  0.3967 -0.4164
 9842W        W28046   1.959   1.970  15.099  0.1213 -0.1499 -0.1430
 9843W        W28047   0.950   0.246   3.922  0.0453  0.1521 -0.0804
 9844W        W28048  11.194  12.213  12.085  0.0766 -0.2325  0.0604
 9845W        W28049   4.872  12.949   1.052 -0.3764 -0.1916  0.1063
 9846W        W28050  16.303   7.432  14.167 -0.2558  0.0567 -0.0354
 9847W        W28051   1.730  11.815   0.558 -0.5548 -0.0640  0.0565
 9848W        W28052  13.567  10.822   0.178 -0.3832  0.2261 -0.0381
 9849W        W28053   6.906   7.671  10.312  0.1681  0.1681  0.0540
 9850W        W28054  11.462   7.640   4.252  0.1908 -0.0378  0.1723
 9851W        W28055  12.866   0.753  12.547 -0.1421 -0.3194  0.0069
 9852W        W28056  15.478   2.417   2.408  0.0610  0.0963  0.2551
 9853W        W28057   2.659   5.551   3.416  0.2055  0.0825 -0.0237
 9854W        W28058  13.450  11.911  11.893 -0.0845  0.3558 -0.1875
 9855W        W28059   4.171  18.239  14.926 -0.1794  0.3965 -0.0048
 9856W        W28060   3.579   2.541  11.521  0.1154  0.3010  0.2138
 9857W        W28061   6.032   1.544   2.888 -0.0448  0.0645  0.1115
 9858W        W28062   7.062   0.338  11.392  0.0184 -0.1457 -0.3222
 9859W        W28063  12.159   6.571   0.381  0.1910 -0.0188 -0.0862
 9860W        W28064  13.527  14.550  13.965 -0.1532  0.0948  0.1585
 9861W        W28065   7.384   7.755  11.643 -0.1494 -0.1975 -0.1052
 9862W        W28066  14.967   1.356   0.902  0.1814 -0.0724  0.0005
 9863W        W28067  16.871   2.301  15.386 -0.0568 -0.1122  0.2358
 9864W        W28068   7.511  16.397  12.773 -0.2792 -0.1561 -0.2657
 9865W        W28069  10.611   1.521   3.381  0.0462 -0.2209 -0.1078
 9866W        W28070  17.303   2.490  15.565 -0.0316 -0.1410  0.3888
 9867W        W28071  11.683  14.118   5.094 -0.1285  0.0645  0.3208
 9868W        W28072  11.380   6.184   0.884  0.0658  0.0101  0.1248
 9869W        W28073  15.994  15.299  11.248 -0.0180  0.2296 -0.3429
 9870W        W28074   3.725  17.682  13.506 -0.0464  0.1980  0.1645
 9871W        W28075   7.370   7.166  14.630  0.1733  0.2802 -0.1402
 9872W        W28076  11.403   7.793   0.281 -0.0350 -0.2922  0.1049
 9873W        W28077  14.056  11.125  11.445  0.0776  0.2551  0.1162
 9874W        W28078  16.218   7.929  15.109  0.4940 -0.2603  0.2106
 9875W        W28079   0.472   3.834  15.720  0.0066 -0.0599  0.1968
 9876W        W28080  16.767   7.795  15.442 -0.0047  0.0567  0.2089
 9877W        W28081   4.204  13.152   0.161 -0.1194 -0.1719 -0.0873
 9878W        W28082   7.305   4.248   1.647 -0.3203  0.1585 -0.2261
 9879W        W28083   1.562   9.889  14.536  0.0526 -0.0412 -0.5734
 9880W        W28084   6.014   7.344   3.260  0.0378  0.0946 -0.1393
 9881W        W28085  18.107   5.573   4.824 -0.0019  0.1416 -0.0064
 9882W        W28086  15.617   4.020   0.931  0.2445  0.0295 -0.0474
 9883W        W28087  13.025   4.204  13.261  0.1288  0.0629  0.0432
 9884W        W28088   8.164  10.368  11.632  0.1147 -0.2405 -0.0318
 9885W        W28089   9.811   4.258  14.663  0.3237  0.1772  0.0343
 9886W        W28090  14.881   1.047  11.409  0.0071 -0.0196 -0.0524
 9887W        W28091   0.741   9.266   4.321  0.0974 -0.0596 -0.2009
 9888W        W28092  14.294   8.309  14.930 -0.1904  0.0956  0.0394
 9889W        W28093   7.510   1.990   3.379  0.3431 -0.1382  0.0060
 9890W        W28094   7.621  12.888   0.512 -0.0911 -0.1767  0.0781
 9891W        W28095   3.401  12.460  11.580 -0.1013  0.3195 -0.0499
 9892W        W28096  12.901  10.031  14.506  0.0254 -0.1374  0.0718
 9893W        W28097  17.966  12.471   4.217 -0.2662 -0.2237 -0.1858
 9894W        W28098   3.153   5.353   3.537  0.0927 -0.2005  0.1888
 9895W        W28099  14.813   5.529   3.502 -0.1175  0.2805  0.0297
 9896W        W28100   4.424  10.099   3.231 -0.0522 -0.0765  0.0883
 9897W        W28101  13.055  12.074   1.673 -0.0324  0.1439 -0.2991
 9898W        W28102   5.136  11.127   4.328 -0.2548  0.1688 -0.2006
 9899W        W28103   3.400   8.975   0.598 -0.1568 -0.1273  0.0202
 9900W        W28104   4.445   9.291   2.747  0.0582  0.5036 -0.0462
 9901W        W28105   6.532   7.863   1.646 -0.0580  0.0149 -0.2352
 9902W        W28106  10.496   3.845  14.919 -0.0915 -0.0602  0.3541
 9903W        W28107  14.908   3.393   2.411 -0.0708  0.0206  0.0139
 9904W        W28108   2.447  14.861  14.513  0.5531 -0.1315  0.2440
 9905W        W28109  11.264   6.196   3.224  0.4932 -0.3023 -0.0062
 9906W        W28110   7.660  17.411  13.175 -0.0391 -0.3167  0.0753
 9907W        W28111  14.800  13.794  13.128 -0.0225  0.0878  0.0628
 9908W        W28112  15.855   7.834   1.655  0.3336  0.3490 -0.0124
 9909W        W28113   9.341   6.567  11.394 -0.1239 -0.0306 -0.0599
 9910W        W28114   8.471   5.864  12.379  0.0535 -0.0982  0.2117
 9911W        W28115  17.519  12.405   5.421  0.0963  0.2300  0.0477
 9912W        W28116   3.922  12.777  13.936 -0.4904 -0.0472 -0.2783
 9913W        W28117  10.984   1.757  13.380  0.0499 -0.2955 -0.2102
 9914W        W28118   3.653  17.323  14.699 -0.2402  0.1450 -0.0738
 9915W        W28119   1.027  16.538   1.541  0.3210  0.0835 -0.1793
 9916W        W28120  11.162  12.367   0.381 -0.0586  0.2900  0.3243
 9917W        W28121  16.206   2.126   2.052  0.0296 -0.0014 -0.0415
 9918W        W28122  10.345  16.482  13.023 -0.2659 -0.1284  0.0223
 9919W        W28123  14.691   4.881  15.585 -0.0329  0.0996 -0.2071
 9920W        W28124  12.097  15.034  14.812  0.0931  0.1859  0.0447
 9921W        W28125   6.944  14.525  11.794  0.1497  0.0101  0.2700
 9922W        W28126  17.971   0.427  13.306  0.1758 -0.0357 -0.4340
 9923W        W28127  12.920   2.246  14.731 -0.1434 -0.2490 -0.0237
 9924W        W28128   5.425  14.320  13.708  0.2137 -0.1959 -0.0083
 9925W        W28129   0.144   3.937  11.667  0.3633 -0.0379 -0.0472
 9926W        W28130   3.103   3.287  13.163  0.1381  0.0860 -0.0487
 9927W        W28131  15.508   3.274  13.455 -0.0066 -0.2599 -0.3060
 9928W        W28132  13.027  12.825  15.314  0.1149 -0.0935 -0.6263
 9929W        W28133  11.042   5.190  15.632  0.2698 -0.0381 -0.0060
 9930W        W28134   3.503   2.233  14.020 -0.1927 -0.0766 -0.0409
 9931W        W28135  15.773  17.864   0.012  0.1334  0.0429  0.1359
 9932W        W28136   3.346   0.293   4.794 -0.1662  0.0434 -0.2064
 9933W        W28137  17.683   9.440  15.199 -0.0265  0.1289  0.3493
 9934W        W28138   2.254   2.961  11.525 -0.1453  0.1116  0.1808
 9935W        W28139  16.718  11.741   4.763  0.0676  0.3992 -0.0674
 9936W        W28140   6.113   0.788  14.151  0.0785 -0.0773 -0.4002
 9937W        W28141  10.093   0.238   3.224 -0.2131 -0.1104  0.0135
 9938W        W28142  18.173   5.519   2.997 -0.1843  0.0956  0.2034
 9939W        W28143   6.282  10.985   1.709 -0.0297  0.0837 -0.2336
 9940W        W28144   3.281  13.798  13.109 -0.2456 -0.0805  0.1420
 9941W        W28145  17.060   0.981  15.332 -0.1784  0.0531 -0.0696
 9942W        W28146   2.526   2.647  14.208  0.0713  0.0436  0.0952
 9943W        W28147  12.708   8.792   1.014 -0.1334  0.1341 -0.2517
 9944W        W28148   6.267   4.713  13.318 -0.3134 -0.2472 -0.2223
 9945W        W28149  14.192  14.566   5.160 -0.0212  0.0647  0.1501
 9946W        W28150  10.288   0.571  14.197 -0.0326 -0.1268  0.0252
 9947W        W28151   4.469  17.047   5.732 -0.0607 -0.2477 -0.1204
 9948W        W28152  13.905  10.987   2.164  0.0121  0.0074 -0.0127
 9949W        W28153  17.055   4.247  12.208 -0.3844  0.0240 -0.3917
 9950W        W28154  17.017   5.677  11.707 -0.0719  0.0326  0.4299
 9951W        W28155  16.798  11.675  14.871 -0.3097 -0.1794  0.1631
 9952W        W28156  10.935  11.039  12.353  0.3517  0.1030  0.3221
 9953W        W28157   9.957  15.759  14.649  0.0986  0.2198 -0.3008
 9954W        W28158   3.847  13.945  13.056  0.1790  0.0184  0.1040
 9955W        W28159   9.490  12.698  15.547 -0.0104  0.2502  0.1076
 9956W        W28160   9.914   9.306   0.386 -0.0151 -0.1430  0.1286
 9957W        W28161  16.247   8.632   4.508 -0.0489 -0.0385 -0.3709
 9958W        W28162   3.080  11.840  13.910 -0.2845  0.1504 -0.0150
 9959W        W28163  11.102  14.592  15.083  0.1278  0.0080 -0.1879
 9960W        W28164  12.229   4.322  12.908 -0.1007  0.0998 -0.1246
 9961W        W28165  10.864   8.253   2.798  0.1345 -0.1378 -0.2750
 9962W        W28166   7.411   3.651   1.724  0.1983  0.0831 -0.1407
 9963W        W28167   4.979   9.357   3.662  0.3380  0.0775  0.3165
 9964W        W28168  11.217  15.695   4.736  0.2107  0.0644  0.1709
 9965W        W28169  15.747  15.751   2.073 -0.3516  0.2761  0.0320
 9966W        W28170  12.465  16.605   0.252  0.3003  0.0993  0.3992
 9967W        W28171  11.303   0.236   0.833  0.2904  0.2388 -0.1544
 9968W        W28172  10.025  13.661  10.798  0.0095 -0.0365  0.2550
 9969W        W28173   1.697  16.535  12.548 -0.1623 -0.5375  0.2628
 9970W        W28174   7.272  16.049   2.858 -0.3113 -0.1104 -0.0780
 9971W        W28175   8.655   4.209  12.631  0.0383  0.1777  0.2724
 9972W        W28176   0.130   7.757  13.593  0.1337 -0.1051 -0.1983
 9973W        W28177   0.567   9.423   2.359  0.0501  0.0896  0.0155
 9974W        W28178   6.815  13.667  14.509  0.2076  0.2658  0.0819
 9975W        W28179   7.782  12.251  12.928  0.3864  0.0653 -0.0197
 9976W        W28180   4.696  17.675   4.275  0.2639 -0.0806  0.1145
 9977W        W28181  13.634   7.490   3.892  0.0328  0.0236  0.1620
 9978W        W28182   9.201   4.522  15.218 -0.4392 -0.0395 -0.3763
 9979W        W28183  16.148   1.042   2.050  0.0530 -0.0502 -0.1641
 9980W        W28184   0.473  17.656   3.767 -0.2849 -0.1741  0.2032
 9981W        W28185   7.706   9.067  11.384 -0.0334  0.2008  0.0060
 9982W        W28186   0.529  14.377  14.425  0.2445  0.0825  0.1297
 9983W        W28187   2.575  15.726   1.971 -0.1680  0.0503 -0.1114
 9984W        W28188   7.561  16.753  11.051  0.0262 -0.2701  0.3629
 9985W        W28189   1.222  15.847  11.547  0.1360 -0.0510  0.1418
 9986W        W28190   2.733   6.730   0.180  0.0086 -0.1363  0.1545
 9987W        W28191   4.596  11.704  15.614  0.0358 -0.3333  0.0601
 9988W        W28192  14.337  15.036  13.885 -0.1446  0.1327 -0.3204
 9989W        W28193   7.959   2.326   1.721  0.1364  0.0058  0.1354
 9990W        W28194   3.550   3.056   0.203  0.0775 -0.1152 -0.1539
 9991W        W28195   7.184  15.724   4.156  0.1491  0.3305 -0.3385
 9992W        W28196   1.013  10.831  12.318  0.0247  0.0520 -0.0214
 9993W        W28197   4.616  16.447  14.384 -0.0103 -0.1064 -0.3248
 9994W        W28198   3.185   4.831   5.054  0.1957  0.0661 -0.0732
 9995W        W28199   1.882   1.791   3.352 -0.0168 -0.2280  0.2797
 9996W        W28200  17.413   8.539  14.502 -0.0923 -0.0854  0.2754
 9997W        W28201  13.677  13.337   3.237  0.2766 -0.1441 -0.2683
 9998W        W28202   9.439  10.981   0.844 -0.1867  0.0328  0.0921
 9999W        W28203  16.606  14.861   0.833  0.0173 -0.0723 -0.1385
10000W        W28204  13.177   4.856  15.613 -0.1281 -0.1011  0.1038
10001W        W28205  12.541  16.256  11.497 -0.1307  0.2022 -0.0176
10002W        W28206   2.024  12.832   2.537  0.4411  0.0382  0.0714
10003W        W28207   1.995   7.862  11.819 -0.1624 -0.1992  0.0986
10004W        W28208  14.570   3.692  15.026  0.1762  0.5173  0.1787
10005W        W28209   5.853   4.477  11.504 -0.0781  0.2287  0.0666
10006W        W28210   6.488  16.517   9.503 -0.1333 -0.2393  0.1424
10007W        W28211   8.899  15.200  14.896  0.2333  0.1234  0.0712
10008W        W28212   6.617   6.032   0.137  0.0394  0.0834  0.0186
10009W        W28213  12.704  14.672  13.681 -0.1720 -0.1314 -0.0998
10010W        W28214   2.176  16.443  15.135 -0.0584 -0.0869 -0.0893
10011W        W28215  13.264  16.957   0.926 -0.1352 -0.0081  0.2527
10012W        W28216   6.089  11.129  15.410  0.2568 -0.1444  0.0481
10013W        W28217   3.502  13.388   2.172 -0.1628 -0.2992 -0.0292
10014W        W28218  11.012  16.911   4.964 -0.1481  0.0073  0.1173
10015W        W28219  15.596   5.437  14.907  0.0419  0.0460  0.0016
10016W        W28220   3.823   7.707   3.159 -0.4100  0.0682 -0.0243
10017W        W28221  13.349   1.976   3.498  0.0671 -0.0478 -0.0537
10018W        W28222   1.201   5.946  13.199  0.1672 -0.3533 -0.0198
10019W        W28223  15.460   4.526  11.752 -0.1727 -0.1037  0.4414
10020W        W28224   6.932   7.503   2.580  0.2570  0.1944 -0.0096
10021W        W28225   0.612   1.279  11.355 -0.0087  0.2309 -0.2029
10022W        W28226  11.310   3.262  13.267 -0.0200 -0.0637 -0.2659
10023W        W28227  13.206   9.360   3.550  0.0665 -0.0175 -0.3047
10024W        W28228  12.305  15.207   2.462  0.1701 -0.0045  0.1306
10025W        W28229   8.690   7.427  13.290  0.0745  0.2756  0.1745
10026W        W28230  12.228  14.196  13.316  0.0431 -0.0668 -0.1895
10027W        W28231   9.081  16.915   3.056 -0.0082 -0.2189  0.3483
10028W        W28232  10.027   6.710   4.943  0.2280  0.1013  0.1077
10029W        W28233   4.141   5.219  15.574  0.1541 -0.0872  0.3664
10030W        W28234  18.266   2.569  12.650  0.1413  0.1173  0.2779
10031W        W28235   4.923   1.650  11.216 -0.0674 -0.1049  0.0076
10032W        W28236  18.185  15.931   2.169  0.4421  0.0808 -0.0848
10033W        W28237   5.295   8.143   3.342  0.2398  0.1387 -0.1616
10034W        W28238   9.659   1.180  14.953 -0.0172  0.1317  0.4190
10035W        W28239   5.134   5.104  14.512  0.1341  0.5440 -0.0286
10036W        W28240  17.796   0.126   3.856  0.0006 -0.1415  0.1987
10037W        W28241   0.821  10.654   4.332  0.2271 -0.0563 -0.0996
10038W        W28242   7.460   6.345   5.435 -0.2407 -0.0276  0.0573
10039W        W28243  16.082  17.154   3.968 -0.0594  0.1772 -0.2802
10040W        W28244   5.290   1.970   5.600 -0.0328 -0.0945 -0.1041
10041W        W28245   4.684   3.356   1.477  0.1974  0.0314  0.2375
10042W        W28246  13.338  10.104  15.707 -0.0682 -0.2235 -0.3203
10043W        W28247  17.372   4.179   3.833 -0.2005  0.2402 -0.2087
10044W        W28248  11.246  16.010  12.014  0.0057  0.0533 -0.0762
10045W        W28249   5.730  11.681   0.155 -0.0574  0.0887 -0.0609
10046W        W28250   5.218   6.556  11.771 -0.1622  0.3238 -0.2936
10047W        W28251  11.494  17.887  12.106 -0.1865  0.1444  0.2939
10048W        W28252   1.437  12.343  14.836  0.1479  0.0682 -0.0651
10049W        W28253   3.895   6.506  11.463 -0.1425 -0.0433  0.0839
10050W        W28254  18.047  16.657   2.568 -0.2627  0.0444  0.3009
10051W        W28255   1.258  11.282   1.136  0.0279 -0.1754 -0.1001
10052W        W28256   8.751   0.544  11.235 -0.0866  0.0620 -0.0729
10053W        W28257   4.393  12.223   0.934 -0.2439  0.0334  0.1043
10054W        W28258   5.714  12.823  15.150 -0.0288 -0.0198  0.2706
10055W        W28259   4.526  18.012   0.759  0.0718  0.1407  0.1883
10056W        W28260   2.213  11.741   3.126  0.0713 -0.2058 -0.0136
10057W        W28261   1.737  13.388  12.070 -0.1626 -0.1205  0.1303
10058W        W28262  17.098   5.027   4.902 -0.0560  0.1242 -0.1707
10059W        W28263  12.363   2.216   1.108  0.0326  0.0557  0.1629
10060W        W28264  11.992  16.706   4.471  0.1172 -0.3298  0.3315
10061W        W28265   2.268   9.885  12.600  0.4429  0.0348 -0.0347
10062W        W28266  15.709   2.387  15.405  0.1690  0.0651  0.1312
10063W        W28267  10.326   2.095   2.437 -0.4455  0.1478  0.0806
10064W        W28268  14.640  12.145  12.499 -0.2479 -0.3576  0.0944
10065W        W28269  11.352  11.641   4.294 -0.1634 -0.2273 -0.1567
10066W        W28270  11.394  13.471   0.689  0.1964  0.0286 -0.1673
10067W        W28271   7.613   8.454   5.201  0.1285 -0.0941  0.2162
10068W        W28272   9.257   0.543  15.310 -0.0287 -0.2313 -0.1504
10069W        W28273  11.356   5.054  12.897  0.0680  0.3778 -0.1482
10070W        W28274  15.026   1.549   3.502  0.0386  0.0447 -0.0604
10071W        W28275   3.395  12.801   4.265  0.0191 -0.1833  0.1495
10072W        W28276   5.894  16.672   2.407  0.0786 -0.1255  0.3651
10073W        W28277   7.530   6.440   3.356  0.0056 -0.0533  0.2853
10074W        W28278   4.638   2.613  13.029 -0.1126  0.0534  0.0650
10075W        W28279   3.257   4.533  14.684 -0.0320  0.0640 -0.0874
10076W        W28280   3.811   4.746  15.486  0.2964 -0.2267 -0.0669
10077W        W28281  10.185   3.637   4.711  0.3511  0.0338 -0.0769
10078W        W28282   7.058  16.142  15.334 -0.3683  0.3616  0.1104
10079W        W28283  14.220   9.884   0.837  0.0190  0.0303 -0.1465
10080W        W28284   3.764  17.646   4.233 -0.0181  0.0172  0.2033
10081W        W28285   2.418   9.937  11.320  0.0464 -0.1181  0.1413
10082W        W28286  13.454   2.457   3.591 -0.0668  0.0622  0.0190
10083W        W28287  14.661   7.919  11.444  0.1688 -0.0273 -0.0110
10084W        W28288  17.974  14.564  11.313 -0.2334 -0.0624 -0.1943
10085W        W28289  13.212   1.022   1.062 -0.2243 -0.1441 -0.0925
10086W        W28290   3.767   1.119   0.312  0.1456  0.0630  0.3213
10087W        W28291   4.590   9.684  11.572 -0.2630 -0.0247  0.0374
10088W        W28292  18.351   7.927  12.232  0.0875 -0.0790  0.0607
10089W        W28293  11.017  12.599   4.218  0.0702 -0.0660 -0.0740
10090W        W28294  10.141   8.941  12.565  0.1832 -0.3654  0.0819
10091W        W28295  11.142   3.469   2.150 -0.3582 -0.1543 -0.4167
10092W        W28296  15.873  14.196  14.082  0.0024  0.1692 -0.0240
10093W        W28297   8.245  16.728   4.054  0.1328  0.1066 -0.0800
10094W        W28298   5.066   8.002  15.271 -0.1018 -0.1742  0.1605
10095W        W28299  17.882   8.190  12.247 -0.2035 -0.2547  0.0531
10096W        W28300   4.706   3.978   2.414 -0.2634  0.1867  0.2453
10097W        W28301   1.053  10.301   1.324  0.0580 -0.3650  0.0491
10098W        W28302   8.768  13.972   0.858  0.0971  0.1345  0.0168
10099W        W28303   2.818  14.183   0.441 -0.0581 -0.0541 -0.2846
10100W        W28304   7.069   4.658   1.724  0.0187 -0.1052 -0.0283
10101W        W28305   4.854  17.707  13.819  0.0798 -0.2246 -0.3753
10102W        W28306  10.060  13.814  15.486  0.1291 -0.2353 -0.2150
10103W        W28307  10.029  15.139  10.270 -0.3093 -0.0727 -0.0269
10104W        W28308   6.036  18.202   2.009 -0.0599  0.0058 -0.0371
10105W        W28309  13.639  17.916   0.948  0.1294 -0.1441  0.1466
10106W        W28310   2.227   1.257  14.490  0.3523  0.1035  0.1152
10107W        W28311   1.914  12.430  15.009 -0.2568  0.0720  0.1538
10108W        W28312   6.139  10.229   3.118  0.1214 -0.0774 -0.1446
10109W        W28313  18.124   3.261   3.947  0.0843 -0.1148  0.3230
10110W        W28314   2.132  13.112   2.128  0.0459  0.1002  0.1595
10111W        W28315  12.521  16.154  14.327 -0.1334 -0.3493 -0.0166
10112W        W28316  11.379  18.017  14.872 -0.0745  0.4545  0.0715
10113W        W28317   9.657  17.846  13.073 -0.1711 -0.3579 -0.2276
10114W        W28318   7.810  12.823  14.322  0.0225 -0.1866  0.3240
10115W        W28319   2.863  14.010  14.929  0.1317 -0.2317  0.2250
10116W        W28320   0.216  17.100  10.529 -0.2317 -0.1735  0.2343
10117W        W28321  11.262  16.948  12.022 -0.5135 -0.3357  0.0970
10118W        W28322   4.352  18.277   4.284  0.1176 -0.3301 -0.1150
10119W        W28323  13.708  10.878   0.989  0.2718  0.0026 -0.0776
10120W        W28324  18.064  17.246  13.375  0.0043 -0.2137 -0.1759
10121W        W28325  11.685  11.181  11.853 -0.0835  0.1516  0.1514
10122W        W28326   8.726  11.912   3.630  0.1435 -0.1742 -0.2414
10123W        W28327  18.258   7.708  15.509 -0.1934  0.1405  0.1759
10124W        W28328   9.860  10.595  10.596  0.0619  0.0005 -0.0280
10125W        W28329   7.560  15.575  11.953  0.2379 -0.1594 -0.2294
10126W        W28330  17.828   7.084   1.053 -0.1050  0.1794 -0.1843
10127W        W28331   3.959  15.614   0.932  0.2918 -0.0053 -0.0127
10128W        W28332  11.859   6.281   2.064 -0.2015  0.2014  0.1241
10129W        W28333  13.594  12.492  14.632 -0.0966  0.2609 -0.0242
10130W        W28334   2.914   3.944  14.419  0.0489 -0.0006 -0.0671
10131W        W28335   7.007  10.886   1.608 -0.1361  0.1531 -0.1627
10132W        W28336  14.874   4.454   3.070  0.1273 -0.0993 -0.0773
10133W        W28337  14.353   7.973  13.621 -0.1913 -0.2919 -0.0400
10134W        W28338  15.756  13.547  14.719  0.2234 -0.0727 -0.3097
10135W        W28339  12.400  16.616   4.178  0.3122 -0.1253 -0.1758
10136W        W28340   0.746   0.845  13.318  0.1943 -0.0712  0.1414
10137W        W28341   1.553   0.835  12.357  0.1376 -0.0920  0.1892
10138W        W28342   0.613  16.446  10.780 -0.0786  0.1598  0.2075
10139W        W28343  14.992  17.787   3.813 -0.1611 -0.2265  0.0154
10140W        W28344   4.902   1.607  12.267 -0.0635 -0.2024  0.0508
10141W        W28345  13.944   9.374  14.303  0.1282 -0.1348 -0.0796
10142W        W28346   7.815   7.837  12.241  0.1221  0.0337  0.0492
10143W        W28347  17.466  18.039  11.491 -0.1178  0.2185  0.1313
10144W        W28348   2.251  12.797  13.805  0.0975 -0.0456 -0.0506
10145W        W28349   6.991  15.558   3.183 -0.3105  0.0458 -0.1090
10146W        W28350  10.120   2.949   9.922 -0.0579  0.0817  0.1094
10147W        W28351   6.073   6.954  12.156  0.2057  0.0540 -0.0654
10148W        W28352   0.221   1.996   3.689 -0.3002 -0.0764  0.0511
10149W        W28353  14.055   8.460   5.465 -0.3508 -0.0743  0.0854
10150W        W28354   9.164  13.416   2.360 -0.0800  0.0535  0.0545
10151W        W28355   9.485   7.385   2.877  0.0800  0.0310 -0.2473
10152W        W28356  18.313  16.658   1.526  0.1880 -0.1292  0.1492
10153W        W28357   2.226   8.788   2.336  0.0887 -0.0287 -0.1273
10154W        W28358   9.135   0.788  10.854 -0.0246  0.2236 -0.1194
10155W        W28359   4.026   2.172  13.865  0.0193 -0.4004  0.2231
10156W        W28360   2.523   7.055  10.841 -0.1825  0.1956 -0.2571
10157W        W28361   1.730  13.443   1.553  0.1370  0.0622 -0.0024
10158W        W28362  13.726   5.103   4.600  0.0947 -0.1994 -0.3729
10159W        W28363  14.543  14.428   0.928  0.3464 -0.0431  0.1466
10160W        W28364   7.355  10.130   2.041 -0.1114 -0.1823  0.0126
10161W        W28365  14.671  14.374  14.339 -0.1409 -0.1373 -0.0699
10162W        W28366   4.712   7.488  13.234 -0.1170 -0.1661  0.0041
10163W        W28367  13.968  11.076  14.143 -0.3084  0.0012 -0.0201
10164W        W28368   5.951  11.892   1.734  0.2261  0.1447  0.1268
10165W        W28369  16.653  11.964  15.724 -0.1918 -0.1082 -0.2840
10166W        W28370  12.870  11.620  13.136 -0.3552 -0.0338  0.1414
10167W        W28371   8.392   7.815  15.525  0.2618 -0.1344  0.1087
10168W        W28372  11.845   4.495  15.304 -0.1515  0.2626  0.0623
10169W        W28373  16.888   4.016   2.967 -0.0001 -0.0185 -0.1455
10170W        W28374   0.611   0.993  10.397  0.0675  0.1897 -0.0389
10171W        W28375   7.450  11.997  10.880 -0.2501 -0.0282 -0.3359
10172W        W28376   9.556   4.300   1.838  0.1070 -0.1133 -0.1745
10173W        W28377  10.295  13.457   2.472 -0.3341  0.1142  0.0168
10174W        W28378  13.594   6.081   5.068 -0.1623 -0.1202  0.2293
10175W        W28379   1.612   5.427  12.680  0.1255  0.1019  0.2922
10176W        W28380  13.493  11.729  10.254  0.2506  0.1654  0.0199
10177W        W28381   1.426   3.401  15.347  0.0332 -0.3701 -0.3042
10178W        W28382  17.538   2.488  13.328 -0.1513  0.2977  0.2243
10179W        W28383  16.771  13.169   1.099 -0.0649 -0.0746  0.1923
10180W        W28384   2.340  14.651   2.804 -0.0732  0.1071  0.0922
10181W        W28385   7.772   6.291   2.583 -0.1648 -0.1380 -0.1633
10182W        W28386  15.958   1.348  11.602  0.0904 -0.1278 -0.0561
10183W        W28387   1.320  11.611  13.111 -0.0794 -0.3943  0.0679
10184W        W28388   7.003  10.969   0.650  0.0761 -0.2865  0.1878
10185W        W28389   6.782  17.157   1.558  0.0268  0.1359  0.1552
10186W        W28390   6.200  11.910   1.194  0.0964 -0.6249 -0.1899
10187W        W28391   2.173   7.431  12.689 -0.1684  0.1376 -0.0919
10188W        W28392   6.842  12.515   0.832 -0.1246  0.0799  0.1842
10189W        W28393  14.913  12.524   4.202 -0.1070 -0.0953  0.4468
10190W        W28394  16.281  14.399  14.312 -0.2441 -0.3142  0.1284
10191W        W28395   0.702   7.054   2.455  0.0089 -0.1951  0.0957
10192W        W28396  16.507  16.746  14.366  0.0179  0.1597 -0.0365
10193W        W28397  13.891   3.414   2.620 -0.0282  0.1990 -0.0475
10194W        W28398  10.891  11.811   4.481  0.1768 -0.0883  0.0271
10195W        W28399   7.131   2.105   2.070  0.0889 -0.1561  0.1469
10196W        W28400   8.369   6.598  15.162  0.3318  0.1133 -0.0078
10197W        W28401   9.554  16.001  13.270 -0.2705  0.1834  0.0479
10198W        W28402  15.886   2.793   3.219 -0.0753 -0.2342  0.0054
10199W        W28403   0.250  12.420   2.620 -0.1363  0.2167 -0.1043
10200W        W28404  11.130  10.732   0.434  0.3660 -0.2975 -0.1944
10201W        W28405  10.951   5.648  11.413  0.0505 -0.1735 -0.2253
10202W        W28406   0.848  15.677   4.517  0.1402  0.2003 -0.3114
10203W        W28407   2.041   9.306  12.722 -0.2188 -0.1241  0.0452
10204W        W28408   0.615   5.178  11.060  0.2380 -0.0074 -0.1156
10205W        W28409   4.452  15.394   4.367  0.2085  0.0285  0.3094
10206W        W28410   7.568  11.167  15.186 -0.1976 -0.3162  0.0010
10207W        W28411   3.107   7.570  15.685  0.1306 -0.1126 -0.0236
10208W        W28412   6.552  10.095  12.309  0.1404  0.0775  0.3267
10209W        W28413   5.519   5.138  13.569 -0.0578  0.2600 -0.1180
10210W        W28414  15.536   2.447  12.241 -0.3606 -0.1098  0.0639
10211W        W28415  13.202   8.775   0.871  0.4274 -0.2444  0.1680
10212W        W28416   5.492   1.368   2.770  0.3775  0.1310  0.1609
10213W        W28417   3.119   0.798   1.154 -0.2147  0.1171  0.0830
10214W        W28418   8.441   3.643   2.398  0.2364 -0.3988 -0.1476
10215W        W28419   6.259  17.194   3.598 -0.0522 -0.0325  0.1299
10216W        W28420   5.753  17.557  15.540  0.2843  0.3026 -0.2913
10217W        W28421   4.109  15.683   3.956 -0.0513 -0.2291  0.1414
10218W        W28422   1.238   0.363   4.390  0.2583  0.2221  0.1708
10219W        W28423   4.443  16.266  12.352 -0.0857 -0.1844  0.2515
10220W        W28424  13.914  15.939   1.931 -0.0240 -0.2628  0.1121
10221W        W28425   0.037  18.296   3.340  0.0049  0.0958  0.1667
10222W        W28426   8.847   9.702  12.933  0.0493  0.2863  0.0091
10223W        W28427   2.510  15.676  13.075  0.1057  0.1384  0.0471
10224W        W28428   4.290   3.473  12.626  0.0488  0.0869  0.3697
10225W        W28429   2.754  12.790  13.726  0.0191  0.0189  0.1353
10226W        W28430  10.677  17.316   1.557  0.2529 -0.1451 -0.1198
10227W        W28431  11.171  16.944   3.303  0.0620 -0.2695 -0.1554
10228W        W28432  12.318   5.571  14.585 -0.1601 -0.1248  0.1460
10229W        W28433  10.038  18.145  14.501  0.0038  0.2195  0.0308
10230W        W28434   7.622   8.079   0.896 -0.0392  0.2116  0.1095
10231W        W28435   8.289   1.892   2.417  0.0148 -0.0758 -0.1334
10232W        W28436   2.429   8.725   1.885 -0.1156  0.0481  0.0721
10233W        W28437  15.571   9.680   0.965 -0.0966  0.3677  0.0937
10234W        W28438   7.817  11.451   1.524  0.2841 -0.1517  0.1442
10235W        W28439   3.650   8.974  15.093  0.2515 -0.0253  0.2147
10236W        W28440  11.146  14.513   4.447 -0.1823  0.0882  0.0678
10237W        W28441   5.335  10.065   2.372 -0.1380 -0.1112 -0.2405
10238W        W28442   6.602   8.020   2.255 -0.1536  0.1124 -0.0848
10239W        W28443   4.492  12.721   5.428 -0.0616  0.1111 -0.1257
10240W        W28444   0.897   7.147  12.646 -0.5200 -0.1068  0.3048
10241W        W28445  10.138  17.816  12.701  0.0788  0.1688 -0.1047
10242W        W28446   8.935  11.442   3.460 -0.0987 -0.2316  0.1296
10243W        W28447   7.936  10.328   4.959 -0.0177  0.1202 -0.0735
10244W        W28448  15.673   5.048   5.952 -0.0960  0.1666 -0.0388
10245W        W28449   8.570   9.479  14.410 -0.0735 -0.1050 -0.1411
10246W        W28450  16.938   6.238  13.253 -0.2970  0.2477 -0.0170
10247W        W28451  18.188   8.950  11.707  0.0498 -0.2092 -0.5404
10248W        W28452  16.237   2.252   1.446 -0.1347 -0.0820  0.0589
10249W        W28453   1.884   3.830  12.044  0.1087  0.1395 -0.2667
10250W        W28454  15.569  11.140  12.596  0.1158  0.1006 -0.1889
10251W        W28455   9.446   3.831   0.407 -0.0314 -0.0407  0.0638
10252W        W28456  13.555   7.486   2.332 -0.0194 -0.0287 -0.2021
10253W        W28457  13.661   0.041   0.950 -0.0430 -0.1050 -0.0887
10254W        W28458  11.448  12.666   2.303 -0.0904  0.0751 -0.0757
10255W        W28459  16.471  14.835  10.217  0.2202  0.0305 -0.1431
10256W        W28460  17.648   9.335   1.578 -0.0646 -0.2043 -0.1225
10257W        W28461  17.498   9.037  13.784 -0.0049 -0.2203 -0.1500
10258W        W28462  15.898  13.602   1.281 -0.0968 -0.1801 -0.0762
10259W        W28463  15.289   3.400  11.233  0.1846 -0.2564  0.5698
10260W        W28464   9.361  16.294  11.458  0.3305 -0.1295 -0.0044
10261W        W28465  17.920  11.173   1.390 -0.2667  0.0324  0.1983
10262W        W28466   6.585   3.643  13.174 -0.3249 -0.3284 -0.1715
10263W        W28467   6.080   2.487   2.823 -0.0040  0.4602 -0.1014
10264W        W28468   4.990  17.209  15.455  0.1713  0.0421 -0.0992
10265W        W28469  11.203   4.588  13.116  0.0774 -0.0630  0.0052
10266W        W28470   6.451   8.495   3.886 -0.0124 -0.2122 -0.2012
10267W        W28471   8.004   3.824  11.411 -0.2013  0.0691 -0.3056
10268W        W28472  10.977  16.616  13.051  0.0517  0.1287 -0.2347
10269W        W28473  13.544   3.677  11.083  0.0918 -0.0759 -0.1253
10270W        W28474   7.405  17.342   2.480 -0.1632 -0.0755 -0.1253
10271W        W28475   0.743   1.953  11.948  0.2696  0.1884 -0.2849
10272W        W28476  11.488  13.170   1.951  0.0590 -0.4518 -0.0933
10273W        W28477   4.699  12.632   4.924 -0.0208  0.0340 -0.0749
10274W        W28478  14.478  13.064   2.058 -0.0518  0.2424 -0.1060
10275W        W28479  10.269  18.147  11.379  0.0199  0.0147  0.0366
10276W        W28480  16.809  11.512  11.950  0.0957  0.2963 -0.0263
10277W        W28481   2.462  11.078   0.367  0.3652 -0.1106 -0.0343
10278W        W28482   6.004   4.651  12.917  0.1298  0.0025  0.1032
10279W        W28483  12.010  12.082  13.366 -0.0310  0.3586  0.1001
10280W        W28484  17.432  15.378   2.268 -0.2232 -0.0977 -0.5321
10281W        W28485  11.638  14.637   1.269  0.0254  0.1173 -0.2838
10282W        W28486   3.978  14.271  11.798  0.1472  0.0612 -0.0994
10283W        W28487   8.280   5.320   1.130  0.2160  0.3150 -0.0763
10284W        W28488  10.774   2.558  15.553 -0.0315 -0.0643 -0.0118
10285W        W28489   7.526   9.755   3.741  0.0436 -0.1561 -0.0069
10286W        W28490   6.769  13.640  12.236  0.0720  0.0752 -0.2694
10287W        W28491  15.811   5.073  14.529  0.0813 -0.0541 -0.1991
10288W        W28492   2.094   7.793  11.345  0.0991  0.1159 -0.0960
10289W        W28493  16.551   2.346  12.128  0.1997 -0.0318  0.2267
10290W        W28494   3.931   3.536   2.869 -0.1063 -0.0569 -0.0305
10291W        W28495  16.047  12.591  13.274 -0.1624  0.3849  0.1163
10292W        W28496  14.790  10.827  15.382  0.2355 -0.1876  0.0475
10293W        W28497   3.455  11.725  15.054 -0.0376  0.1609  0.0153
10294W        W28498  11.722   8.679   4.444 -0.0485 -0.4255 -0.0478
10295W        W28499  13.154   5.192  14.706 -0.3402 -0.0258  0.0693
10296W        W28500   9.384  17.343  12.946 -0.1621 -0.1914 -0.2158
10297W        W28501  17.194   9.195  12.750 -0.2593 -0.1940 -0.0440
10298W        W28502   8.432   2.432  10.825  0.0397  0.4698  0.0937
10299W        W28503   0.840  13.117  15.112  0.1429 -0.1716 -0.0520
10300W        W28504   7.967   8.135   0.509  0.0796  0.1337 -0.1473
10301W        W28505  10.854   7.818   6.106 -0.2725 -0.0475  0.1335
10302W        W28506   3.700  13.709  14.767 -0.0065  0.1013 -0.2488
10303W        W28507  14.187  14.979  14.721  0.0584  0.4325 -0.3184
10304W        W28508   6.521  12.701   2.186 -0.1996  0.0063  0.5599
10305W        W28509   0.820   4.246  14.400  0.2765 -0.3135  0.2938
10306W        W28510   1.037  17.254  13.472  0.0477  0.1101  0.0575
10307W        W28511   0.695  13.398  12.273  0.0540 -0.0935  0.0185
10308W        W28512  14.674   8.891  10.905  0.1257  0.3118  0.1040
10309W        W28513   9.916   6.094   2.750 -0.3324  0.1251 -0.3476
10310W        W28514  16.568  15.213   3.757 -0.0095 -0.2722  0.1691
10311W        W28515   8.118  11.582   0.202  0.2360 -0.3317  0.0067
10312W        W28516   2.049  14.319  11.814  0.2237 -0.2134  0.3470
10313W        W28517  13.946  15.973   0.506  0.1083  0.1134 -0.0001
10314W        W28518  16.136   8.220  12.580 -0.0008  0.2077 -0.1569
10315W        W28519  16.523   7.347  13.721 -0.2184  0.2582  0.0623
10316W        W28520  15.661   6.199   4.439 -0.2345 -0.1165  0.2812
10317W        W28521   5.364   3.682  13.712 -0.1698 -0.1627 -0.1695
10318W        W28522   6.834  15.767   3.763 -0.1111 -0.2706 -0.0107
10319W        W28523   3.622   8.357  13.132 -0.3104 -0.1350  0.1368
10320W        W28524  10.850  16.869   1.845  0.1011 -0.0171 -0.0020
10321W        W28525   3.503   5.633  15.311  0.0586 -0.0514  0.1018
10322W        W28526  12.276   5.697  11.999  0.1104  0.0896  0.0598
10323W        W28527   6.577   6.227   5.878 -0.2326 -0.1271  0.0214
10324W        W28528   4.941  13.538  15.403 -0.1333  0.1139 -0.1127
10325W        W28529   2.004  17.639   0.089  0.0692  0.1599  0.0121
10326W        W28530  12.244   7.265   1.116 -0.1493  0.0489  0.1181
10327W        W28531  10.813   4.447   3.466 -0.2082  0.1844 -0.2038
10328W        W28532   6.129  15.084   4.702  0.3799 -0.0073  0.2294
10329W        W28533   9.520  12.297   4.155 -0.0862 -0.1223  0.2718
10330W        W28534  16.030  13.708  15.243 -0.0553  0.2271 -0.1886
10331W        W28535   0.051  15.006  13.565  0.0914  0.0325 -0.1623
10332W        W28536  17.502   9.279   2.150  0.0054 -0.2104  0.0080
10333W        W28537   2.115   4.688   4.683  0.0254 -0.1314 -0.0097
10334W        W28538   7.063  12.011   4.343  0.1582  0.3526 -0.1386
10335W        W28539  13.925   6.106   4.676  0.1898 -0.0660  0.0511
10336W        W28540  12.160   6.297   1.065 -0.0246  0.1392 -0.1039
10337W        W28541   7.364  16.003  12.411  0.2626  0.2847 -0.0083
10338W        W28542   3.080   0.111   5.641 -0.0725  0.1152 -0.0049
10339W        W28543  17.541  14.228   0.317  0.2130 -0.0932 -0.0347
10340W        W28544  15.385   1.908   1.747  0.0209  0.4613  0.1147
10341W        W28545  14.410   6.630  15.607 -0.2287 -0.0241 -0.1849
10342W        W28546   3.585   3.341  15.522 -0.0473 -0.1248  0.0888
10343W        W28547   3.904   3.011   4.863  0.1181 -0.2463 -0.2272
10344W        W28548   2.048  11.063   4.310  0.1485  0.0542 -0.2757
10345W        W28549   6.730   0.342  14.500  0.1219 -0.3206 -0.2913
10346W        W28550   0.180   2.028  15.726 -0.0045 -0.0685 -0.1806
10347W        W28551   7.083  12.440  10.977  0.0190  0.1679 -0.1067
10348W        W28552   4.189   2.018   4.014  0.2069 -0.2524  0.1944
10349W        W28553   0.741  18.230  12.227 -0.2411 -0.1966 -0.2616
10350W        W28554   5.442  16.264  12.631 -0.0658 -0.2605  0.2288
10351W        W28555  18.226  11.740  11.108 -0.1027 -0.0210  0.1988
10352W        W28556  15.317   7.629   4.570  0.1457  0.0231 -0.0789
10353W        W28557  10.722   5.152   1.269  0.0723  0.0105  0.1315
10354W        W28558  12.903   1.948   2.735 -0.1332 -0.2898 -0.0372
10355W        W28559  12.788   4.768  15.400  0.1827 -0.0090  0.0191
10356W        W28560   5.726   2.236  14.708 -0.1377  0.0287  0.3618
10357W        W28561  13.873   7.763   1.850  0.3298  0.2911 -0.2302
10358W        W28562  15.787   4.148   4.534 -0.0384 -0.0546 -0.0558
10359W        W28563  17.105  15.727  11.212 -0.0452 -0.0418  0.0125
10360W        W28564   0.824  14.954   2.856 -0.2135  0.0337  0.2591
10361W        W28565  16.536   1.636  10.451 -0.0954 -0.3100  0.1171
10362W        W28566  17.125   9.330   2.594 -0.2236 -0.0970  0.3173
10363W        W28567  13.295   0.334   3.528 -0.3388  0.0598  0.0535
10364W        W28568  10.637  11.729   3.545 -0.1221 -0.2164  0.3100
10365W        W28569  12.958   6.632  13.344  0.0477 -0.0685 -0.0183
10366W        W28570  16.114  13.510   0.831 -0.0909  0.2071 -0.0630
10367W        W28571   0.382  13.761   3.630 -0.2829  0.1104  0.1076
10368W        W28572   9.963  18.056  14.011  0.0921  0.0099  0.2390
10369W        W28573   1.198   9.527   3.635  0.0020  0.0150  0.0890
10370W        W28574   1.054  17.051  15.723 -0.4858  0.0203  0.3046
10371W        W28575   5.310   8.863   0.006  0.3284  0.0507 -0.1780
10372W        W28576  12.576   4.333  15.354 -0.0973 -0.2776  0.1226
10373W        W28577  11.737   2.216  12.320 -0.0886 -0.1892 -0.0826
10374W        W28578  16.545  15.903   4.430 -0.2920 -0.1397  0.1602
10375W        W28579   1.008  11.688   2.976  0.1997 -0.0453 -0.0960
10376W        W28580   8.494  10.022   4.508 -0.1836  0.0130  0.1290
10377W        W28581  17.280   3.921  11.824 -0.2980 -0.0401 -0.0701
10378W        W28582  15.391   6.219   1.828 -0.0355 -0.2734 -0.2213
10379W        W28583  17.493  17.329  12.113  0.0353 -0.0692 -0.1034
10380W        W28584   4.797   8.237   1.551  0.6508 -0.1587 -0.0565
10381W        W28585   2.038  10.771   1.600  0.2600  0.1185 -0.2331
10382W        W28586  12.652  12.595   5.790  0.2124 -0.0888 -0.2597
10383W        W28587  14.768  12.934   0.306  0.0568  0.4499  0.3646
10384W        W28588   9.292   7.975  13.627 -0.0444  0.0950  0.0526
10385W        W28589   3.711  16.306  15.125 -0.1502  0.0755  0.3555
10386W        W28590   3.930   1.245   3.892  0.5927 -0.0242  0.2129
10387W        W28591  10.658  14.801  13.490  0.0552 -0.2052  0.2541
10388W        W28592  17.398   5.761   4.619  0.2845  0.2017  0.3082
10389W        W28593   1.981  11.361  14.587  0.1574 -0.1363  0.1421
10390W        W28594   0.697   5.829  12.997 -0.2646  0.0238 -0.0685
10391W        W28595   7.152   8.727   4.555  0.0034 -0.0892 -0.0280
10392W        W28596   1.151  17.162  12.135  0.1187  0.2903 -0.1375
10393W        W28597   8.736  18.096   0.978 -0.0214 -0.0354 -0.0059
10394W        W28598   6.303  14.601   2.875 -0.0439 -0.1219 -0.3375
10395W        W28599  16.498   5.636   1.873  0.1265  0.0437  0.1657
10396W        W28600   4.028  11.567   3.881  0.0785 -0.1030  0.0306
10397W        W28601  13.394   6.934  14.026  0.3017  0.0544 -0.4114
10398W        W28602  13.704   6.187   3.817 -0.1072 -0.1531  0.0712
10399W        W28603  13.734   6.001   2.928  0.2350  0.0874 -0.3853
10400W        W28604  14.788   8.860   4.206  0.1779  0.2137 -0.0228
10401W        W28605   9.869  17.454  15.091  0.1912 -0.0168  0.0626
10402W        W28606  15.841   9.264   4.758  0.0159  0.0112  0.2291
10403W        W28607   2.971   8.918  12.094  0.2389 -0.2106 -0.2196
10404W        W28608  15.700   4.315  10.833 -0.0354  0.0507  0.0619
10405W        W28609  10.786   8.568   4.970 -0.1091  0.3532 -0.1153
10406W        W28610   0.053  13.352  14.535  0.0194 -0.0726  0.1432
10407W        W28611   4.518  15.901  11.219  0.0244 -0.0410  0.1079
10408W        W28612   7.198   5.431  13.508  0.5851 -0.1224 -0.5197
10409W        W28613   7.522  17.692  14.154 -0.2285  0.1711 -0.2885
10410W        W28614   0.639   2.010   0.471 -0.0103  0.0590 -0.1945
10411W        W28615  12.644   6.698   5.835 -0.0709  0.1367 -0.0280
10412W        W28616  14.944   9.293   3.175 -0.0778  0.5097 -0.0777
10413W        W28617   8.938   1.035  12.119 -0.1118 -0.0663 -0.0119
10414W        W28618  13.699   1.844   3.082  0.1826 -0.2162  0.1771
10415W        W28619   5.501  15.496   2.720 -0.2250 -0.0428  0.3616
10416W        W28620   9.716  18.183  10.768 -0.1181  0.1933  0.1068
10417W        W28621  12.552  16.098   9.862 -0.1029 -0.2655 -0.4933
10418W        W28622   6.204   6.832  15.555  0.0455  0.0517 -0.2619
10419W        W28623   0.360  16.532  12.509  0.4422  0.1333 -0.0593
10420W        W28624  17.250  10.950  13.088  0.0939  0.0562  0.0155
10421W        W28625  12.342  17.085   0.012 -0.0004  0.2230 -0.3187
10422W        W28626  14.945   4.648  13.708  0.1143 -0.1287  0.0372
10423W        W28627  10.863   6.070   4.207  0.1990 -0.0011 -0.0142
10424W        W28628  12.188   7.444  14.934 -0.1846  0.1079 -0.1479
10425W        W28629  13.747  12.389   3.830 -0.1837 -0.1892  0.2127
10426W        W28630  11.997  17.132  12.189  0.2445  0.0051  0.2107
10427W        W28631   5.219   5.594   4.335  0.2446  0.2263  0.2820
10428W        W28632  15.078  14.570  13.685  0.1890 -0.0413  0.0196
10429W        W28633   3.341  12.105  14.216 -0.3696 -0.0745 -0.0190
10430W        W28634  12.040   2.257  15.001 -0.0081  0.4414 -0.1153
10431W        W28635   8.736  11.264   0.085 -0.0573  0.1753  0.1670
10432W        W28636   6.243   6.584   4.360  0.3422  0.2010 -0.0395
10433W        W28637  15.059  14.290   0.115 -0.1023 -0.3031 -0.1442
10434W        W28638   7.137   3.959   4.504 -0.0790 -0.0116 -0.0679
10435W        W28639   8.167  14.088   2.796 -0.0746 -0.2430  0.0340
10436W        W28640   9.247  16.601   9.796 -0.1409 -0.5105  0.2300
10437W        W28641   4.809   7.492   3.798 -0.1967 -0.0179  0.1758
10438W        W28642  15.365  10.880  15.249  0.1185  0.0200 -0.1132
10439W        W28643   9.576   5.775   0.112 -0.0594 -0.1287  0.0582
10440W        W28644   7.487  12.970   2.959 -0.4973 -0.0117  0.0478
10441W        W28645   4.507  11.831  14.042  0.3231  0.2688  0.1010
10442W        W28646  15.946   3.850   3.478 -0.1003 -0.0146  0.2460
10443W        W28647   6.723  14.913  14.875  0.2173  0.2173  0.0024
10444W        W28648   4.477  12.061   1.823 -0.0319  0.0835  0.0214
10445W        W28649  13.440   3.236  15.636  0.1869  0.1860 -0.0511
10446W        W28650  17.433   7.983   3.102  0.0712  0.0122  0.0351
10447W        W28651   3.102   1.196   4.010  0.0428  0.0991 -0.1975
10448W        W28652  13.738   8.743   5.218  0.1199  0.1115 -0.1865
10449W        W28653  13.977  10.118  12.514 -0.1137  0.0788 -0.0921
10450W        W28654  13.931   5.457   3.284  0.1128  0.0877 -0.0344
10451W        W28655  17.046  14.035   1.191  0.0443 -0.2094  0.0879
10452W        W28656   9.961  16.822   1.389 -0.1033 -0.0105  0.0339
10453W        W28657   5.539   8.338  14.471 -0.1296  0.0551 -0.0668
10454W        W28658   8.389  12.794  15.268  0.2408  0.0483 -0.0905
10455W        W28659  16.526  12.269   2.601 -0.0958 -0.1229  0.0785
10456W        W28660   5.828   7.950   4.942  0.1478 -0.3061 -0.0946
10457W        W28661  10.376   0.215   1.956 -0.0224  0.1449  0.1027
10458W        W28662   2.236   5.006   5.568  0.0148 -0.1063  0.2324
10459W        W28663   5.707  12.640   1.092  0.0036  0.1670  0.0255
10460W        W28664  12.666  16.080   1.925 -0.0794  0.1675 -0.3133
10461W        W28665  16.155   8.136   3.016  0.0628  0.1085  0.0827
10462W        W28666   7.221   4.644   3.074  0.0837  0.1185  0.0486
10463W        W28667   6.847   8.197   2.723 -0.2229 -0.0396 -0.3631
10464W        W28668  16.078  14.053   3.055  0.5857 -0.0727 -0.1456
10465W        W28669   8.937   1.420   3.625 -0.0386 -0.1067  0.1138
10466W        W28670  15.245  14.878   2.017  0.2397  0.3970  0.3970
10467W        W28671   5.458  15.682  11.825  0.0839 -0.2095  0.1745
10468W        W28672   3.116  12.708   3.161 -0.0627 -0.2722  0.1267
10469W        W28673  11.628  14.403  11.507  0.1686 -0.0976  0.1887
10470W        W28674   0.034   9.185  14.943 -0.2102 -0.4789 -0.0228
10471W        W28675  10.491  15.791  11.436 -0.1215 -0.1407  0.4674
10472W        W28676   7.752  13.941   4.329  0.0449 -0.1433 -0.0637
10473W        W28677   6.796  12.485   1.706 -0.2812 -0.5594  0.0559
10474W        W28678   9.635   1.191   5.249  0.0682 -0.2004  0.3975
10475W        W28679  13.604  16.090   4.613  0.4149 -0.1846 -0.1183
10476W        W28680  14.416   7.434  14.583 -0.1434 -0.0447 -0.1972
10477W        W28681  16.716  15.876  11.414 -0.2350  0.1433 -0.2852
10478W        W28682   7.048  12.088  14.099  0.3055 -0.0420  0.0209
10479W        W28683   8.617   0.073  13.275  0.0511  0.1843  0.2349
10480W        W28684  11.612   7.780  12.205  0.0900  0.2009 -0.2259
10481W        W28685   8.785  12.469   1.011 -0.1643  0.5062 -0.1360
10482W        W28686  16.500  17.794   2.658  0.0818 -0.4019 -0.0194
10483W        W28687  17.453  14.956  10.809 -0.3821  0.0931 -0.3296
10484W        W28688   6.559   9.486  11.599  0.2479 -0.2127 -0.0983
10485W        W28689  12.597   1.339  14.925  0.0985  0.0250  0.0587
10486W        W28690  10.677   0.805   1.233  0.0570  0.0229  0.3785
10487W        W28691   0.298  13.617  13.141 -0.0386 -0.0845 -0.1100
10488W        W28692  11.371   1.567  15.232 -0.1621  0.0271 -0.0719
10489W        W28693  17.072  15.890   3.096 -0.0038 -0.3157  0.3666
10490W        W28694   1.951   8.159  13.136  0.1276  0.0670  0.1019
10491W        W28695  11.564   2.706  11.517 -0.2249  0.2588  0.1136
10492W        W28696   6.811  16.974  15.469 -0.0283 -0.1053  0.2789
10493W        W28697   7.599   5.989  14.795  0.0322  0.1868  0.4412
10494W        W28698   3.202   8.752   4.495  0.3701  0.2428  0.0366
10495W        W28699   8.760   5.654  14.752 -0.1463 -0.1353  0.0358
10496W        W28700  18.270   0.366  15.577  0.2319 -0.0139  0.4007
10497W        W28701   9.213   6.383   1.380 -0.2433  0.1218 -0.0824
10498W        W28702   2.747   8.377   1.661  0.2260 -0.0552 -0.0714
10499W        W28703   1.599   9.602   3.942  0.1518 -0.2985 -0.0575
10500W        W28704  10.081   0.782  10.593 -0.2297  0.1637 -0.1861
10501W        W28705   4.655   6.918  11.734 -0.0204 -0.2286  0.0092
10502W        W28706   4.258  16.387  15.693  0.0611  0.3520 -0.2932
10503W        W28707  11.242  10.846  13.849 -0.2407 -0.1231 -0.0189
10504W        W28708   4.515   5.485   3.645 -0.0860 -0.0021  0.0964
10505W        W28709   5.098   3.965   3.149 -0.0511  0.1269 -0.2498
10506W        W28710   5.558   5.602   0.857 -0.1691  0.3699  0.1088
10507W        W28711  16.109   9.875  12.996 -0.1270 -0.1303 -0.1481
10508W        W28712  11.094   2.082  14.612  0.1373  0.0619  0.1070
10509W        W28713   4.376   3.897  14.887 -0.3552  0.0987 -0.0611
10510W        W28714   7.833   1.223  12.881 -0.2536 -0.0083 -0.1473
10511W        W28715  10.017  16.546  15.454  0.0482 -0.2613 -0.0825
10512W        W28716   8.054   7.787  11.803  0.0532  0.2359 -0.0492
10513W        W28717   8.100  15.481  13.630 -0.1673  0.0151  0.1371
10514W        W28718  11.215   7.998   3.560  0.3170 -0.0096  0.0150
10515W        W28719   8.460   2.025   1.824  0.0767  0.1590  0.0189
10516W        W28720   0.347  11.610  15.052  0.0140  0.1531  0.0490
10517W        W28721   2.169  17.086  13.592  0.1802 -0.1048 -0.1678
10518W        W28722  11.687   0.594  12.197 -0.2387  0.2233  0.1568
10519W        W28723   4.610   3.550  12.104  0.2923 -0.0667 -0.0381
10520W        W28724   3.298   8.195  11.186 -0.1679  0.1726  0.0227
10521W        W28725  16.540   5.089   3.162 -0.1591  0.1440  0.0964
10522W        W28726   2.787   1.417  15.120 -0.3585  0.4257  0.0436
10523W        W28727   5.925  15.225   3.533  0.2945  0.1318 -0.0062
10524W        W28728  12.701  13.957   1.393  0.1123  0.0509  0.5768
10525W        W28729  10.945  10.414   2.838  0.3557  0.4485 -0.4506
10526W        W28730  11.562   5.117   2.987  0.1051  0.1681  0.0550
10527W        W28731   0.204  17.349   3.310  0.1867 -0.0705 -0.0662
10528W        W28732  17.305  17.911  14.531 -0.1035 -0.1747  0.2058
10529W        W28733   7.292  11.392   3.892 -0.0884  0.1027  0.0090
10530W        W28734   6.879   6.490  12.546 -0.0818 -0.4200  0.0813
10531W        W28735  11.130   0.715  14.369  0.3998 -0.0380  0.0216
10532W        W28736   3.359   9.626   1.740 -0.1145 -0.3521  0.1101
10533W        W28737   6.843  15.426   0.944 -0.0811 -0.0869  0.0408
10534W        W28738  11.398  17.363   1.692  0.0737 -0.1157 -0.2785
10535W        W28739   0.885   7.857  15.623  0.1763 -0.2282 -0.0709
10536W        W28740  14.230  12.227   4.022 -0.0744  0.1897  0.0156
10537W        W28741   2.465  11.488   2.134 -0.0063 -0.0420 -0.0733
10538W        W28742   9.965   9.327   6.183  0.0295  0.2855 -0.0681
10539W        W28743  13.127  13.662  11.787  0.0574  0.0110  0.0247
10540W        W28744   1.790  18.358   3.556  0.0261  0.0282 -0.2035
10541W        W28745   1.216   3.826   1.974 -0.1181  0.0392  0.0356
10542W        W28746  14.503  11.376   3.245  0.0340 -0.3405  0.1636
10543W        W28747  15.380  12.546  11.447 -0.1048  0.1305  0.1657
10544W        W28748   3.020   4.685  13.767 -0.3039 -0.2663  0.0701
10545W        W28749  12.295  17.120  14.446 -0.0379  0.0152  0.0366
10546W        W28750   0.874  15.997   1.436  0.1037  0.0031 -0.2873
10547W        W28751   9.507   5.587   4.387 -0.0978 -0.1676  0.2746
10548W        W28752  13.367  14.046  13.991 -0.0233  0.0861 -0.1569
10549W        W28753   7.715  18.095   3.078  0.0116  0.1136  0.3385
10550W        W28754   9.259  10.312  15.024  0.3066 -0.0299  0.2253
10551W        W28755   9.609  16.145  15.367  0.2174 -0.0424  0.0731
10552W        W28756  16.738   2.902  13.558  0.0274  0.1769 -0.0178
10553W        W28757  12.487  18.362   3.178  0.0418 -0.0501  0.0046
10554W        W28758   1.778   7.313   3.164  0.2019 -0.0823  0.0525
10555W        W28759  16.655  10.227  12.181 -0.1600  0.1365  0.3866
10556W        W28760   1.179  10.072   3.880  0.1287  0.2029 -0.0779
10557W        W28761  15.618   9.792   0.097 -0.2310  0.2180  0.2351
10558W        W28762  12.127   0.131   2.862 -0.0737  0.0338 -0.0118
10559W        W28763   4.363  16.929  14.546  0.1835 -0.2748 -0.1775
10560W        W28764  15.775   8.354   4.060 -0.0856  0.2192  0.1013
10561W        W28765   1.337   7.731  14.037  0.1283  0.1851  0.1971
10562W        W28766   3.598   4.697  11.114 -0.3883 -0.0828  0.0651
10563W        W28767  17.592   6.320  14.233 -0.1571 -0.0946  0.0731
10564W        W28768   6.064   1.984   2.123  0.1205 -0.4016  0.0659
10565W        W28769   0.433  12.281   2.203 -0.2639  0.0084 -0.0671
10566W        W28770  14.261   1.697  14.487 -0.3986  0.0798 -0.2264
10567W        W28771  14.265   2.292   0.576  0.1036  0.0981  0.0453
10568W        W28772  10.629  13.490  14.214  0.1559 -0.0964 -0.1397
10569W        W28773   4.384  16.112  13.863  0.0285  0.0568 -0.1245
10570W        W28774   1.328  13.910  11.603 -0.1629  0.0388  0.0820
10571W        W28775   6.142  14.240  12.911 -0.0042 -0.1476 -0.2452
10572W        W28776   7.787   4.759  11.856  0.0457  0.4288  0.2246
10573W        W28777  17.930   4.652  15.533 -0.1160  0.3551 -0.2913
10574W        W28778   6.412   9.717   4.603  0.0619  0.3064 -0.2435
10575W        W28779   9.959   6.417   4.496  0.0180  0.0681  0.1232
10576W        W28780   4.893  15.562  15.021  0.0180  0.1618 -0.0536
10577W        W28781  12.931   1.813  15.078 -0.0683 -0.0774  0.1015
10578W        W28782  14.612  11.486  11.402 -0.0990 -0.0057 -0.1070
10579W        W28783   5.421   6.484  13.536 -0.0922  0.0455 -0.0232
10580W        W28784   4.006   0.898  11.761  0.2437  0.2398 -0.1329
10581W        W28785   6.124   7.384  14.287 -0.0063  0.2066  0.3183
10582W        W28786  16.176   3.071   0.272 -0.1191 -0.1772  0.1074
10583W        W28787   2.430   7.687   1.588 -0.2732  0.1307 -0.1214
10584W        W28788   6.744  11.397  14.567 -0.2653  0.0472  0.1106
10585W        W28789  11.768   7.964   1.566 -0.0812  0.0849  0.1027
10586W        W28790   5.078   5.627  13.208  0.2954 -0.1923  0.0179
10587W        W28791   5.981   0.556  13.763 -0.1970 -0.0053 -0.0128
10588W        W28792   9.894  14.347   2.972 -0.0439 -0.0244  0.1182
10589W        W28793   3.687  15.320  11.272  0.0201 -0.1672  0.1375
10590W        W28794   3.869   9.602   1.924  0.0509  0.0184  0.3041
10591W        W28795  18.208  12.323  13.970  0.1539  0.0220  0.1005
10592W        W28796   0.678  17.314  15.414  0.0680  0.0128 -0.1595
10593W        W28797  13.359   3.236   3.926  0.0964 -0.1966 -0.2163
10594W        W28798  17.055   1.891   3.455 -0.0434 -0.0496 -0.1350
10595W        W28799   3.610  14.261  12.229  0.2277  0.1275 -0.0923
10596W        W28800   9.547   3.502  12.911  0.0806 -0.0352  0.1297
10597W        W28801  13.128  10.026  11.673 -0.0118 -0.0260  0.3453
10598W        W28802   5.218   4.034  14.482 -0.0082 -0.0758  0.0814
10599W        W28803   7.633   2.367   3.968  0.0373  0.3626 -0.0557
10600W        W28804  12.322   2.321  13.528 -0.1664  0.1146 -0.1828
10601W        W28805   6.394   9.005  11.314  0.1107  0.2422 -0.1818
10602W        W28806   4.477  16.725  11.747  0.0435  0.1700  0.0331
10603W        W28807  18.049   7.344   2.692 -0.3073  0.0020  0.0148
10604W        W28808  11.106  15.876   5.309  0.2143 -0.0851 -0.1869
10605W        W28809  15.328  14.269  11.875  0.1291 -0.0453  0.1608
10606W        W28810  13.736   1.681  11.308  0.0251  0.1924 -0.0707
10607W        W28811   2.239  15.800   0.972  0.0143  0.0939 -0.1441
10608W        W28812  15.115   0.852  13.229 -0.4010  0.0039 -0.0821
10609W        W28813  16.642   3.161   0.232 -0.0779 -0.0531 -0.1451
10610W        W28814   5.696  10.139  14.757 -0.0667  0.0563  0.0037
10611W        W28815   9.245   9.300   1.148 -0.1812 -0.2743  0.3168
10612W        W28816   2.393   0.202  13.139  0.1266 -0.1354  0.1725
10613W        W28817  16.039   0.669  15.726 -0.3144  0.1992 -0.0338
10614W        W28818   7.275   4.762  11.738  0.0060  0.1742  0.1756
10615W        W28819  10.332   8.899   4.482 -0.1479 -0.0845 -0.0959
10616W        W28820   3.134   6.618   0.422  0.5160 -0.1151 -0.1379
10617W        W28821  13.553  12.797  12.878 -0.5106 -0.0356  0.0677
10618W        W28822  15.668   8.772   2.602 -0.0340 -0.0553 -0.0325
10619W        W28823  16.221  15.896  13.945  0.0716  0.2452 -0.0289
10620W        W28824   0.046  13.351   3.208 -0.3844  0.2139  0.1756
10621W        W28825  18.375   2.864  14.642  0.0161 -0.1263 -0.1487
10622W        W28826  12.357  13.522  14.201 -0.0890  0.0960 -0.2535
10623W        W28827  15.711   7.241   4.667 -0.1094 -0.1839  0.0412
10624W        W28828   9.146  11.337   3.983  0.0143 -0.1726  0.1919
10625W        W28829   7.464  11.357  14.706  0.1404 -0.1451  0.3452
10626W        W28830   5.563  12.141   3.560  0.1222 -0.0276  0.3389
10627W        W28831   4.087   2.458   4.248 -0.0446  0.0052 -0.1978
10628W        W28832   8.611   0.731   4.548  0.1078  0.0547  0.1351
10629W        W28833   7.487   2.599  10.932 -0.0621 -0.0387  0.2166
10630W        W28834  17.512  15.063   4.845 -0.4274 -0.1401 -0.1559
10631W        W28835   3.833  17.272   2.153  0.3524  0.1317  0.0431
10632W        W28836  11.282  11.402  11.621  0.1147 -0.1243  0.0078
10633W        W28837   1.524  15.582   1.158 -0.1055 -0.0817 -0.1141
10634W        W28838   5.617   2.130  13.667  0.0591  0.0195 -0.1775
10635W        W28839   3.834   0.664  12.741  0.0354 -0.2689  0.1698
10636W        W28840   9.230  13.922  11.986 -0.0918  0.0602 -0.1322
10637W        W28841  14.141  10.191   2.253 -0.1562 -0.1011 -0.2093
10638W        W28842   9.760  11.394  15.114  0.2326  0.3068  0.1325
10639W        W28843   8.580   1.947  14.153  0.0809 -0.1209  0.3034
10640W        W28844  14.185   0.802   3.425 -0.0743 -0.1990  0.2970
10641W        W28845   4.818   6.879  11.251 -0.0730  0.2019  0.0507
10642W        W28846   5.098  10.434   4.880 -0.0558 -0.2652 -0.1100
10643W        W28847   0.346  14.932   2.795 -0.4218 -0.2339  0.0607
10644W        W28848   3.345  16.127  12.865 -0.0151  0.0994  0.1535
10645W        W28849   4.995  10.573  11.482 -0.3682 -0.1362 -0.1001
10646W        W28850  11.619  10.057   2.405 -0.2873 -0.0265  0.0694
10647W        W28851   3.235   6.013   1.659  0.0578 -0.1059  0.0683
10648W        W28852  13.532  11.346   4.096 -0.0804 -0.1592  0.1675
10649W        W28853   6.016  12.690   1.998 -0.1484 -0.0581  0.2997
10650W        W28854   4.599   8.531   4.636 -0.0739  0.1088 -0.1416
10651W        W28855   3.297   1.323  11.856  0.0755  0.1463 -0.3068
10652W        W28856  11.220   9.513   1.823  0.1810 -0.0176  0.1165
10653W        W28857   0.828   3.948   2.753 -0.1458 -0.1109  0.0549
10654W        W28858  15.889  17.955  14.946  0.1244 -0.1910  0.0849
10655W        W28859  15.414   4.471   4.657 -0.0558 -0.0356 -0.1955
10656W        W28860   9.259   2.765  10.623 -0.2270  0.1825 -0.1906
10657W        W28861  17.518  12.727  12.404  0.0861 -0.0529 -0.0123
10658W        W28862   4.481  14.478   4.040  0.0278 -0.3414  0.1204
10659W        W28863   9.131  17.953  14.524  0.0886  0.3454 -0.0839
10660W        W28864   5.180  16.014  12.955 -0.0246  0.0824  0.1430
10661W        W28865  17.088  11.234  14.092 -0.2838 -0.0077 -0.0232
10662W        W28866   1.931  14.226  12.299  0.1300  0.0851  0.1460
10663W        W28867   1.716   1.789  11.451  0.1222  0.0392  0.3430
10664W        W28868   6.289  17.725  10.979 -0.2081 -0.0085  0.3543
10665W        W28869  15.880  13.830  13.687  0.0513 -0.0230 -0.0483
10666W        W28870   1.962   2.194   1.650 -0.3050  0.1665  0.2762
10667W        W28871   0.640   7.832   0.345 -0.2390 -0.2001  0.0772
10668W        W28872   6.432  12.467  14.920  0.1277  0.3352 -0.3433
10669W        W28873  16.475  16.608  14.904 -0.1409  0.0402  0.2638
10670W        W28874  18.106   4.241  15.267 -0.2492 -0.1104 -0.1236
10671W        W28875  15.767   1.223   2.327  0.0337  0.0331 -0.2051
10672W        W28876   3.441  13.215   1.623 -0.0061  0.0244  0.0578
10673W        W28877  14.743   8.313  12.619 -0.4194  0.1251  0.0332
10674W        W28878  15.519   1.187  13.223  0.2913 -0.1897 -0.5546
10675W        W28879  11.082  15.547  14.649 -0.1633  0.0806  0.1983
10676W        W28880   6.884  15.760   1.553  0.1161  0.2467 -0.2802
10677W        W28881   0.412   4.213   2.855  0.1708 -0.0172 -0.1457
10678W        W28882  16.011  15.170  11.706 -0.0832 -0.1397  0.1476
10679W        W28883   2.911   2.096  13.410  0.1524  0.0471  0.4041
10680W        W28884   8.542  16.988   1.069  0.1664  0.0067 -0.2451
10681W        W28885   8.897  15.139   4.906 -0.1822  0.4108 -0.1816
10682W        W28886  17.609   7.369   0.699 -0.1355  0.0149  0.0227
10683W        W28887  14.074   2.464   1.632  0.2291  0.0146  0.0290
10684W        W28888  13.152   9.871  11.193  0.0314  0.0410  0.0339
10685W        W28889  16.777   4.006  13.572 -0.1105  0.1360  0.0386
10686W        W28890   1.661  15.028   1.289 -0.2968 -0.0114 -0.1360
10687W        W28891  14.542  16.325  14.332 -0.1700 -0.0250  0.0774
10688W        W28892   9.144  11.844  12.675  0.2963 -0.2176 -0.0518
10689W        W28893  17.774  14.811   2.992  0.0702 -0.2739 -0.1455
10690W        W28894   2.428  15.532  15.120 -0.2869 -0.1884 -0.4370
10691W        W28895   5.588   4.915   2.997 -0.0971 -0.1040  0.1088
10692W        W28896  14.611   7.360  14.040  0.0173  0.0469  0.0624
10693W        W28897   7.514   3.798  11.569  0.1433 -0.0423  0.2169
10694W        W28898  15.928   3.081   1.736  0.0368 -0.2259 -0.4885
10695W        W28899   4.067   3.726  15.300 -0.1841 -0.0592  0.1866
10696W        W28900  16.809  14.807  13.352  0.3114  0.0485 -0.2006
10697W        W28901   2.584   8.665  12.071 -0.1655  0.1763 -0.0259
10698W        W28902   4.435  15.280   1.156 -0.1790  0.0455  0.2583
10699W        W28903   3.723  14.806   2.920 -0.3001  0.0282  0.0805
10700W        W28904  10.881  17.804   2.435 -0.0253 -0.1433 -0.5183
10701W        W28905  11.427  16.810   4.619 -0.2154 -0.2133  0.0197
10702W        W28906  10.944   2.108  12.930 -0.1177  0.1264 -0.0500
10703W        W28907   8.039   8.422  13.083  0.1624  0.3251  0.0547
10704W        W28908   3.566   1.259  15.601  0.1439  0.1457  0.1653
10705W        W28909  12.871   1.383  15.387 -0.0023 -0.1308 -0.1949
10706W        W28910  11.799   9.346   1.685 -0.1421  0.0276  0.2737
10707W        W28911   9.900   0.303   0.762 -0.2287 -0.0724  0.2204
10708W        W28912  11.093  13.550   0.275 -0.0851  0.1795  0.2732
10709W        W28913   7.072   2.364  10.764  0.1124 -0.1556 -0.0335
10710W        W28914  14.818  17.327   0.691 -0.0335  0.0467  0.0114
10711W        W28915   8.704   9.711   1.841  0.1434  0.0695 -0.0057
10712W        W28916  10.283   8.584  13.289  0.1251  0.0732 -0.2202
10713W        W28917  13.273  14.657   2.916  0.1198 -0.3822  0.0863
10714W        W28918  14.039  12.520  13.074 -0.0881 -0.3076 -0.0279
10715W        W28919   7.964   5.218  13.083  0.0858 -0.0390 -0.2255
10716W        W28920   9.444   6.573  12.150  0.2616  0.2348  0.1288
10717W        W28921   3.120  17.958  11.621 -0.0936 -0.0358 -0.0744
10718W        W28922   4.267   2.349  15.477 -0.0077  0.0690  0.1357
10719W        W28923  13.688   5.857   4.213  0.1430  0.0307 -0.1613
10720W        W28924   8.896   9.843  14.668  0.1621  0.1639 -0.1056
10721W        W28925  10.232  15.373  11.377 -0.0953  0.1698 -0.2958
10722W        W28926  16.359  17.940  14.088  0.1716 -0.0595 -0.1555
10723W        W28927   7.246   1.990   2.558  0.0219  0.0321 -0.0738
10724W        W28928   6.389   4.829   0.634  0.1403 -0.0127  0.2817
10725W        W28929   1.284   6.598  10.219 -0.2266  0.0003  0.1367
10726W        W28930  17.497   6.083   1.134 -0.0703  0.0013  0.2281
10727W        W28931   3.592   5.151  12.725  0.1783  0.1684 -0.0229
10728W        W28932   5.557   2.602  12.072  0.1299  0.0360 -0.1530
10729W        W28933   9.296  17.468   4.897  0.2453  0.2350 -0.3222
10730W        W28934  17.596  13.226  15.131  0.1560 -0.1074 -0.1262
10731W        W28935   3.422   8.255   2.284 -0.0051 -0.1915  0.3003
10732W        W28936  15.985   8.880   0.081  0.2121  0.2931  0.0392
10733W        W28937  13.618  16.624  14.060  0.4148 -0.3142 -0.0469
10734W        W28938   3.693  15.424   4.104 -0.5155  0.1493  0.0938
10735W        W28939  14.525  14.825  14.384 -0.0205 -0.2039 -0.1155
10736W        W28940   5.640  16.012  15.265 -0.2654 -0.0383  0.2877
10737W        W28941  14.880   8.017   3.756 -0.1936 -0.4218 -0.1022
10738W        W28942   4.186   7.160   4.742 -0.2891 -0.2238 -0.1151
10739W        W28943   6.575   6.771   1.944  0.1335  0.0852  0.0872
10740W        W28944  14.567   4.946   0.669 -0.1087 -0.0280  0.2793
10741W        W28945  13.717   7.549  12.892  0.1310 -0.2840  0.0750
10742W        W28946  13.293   1.370  11.465  0.0143 -0.0129 -0.1265
10743W        W28947   3.333  16.470  13.267 -0.1079 -0.1315  0.1421
10744W        W28948   7.020   3.380  14.141  0.0451  0.0592 -0.2265
10745W        W28949   4.354   8.434  12.326  0.3151  0.2103  0.0475
10746W        W28950  10.164   3.240   2.387  0.1347 -0.0341 -0.1018
10747W        W28951  15.077   3.609   3.271  0.2956 -0.1621  0.1533
10748W        W28952  12.575  14.849   4.195 -0.0390  0.2168  0.2580
10749W        W28953   0.374   4.082   2.293 -0.3533  0.0727  0.0212
10750W        W28954  15.068   2.717  12.118  0.0820 -0.0101  0.4219
10751W        W28955   3.834   7.462   2.487  0.1250  0.3251 -0.2009
10752W        W28956   7.574   6.380  10.809 -0.0800 -0.2155  0.2731
10753W        W28957  14.998  17.676   2.946  0.1722 -0.2085  0.0831
10754W        W28958   7.004   3.938   1.863  0.2270  0.1357  0.0868
10755W        W28959   2.874   5.602   3.870  0.2486  0.0682 -0.2547
10756W        W28960   4.691   5.352  13.412  0.3235  0.0066 -0.2333
10757W        W28961  11.169   9.048  13.405  0.2721 -0.1843 -0.0862
10758W        W28962   5.048   7.551   0.597  0.1819 -0.2551  0.1537
10759W        W28963  17.148   3.234  13.803  0.2786 -0.2729  0.0581
10760W        W28964  14.987   3.937   1.035  0.1971 -0.4480  0.2504
10761W        W28965   2.526  11.447  11.377  0.2997 -0.0921 -0.0964
10762W        W28966   4.037   3.188   3.760 -0.2775 -0.0159  0.2966
10763W        W28967  17.849  14.092  15.615 -0.0053 -0.1012 -0.1120
10764W        W28968   7.393   1.590  12.907 -0.0423  0.1494 -0.1383
10765W        W28969  10.301   9.949  15.129 -0.0338  0.1010  0.1723
10766W        W28970   1.411  15.756  15.020 -0.0114  0.1248 -0.2196
10767W        W28971   1.690   4.747   1.423  0.1193  0.1906  0.3760
10768W        W28972  15.569   7.061   5.174 -0.1537  0.0400  0.3388
10769W        W28973   9.715   1.660   0.261  0.0123  0.0879 -0.2729
10770W        W28974   6.290   6.639   3.632 -0.0891 -0.0167 -0.2894
10771W        W28975  17.173   9.467   4.146  0.0317  0.1260 -0.2428
10772W        W28976   6.760  16.477  15.532 -0.0447  0.2095 -0.1330
10773W        W28977  11.390   5.593  12.319  0.3707 -0.3037 -0.1042
10774W        W28978   3.117  17.435  13.659  0.1847  0.3379 -0.2928
10775W        W28979   8.556   2.409  12.385  0.1646  0.3684 -0.1532
10776W        W28980   1.069   7.752   3.080 -0.1057 -0.0166 -0.3127
10777W        W28981  16.748  14.792   0.322 -0.2106 -0.0262  0.0136
10778W        W28982  17.623   4.650   0.313  0.3178 -0.0656 -0.1787
10779W        W28983   6.327  12.009  15.086  0.0956 -0.2541 -0.2020
10780W        W28984   5.094  15.012  14.946 -0.1135 -0.2642  0.2746
10781W        W28985   9.136   3.213  15.255 -0.3455  0.0788  0.2721
10782W        W28986   3.325  17.827  13.965 -0.1779 -0.1941  0.0599
10783W        W28987  10.683   5.765   4.609  0.4557 -0.0634 -0.0163
10784W        W28988   4.140   1.456  14.204 -0.0966  0.0015 -0.0698
10785W        W28989  18.341   6.134   3.261  0.0077  0.2730  0.1211
10786W        W28990   9.378   1.642  13.049  0.4369  0.3311  0.1696
10787W        W28991  12.099  17.810  11.214 -0.1236 -0.0267  0.0281
10788W        W28992   0.269  16.688   4.651 -0.0154  0.0223 -0.2199
10789W        W28993  11.412   2.038  15.027 -0.0174 -0.0696 -0.2613
10790W        W28994  12.756  14.988  11.947  0.2711  0.0782  0.3236
10791W        W28995  13.617  17.661  14.178  0.0426 -0.0833 -0.3074
10792W        W28996   3.348  11.684   4.720  0.0646 -0.2776 -0.0646
10793W        W28997   2.894   0.401  11.796  0.1312  0.1157 -0.0240
10794W        W28998  12.738   0.832  15.673  0.0917  0.0601 -0.0567
10795W        W28999  13.043   8.020  12.570 -0.0777 -0.0855  0.0015
10796W        W29000   6.165  18.065  12.823 -0.0003  0.1550 -0.0791
10797W        W29001   1.472   8.119   4.269  0.3157  0.0869 -0.0973
10798W        W29002   2.841   4.749   2.287 -0.1335  0.1506  0.0356
10799W        W29003  10.395   7.781  13.674  0.1201 -0.1634 -0.0036
10800W        W29004  15.175   2.144   0.806 -0.1163 -0.1604  0.0399
10801W        W29005   5.821   3.133   4.313 -0.2378  0.0444  0.2638
10802W        W29006   5.299   1.940  12.684  0.0020 -0.1698  0.1312
10803W        W29007   8.551  11.683   9.855 -0.0822  0.0929 -0.1814
10804W        W29008   6.158   4.009   2.859  0.1769 -0.1255  0.1657
10805W        W29009  11.608  12.157   4.819 -0.0725 -0.0933 -0.3041
10806W        W29010  14.389  17.909  13.563 -0.1148  0.0769 -0.0648
10807W        W29011  17.952  16.144   0.176 -0.0338  0.1384 -0.1018
10808W        W29012   2.179   2.961  13.982  0.2389  0.1272 -0.0387
10809W        W29013   6.196  14.721  10.619 -0.1509  0.1348  0.1429
10810W        W29014   3.531   5.897  10.907 -0.0563 -0.0532  0.0512
10811W        W29015  11.327   7.844  12.610 -0.0931 -0.2954  0.2586
10812W        W29016   5.774   3.091  15.324 -0.1334  0.1375  0.0130
10813W        W29017   1.836   1.262  10.213  0.1572  0.4146  0.1608
10814W        W29018   9.128   6.233   0.032 -0.1087  0.2058 -0.0229
10815W        W29019   5.633   4.883   3.862 -0.3163  0.3653  0.1302
10816W        W29020  17.140   6.412   2.507  0.0735  0.1013 -0.1698
10817W        W29021   4.498   4.716  13.528  0.1553  0.2945 -0.0648
10818W        W29022   8.469  15.182  12.412  0.1112  0.2536 -0.0376
10819W        W29023   6.543  16.384  11.849  0.0114  0.1515  0.0366
10820W        W29024   7.337   3.374   0.073  0.1730  0.1959  0.0516
10821W        W29025  14.889  17.202  14.808  0.3974 -0.0486  0.3600
10822W        W29026   6.011   0.525  12.627  0.1236  0.1716  0.1067
10823W        W29027   1.059   4.419  14.969 -0.1416 -0.0049 -0.1511
10824W        W29028   3.072  10.072  13.402  0.1776  0.2612 -0.1792
10825W        W29029  17.538   9.184  15.614 -0.1385 -0.1473 -0.2222
10826W        W29030   2.360  11.443   0.729  0.1608  0.2022 -0.0178
10827W        W29031  16.185  16.367   0.536  0.3838  0.2077 -0.1265
10828W        W29032   6.405   1.719   3.479 -0.1437 -0.0356  0.0190
10829W        W29033  17.479   8.170  15.510 -0.1312 -0.0427  0.1151
10830W        W29034   1.157  18.353  13.643 -0.3187 -0.4789 -0.1509
10831W        W29035   5.200   7.824   4.252 -0.0976  0.1590  0.0617
10832W        W29036  10.916   4.904   1.698  0.1221 -0.0550  0.2280
10833W        W29037  13.559   7.270  12.414 -0.1348  0.0399 -0.0125
10834W        W29038   2.591  14.976  11.939  0.3558  0.1048 -0.2698
10835W        W29039   3.676  18.178   1.437  0.2517 -0.3765  0.0336
10836W        W29040  10.676   7.991   1.946 -0.1508  0.3156  0.1025
10837W        W29041  16.774  12.097   0.961 -0.1180  0.0468  0.1857
10838W        W29042   1.187   7.822   1.320  0.2012 -0.1594  0.4282
10839W        W29043   7.129   6.849  13.259  0.0234  0.1224  0.0784
10840W        W29044  15.457   4.036  11.870  0.2475  0.3277  0.4607
10841W        W29045  15.211   2.416  15.500  0.0139 -0.3126 -0.1108
10842W        W29046  10.822  17.905   4.102 -0.0687  0.0361  0.0113
10843W        W29047   5.452   0.248  14.644 -0.2589 -0.0085 -0.3016
10844W        W29048  10.851   3.557  11.215  0.1407  0.2126 -0.0911
10845W        W29049   7.638  14.574  14.303 -0.2256  0.2307 -0.0382
10846W        W29050  11.784  12.285   1.586  0.0295 -0.0939 -0.2953
10847W        W29051   5.022   3.733  12.302 -0.1110  0.0312 -0.0941
10848W        W29052   5.490  12.007  13.186 -0.0808 -0.3092  0.0452
10849W        W29053   4.330   4.394  13.221  0.0206  0.0165  0.2374
10850W        W29054  16.672   6.215   2.567  0.1917  0.1432  0.0447
10851W        W29055   1.674  11.137   0.685  0.0097  0.2875 -0.3708
10852W        W29056  14.071   4.992  10.330 -0.0436  0.3324  0.1404
10853W        W29057  15.576   5.549   0.041 -0.0644  0.2758 -0.0870
10854W        W29058   0.723   6.148   2.234  0.1137 -0.2122  0.0944
10855W        W29059  18.021  10.862   2.072 -0.2825  0.2334 -0.0096
10856W        W29060   0.119   1.602   3.347  0.2145  0.1409 -0.1434
10857W        W29061  17.605  18.091  15.628 -0.3216  0.0910  0.2254
10858W        W29062   8.388  12.712  11.016  0.1833  0.3293 -0.1365
10859W        W29063   0.828   3.262  12.851 -0.0187 -0.3131 -0.2222
10860W        W29064  13.820   9.103  14.673 -0.1756  0.0768  0.1919
10861W        W29065  10.459  11.049  14.549 -0.1217 -0.0300  0.2147
10862W        W29066   5.710   9.330  13.777 -0.1023  0.1085 -0.4689
10863W        W29067  16.861  11.905   5.702 -0.2896  0.2312 -0.5251
10864W        W29068   4.094  16.957   0.868 -0.0420  0.2636  0.3260
10865W        W29069   1.174  18.335  14.527  0.2487 -0.0558 -0.0936
10866W        W29070  17.185  13.873   0.088 -0.0024  0.0158  0.0375
10867W        W29071  14.805  15.488   3.509  0.2335  0.3604  0.0165
10868W        W29072   2.129  12.290   1.857 -0.0404 -0.0883  0.0497
10869W        W29073  15.256  16.300   3.168 -0.0903 -0.0245  0.0442
10870W        W29074  16.091   5.116   2.974  0.1793  0.0359 -0.1187
10871W        W29075   0.636  15.522   1.551 -0.0185 -0.1796 -0.1065
10872W        W29076  13.472  13.209  12.563 -0.0577 -0.0132  0.1010
10873W        W29077  16.946  12.995   2.069 -0.0640 -0.0553 -0.3390
10874W        W29078  10.489   8.024   0.341  0.1573 -0.2857 -0.3714
10875W        W29079   2.628   2.986  13.037 -0.1676 -0.1460 -0.0352
10876W        W29080  16.647  17.126   0.239 -0.0870  0.0271  0.2444
10877W        W29081  14.922  14.249  15.278 -0.2881 -0.0161 -0.3037
10878W        W29082   5.486   4.018  15.593 -0.0763 -0.2848 -0.3972
10879W        W29083  15.318   2.040   2.655  0.0294 -0.2152  0.1105
10880W        W29084   4.311  10.396  13.905 -0.1167 -0.1470  0.1078
10881W        W29085   8.287  17.345  10.843  0.2005 -0.0311  0.4056
10882W        W29086  13.824  15.082  15.115 -0.0515  0.3346 -0.2789
10883W        W29087  14.718  17.384  13.012 -0.1405  0.3436 -0.0921
10884W        W29088   2.466   4.838  14.069  0.1380 -0.0991  0.2319
10885W        W29089   4.454   1.218   0.896 -0.1055 -0.2178 -0.0817
10886W        W29090   2.204   3.589  14.756  0.1137  0.0547 -0.3588
10887W        W29091   7.321  16.837   1.733  0.1167 -0.2057 -0.3003
10888W        W29092  11.689  12.701   1.858 -0.3600  0.5104  0.2586
10889W        W29093   3.754   9.855  11.266  0.0953  0.1151  0.0527
10890W        W29094  11.040  18.278  15.086 -0.1430 -0.4185 -0.1459
10891W        W29095  11.095   3.615  13.524  0.0086 -0.0498  0.3110
10892W        W29096  17.449   1.519   0.687  0.0231  0.3057 -0.1467
10893W        W29097   5.883   6.458  14.107 -0.0117  0.1161 -0.1838
10894W        W29098  10.410  16.855   3.875  0.1672 -0.5050  0.1953
10895W        W29099   7.721   4.026   2.582  0.0873 -0.1808  0.0715
10896W        W29100   1.451   2.601  11.068 -0.4018 -0.1584  0.1227
10897W        W29101   0.459  10.827   1.918 -0.0219  0.3312  0.1355
10898W        W29102   4.989  11.927  14.063 -0.0365  0.0986  0.2001
10899W        W29103  13.688  13.505   4.275 -0.0104 -0.0082 -0.0426
10900W        W29104  11.296   1.992  13.758 -0.1339 -0.1048  0.0534
10901W        W29105  15.970   0.810  10.992 -0.1817 -0.1779 -0.1735
10902W        W29106   4.232   6.518   3.693  0.0670 -0.3161 -0.0491
10903W        W29107  11.452   9.770  12.234  0.1459  0.0663 -0.0310
10904W        W29108   9.532   3.903   5.179 -0.0460 -0.3166 -0.4539
10905W        W29109   0.173   8.282   4.059 -0.0193 -0.0260  0.0487
10906W        W29110  16.153  10.410   3.914 -0.0224 -0.0494  0.0312
10907W        W29111   8.268  13.684  15.269  0.1079 -0.0018 -0.0558
10908W        W29112   7.076   8.950   3.948  0.0574  0.0049 -0.1523
10909W        W29113   2.756   4.318  12.007  0.0944  0.0909  0.0038
10910W        W29114  11.198   4.220  15.585 -0.0119  0.0870  0.1186
10911W        W29115  10.609   3.606  13.954 -0.0706 -0.1312  0.0574
10912W        W29116   6.425   2.084  14.405  0.0021  0.3004 -0.2460
10913W        W29117   6.900  12.169   3.877  0.0007  0.1738  0.0681
10914W        W29118   0.865   6.656  12.594  0.0180  0.2417 -0.0541
10915W        W29119  10.303  15.960   3.766 -0.0079 -0.2782 -0.3027
10916W        W29120   4.098  17.895   5.197 -0.2649 -0.1893  0.0411
10917W        W29121  11.168  12.424  15.406 -0.1594 -0.2585  0.3436
10918W        W29122  12.040   5.498  13.723  0.1768 -0.0230 -0.0423
10919W        W29123  13.984   0.989  14.055 -0.1723 -0.0377  0.2084
10920W        W29124   0.834   7.394   0.124 -0.0880 -0.0954 -0.3443
10921W        W29125  13.917   0.461  13.365  0.0570  0.1101 -0.1067
10922W        W29126   4.520  15.634   2.215  0.1448 -0.1191  0.0632
10923W        W29127   2.465  10.719  12.864 -0.0618  0.0643  0.4267
10924W        W29128   4.929   0.174   3.544 -0.1937  0.0951 -0.1177
10925W        W29129  11.459   9.291  13.773 -0.0382  0.0152  0.1285
10926W        W29130  13.614  14.536   0.668  0.0500  0.0152  0.1181
10927W        W29131  12.477  12.202  13.366 -0.1912  0.1144 -0.2058
10928W        W29132   6.949   4.168  12.834 -0.1417 -0.1791  0.0339
10929W        W29133  18.104   2.550  11.208  0.2210 -0.0926 -0.0167
10930W        W29134   8.531  14.361   1.273 -0.1930  0.1277 -0.1712
10931W        W29135  17.503   7.445  15.082  0.2024  0.0036 -0.2839
10932W        W29136  12.534  10.714  12.829  0.1066  0.0961 -0.1146
10933W        W29137   1.550  14.506   4.257  0.0867 -0.0020  0.0882
10934W        W29138   8.273   4.734   3.748  0.2064  0.0716  0.2408
10935W        W29139   3.951  14.087  12.547 -0.0538 -0.0751 -0.0202
10936W        W29140   1.464   2.662  12.028 -0.2508  0.1413  0.2290
10937W        W29141  16.500  16.036   2.651  0.4144 -0.1208 -0.4977
10938W        W29142   5.917   5.217  12.790 -0.0702 -0.0341  0.1717
10939W        W29143   3.537   1.052   2.442  0.2581  0.0186 -0.3636
10940W        W29144  15.167   0.551  12.740 -0.0002 -0.0108 -0.1350
10941W        W29145   8.495   4.635  14.507  0.1701 -0.0394  0.4533
10942W        W29146  10.471   5.271   1.989 -0.0047 -0.2825  0.2627
10943W        W29147   7.757   2.681  13.622  0.1203 -0.0871  0.0064
10944W        W29148  14.684  12.366   1.163  0.0329 -0.0320  0.1112
10945W        W29149  15.045   6.287   3.979  0.2416 -0.3014 -0.2007
10946W        W29150   7.779  14.172   3.542 -0.2391 -0.0500  0.0762
10947W        W29151   1.632   7.365  12.252  0.1450 -0.2100  0.2463
10948W        W29152   6.890   0.442   3.866 -0.2402  0.1811  0.0207
10949W        W29153  11.177   7.088   1.565  0.2088 -0.0612  0.1320
10950W        W29154   1.595   2.571   3.300 -0.0651  0.2323  0.0910
10951W        W29155  15.572  13.372  12.384 -0.0525  0.0386 -0.0498
10952W        W29156   1.524  15.528  15.530 -0.0697  0.2367 -0.0479
10953W        W29157   5.896  15.080   1.584 -0.4037 -0.1166 -0.4205
10954W        W29158   2.310  17.691   4.446  0.1601  0.0435  0.0528
10955W        W29159   5.150  15.718  13.768 -0.0812  0.0424 -0.0970
10956W        W29160   0.913   0.380   2.907 -0.0647  0.1063 -0.0711
10957W        W29161  16.833  13.075   0.049  0.0146  0.0182  0.2018
10958W        W29162  12.406   0.023  15.259 -0.0432 -0.0150 -0.1095
10959W        W29163   2.263   6.735  14.974  0.0169  0.0524 -0.0820
10960W        W29164   1.236  13.963  12.893  0.3446  0.0434  0.0266
10961W        W29165  10.625  15.216   3.409 -0.1857 -0.1202  0.1966
10962W        W29166   8.950   2.339  10.856  0.1400  0.0219  0.2860
10963W        W29167  10.117   7.045   1.292  0.3009 -0.1261 -0.3375
10964W        W29168   7.640   3.950  14.467 -0.2188 -0.2899 -0.0900
10965W        W29169  16.515  13.814   3.872  0.3145 -0.0348 -0.0894
10966W        W29170   9.001  16.256   5.105  0.0262  0.0966 -0.0439
10967W        W29171   9.068  15.585   2.266  0.2989  0.0991  0.0742
10968W        W29172  10.714   7.428   3.555 -0.0755 -0.1704 -0.1412
10969W        W29173   2.919   7.385  14.808 -0.2463  0.2484  0.3098
10970W        W29174  15.001  11.259   1.934 -0.1171 -0.0699 -0.0861
10971W        W29175   2.405  13.665  14.727 -0.0878 -0.0032  0.0042
10972W        W29176   6.620  17.350  14.886 -0.0546  0.1825  0.0151
10973W        W29177   2.800   2.549   4.051  0.2554 -0.1683 -0.0862
10974W        W29178  15.269   5.592  15.398  0.0839 -0.2633 -0.1777
10975W        W29179  11.470  10.301  13.272 -0.0999  0.0069  0.1812
10976W        W29180   7.859   5.979  14.364 -0.0068 -0.2739  0.2852
10977W        W29181  11.003   8.110   0.616  0.0469 -0.1026  0.0211
10978W        W29182  14.474   6.360  11.909 -0.1657  0.0851 -0.3848
10979W        W29183   6.552  17.224  12.725  0.2960 -0.0302 -0.0003
10980W        W29184  13.085   2.376  10.637  0.3589  0.2331 -0.3943
10981W        W29185  12.303   6.432   5.415 -0.0985 -0.1219  0.2028
10982W        W29186  13.277  15.033  13.143 -0.2571  0.1444 -0.0337
10983W        W29187  10.691  16.305  14.088  0.2205 -0.2633 -0.1902
10984W        W29188   0.720   7.446   4.439 -0.2374 -0.0535 -0.0448
10985W        W29189  15.504  11.650   2.476  0.0300  0.1769  0.1613
10986W        W29190  11.257  12.535   4.648  0.0619  0.0527  0.2326
10987W        W29191   8.664  12.684   2.573  0.0862  0.0137  0.2700
10988W        W29192  10.496  10.209   3.728  0.3084 -0.1759 -0.0457
10989W        W29193  16.914   1.916   1.506  0.2402  0.1187  0.0656
10990W        W29194  16.181  14.922   2.230  0.0828 -0.3517 -0.3248
10991W        W29195   4.118   4.349  13.700 -0.0708  0.0230  0.1251
10992W        W29196  17.581   5.903   4.153  0.0091  0.2213  0.2102
10993W        W29197  14.445   7.974  11.895  0.1635 -0.3283 -0.2454
10994W        W29198   9.056  18.044   4.066  0.2923  0.1003  0.2749
10995W        W29199   6.565   0.287   3.501 -0.1410  0.1209  0.2675
10996W        W29200   3.473   6.748  13.181  0.1486  0.1810 -0.0510
10997W        W29201  13.346   0.575  14.619 -0.0437  0.1831  0.2427
10998W        W29202   9.593   3.132   2.078 -0.1444 -0.0629  0.0573
10999W        W29203  11.910   8.313  15.515  0.0621 -0.0538  0.1556
11000W        W29204   2.744   0.663   2.242  0.0631  0.1013 -0.0178
11001W        W29205  11.616  14.581   3.410 -0.0668  0.2132 -0.2122
11002W        W29206   7.599  13.070   4.822  0.1034  0.1354 -0.1795
11003W        W29207  14.717  10.388   2.442  0.0041 -0.0530 -0.0029
11004W        W29208   1.362  11.028   4.288  0.0570 -0.0492  0.0633
11005W        W29209   1.261   0.878   0.095  0.2376  0.1747  0.0377
11006W        W29210  17.542  10.094  12.204 -0.1830 -0.0844 -0.1511
11007W        W29211  17.382  17.685   2.655  0.1038  0.0922 -0.1235
11008W        W29212  16.337   1.346   3.075  0.0173 -0.1354  0.0503
11009W        W29213  16.121   0.561   4.216 -0.2125 -0.0641  0.2078
11010W        W29214   0.024   6.881   2.809 -0.1196  0.1163  0.0710
11011W        W29215   6.647   9.164  10.661  0.1812  0.0771 -0.0328
11012W        W29216   4.110   5.371   3.377 -0.1506 -0.1128  0.4040
11013W        W29217   9.978  10.448   2.807 -0.2042 -0.1397  0.0697
11014W        W29218   3.219   8.417   1.759 -0.2790 -0.1667  0.2217
11015W        W29219   4.023   9.817  10.800  0.0863  0.3631 -0.0656
11016W        W29220   0.740  12.474   4.606 -0.0644  0.0329  0.1981
11017W        W29221  17.567  13.781  14.006 -0.3597  0.3735  0.1449
11018W        W29222  10.535   5.577   3.947 -0.1955  0.1852  0.0937
11019W        W29223   1.094   5.583   2.532 -0.1272  0.1015 -0.0427
11020W        W29224   0.004   9.361  13.884  0.1487  0.2461  0.1544
11021W        W29225  14.695   4.335  15.657 -0.2340  0.0190 -0.0754
11022W        W29226   4.248   5.334   2.771 -0.3866 -0.1681 -0.2578
11023W        W29227   7.125   1.320   0.325 -0.0027 -0.0716  0.0314
11024W        W29228  11.196   6.509  15.645 -0.2592 -0.1761 -0.2348
11025W        W29229   1.767  15.079   3.009  0.1975 -0.1702  0.0117
11026W        W29230   9.206   5.941   4.198 -0.0804  0.1495  0.1118
11027W        W29231  16.057  17.524  10.904 -0.2639 -0.1323  0.0530
11028W        W29232   8.355   6.761  13.825  0.1801  0.0424 -0.1530
11029W        W29233  10.130   7.761   0.122 -0.2323 -0.3137 -0.1065
11030W        W29234   1.202   9.591  12.035  0.0442  0.2059  0.0653
11031W        W29235  15.465  18.083   1.180  0.1160 -0.1153 -0.1490
11032W        W29236   6.122  14.465   1.564 -0.0316  0.0592  0.0912
11033W        W29237   7.811  13.910   0.388 -0.0006  0.0720 -0.1766
11034W        W29238   6.726   2.201  15.672 -0.0017 -0.0997  0.0217
11035W        W29239   2.431   7.762   3.720  0.2542  0.0013  0.1411
11036W        W29240  11.356   0.873  14.781 -0.0476 -0.1161 -0.0175
11037W        W29241   1.173   6.791  14.688 -0.1801  0.1560 -0.0821
11038W        W29242  17.166  16.963  13.584 -0.2519 -0.0362 -0.0165
11039W        W29243   1.197  10.767   1.204 -0.1759 -0.2142 -0.1466
11040W        W29244  16.283   0.273   1.253  0.0488  0.1264 -0.2515
11041W        W29245   6.340  10.518   5.710  0.2732 -0.0412  0.0412
11042W        W29246   1.361  10.076   2.578  0.0026 -0.3445 -0.3311
11043W        W29247  13.943  12.390   3.348 -0.2639  0.1833 -0.1200
11044W        W29248  16.828  11.578   4.311 -0.3969  0.2084  0.0417
11045W        W29249   7.539   4.711  10.562  0.1251  0.0139  0.1223
11046W        W29250  13.249  17.868  13.903  0.3806  0.0994 -0.1827
11047W        W29251   9.132  16.645  10.861 -0.1119 -0.0533 -0.0136
11048W        W29252  10.875  12.628   3.694 -0.4061 -0.0916 -0.3690
11049W        W29253  15.499  16.406   2.705 -0.3202 -0.0996 -0.0036
11050W        W29254  13.554   4.017  15.207 -0.2226  0.1814  0.1910
11051W        W29255  13.407  12.437  13.209 -0.0282 -0.3566 -0.0177
11052W        W29256  15.638  17.550   0.418 -0.0539 -0.3235 -0.1499
11053W        W29257   0.039   0.398   2.486 -0.1677  0.0265 -0.0728
11054W        W29258   8.027  12.938  13.528 -0.0941  0.2360  0.0404
11055W        W29259   7.651   9.744   1.460 -0.0748 -0.2172 -0.3745
11056W        W29260   1.302   2.167  12.845 -0.1440  0.4000  0.2127
11057W        W29261   8.226   0.974  14.298  0.0460  0.3222 -0.1906
11058W        W29262   2.625   2.723  11.723 -0.0808  0.0392 -0.1473
11059W        W29263   0.651   4.612  13.578 -0.3442  0.0363  0.1450
11060W        W29264   1.967  13.367   2.584 -0.5176 -0.0625  0.0900
11061W        W29265  18.213   6.661  12.403 -0.0670 -0.0980  0.0545
11062W        W29266  16.375   9.623  11.177  0.0473  0.0273 -0.3334
11063W        W29267   5.996  12.014   2.684  0.1783  0.0122  0.0921
11064W        W29268  16.867  17.562   2.384 -0.2906 -0.1309  0.0750
11065W        W29269   8.322  11.471  15.126 -0.1388  0.0819  0.1301
11066W        W29270  13.981   0.830   1.035 -0.1559 -0.1242  0.1335
11067W        W29271   1.528   4.992   4.037  0.0895 -0.2611 -0.2794
11068W        W29272  13.940  13.808  15.093 -0.1230 -0.0526 -0.2025
11069W        W29273   0.803   8.380   1.244  0.1619 -0.1701 -0.0024
11070W        W29274  15.219   2.540  12.927  0.2851  0.1346  0.0689
11071W        W29275   7.376  13.973  14.484  0.0912  0.0203 -0.1061
11072W        W29276   1.336   0.145   3.678 -0.3517  0.0528 -0.1781
11073W        W29277   0.104  13.758  13.729 -0.2679  0.1441  0.1177
11074W        W29278  13.029   4.473  12.507  0.2336 -0.1419 -0.1655
11075W        W29279  12.639   5.327  13.048 -0.0999  0.0480 -0.1469
11076W        W29280  14.664   3.128  13.613 -0.0130 -0.4359 -0.1745
11077W        W29281   9.888   2.402  11.393 -0.0100 -0.0549  0.2111
11078W        W29282  16.736  14.095  14.071 -0.0163  0.1761  0.3305
11079W        W29283   8.464  16.454   2.440  0.2505  0.0046  0.1107
11080W        W29284  17.527  15.898   0.528 -0.0499 -0.0479  0.1887
11081W        W29285   5.175  15.688   9.890  0.1212  0.1543  0.0826
11082W        W29286  15.596   4.531   1.565  0.2320  0.0479  0.1037
11083W        W29287  15.505   3.685  11.549  0.0931  0.2912 -0.2338
11084W        W29288   1.172   6.450  13.502  0.1754 -0.0595 -0.2600
11085W        W29289  11.025   3.380  14.176 -0.2551 -0.0865  0.3466
11086W        W29290  17.949   5.780  13.850  0.4750 -0.0489  0.0451
11087W        W29291   4.916   5.061   5.046  0.0512 -0.1278 -0.0381
11088W        W29292  16.647   6.156  12.784  0.0083  0.0649 -0.3258
11089W        W29293  16.732  16.543  15.400 -0.1648 -0.2268 -0.2207
11090W        W29294  11.745   4.439   9.942  0.0028 -0.0746 -0.0646
11091W        W29295   9.912  15.193   2.043 -0.3007 -0.1344  0.0645
11092W        W29296   7.574   7.961   0.278  0.0512  0.3918 -0.0787
11093W        W29297   0.648   3.643  12.584 -0.0417 -0.0870  0.0564
11094W        W29298  15.432  15.274  12.455  0.1322 -0.1040 -0.0705
11095W        W29299  15.274  15.771   1.987  0.2650  0.0237 -0.0109
11096W        W29300   7.568   6.395  14.502  0.0343 -0.1915  0.4425
11097W        W29301   6.399  17.625  13.238  0.3549 -0.0374 -0.1758
11098W        W29302   6.090   5.301  11.188  0.0229 -0.0282 -0.1652
11099W        W29303  16.815   6.390   1.182  0.0617 -0.1815 -0.0800
11100W        W29304   6.262   7.776   5.091  0.2795 -0.1086  0.0606
11101W        W29305  11.613  11.321   1.080 -0.2075 -0.2297 -0.0591
11102W        W29306   7.949   5.631  14.717 -0.0437 -0.1209 -0.0103
11103W        W29307   1.842  15.618   5.132  0.1813 -0.0863  0.0154
11104W        W29308  10.712   5.534  12.656  0.1114 -0.0260 -0.1830
11105W        W29309   4.346   5.893   1.115  0.1871 -0.0249  0.1742
11106W        W29310  11.687  14.383   5.567 -0.1506 -0.2309 -0.2119
11107W        W29311   4.710   0.239   4.315  0.0096  0.0773 -0.2161
11108W        W29312  18.233  14.650   3.223  0.2151  0.2962  0.2729
11109W        W29313   1.885   0.875   2.158 -0.2414 -0.1531 -0.2145
11110W        W29314   9.823   0.184   2.734 -0.1236  0.0675  0.0551
11111W        W29315   7.153   2.121  14.500  0.3046  0.1042 -0.0576
11112W        W29316  16.423   6.447  13.943  0.3157 -0.0219 -0.5538
11113W        W29317   5.699   7.358   1.817 -0.0366  0.1895  0.2443
11114W        W29318  10.615   0.969   0.740 -0.1829 -0.2273 -0.1918
11115W        W29319  14.959  13.151   0.840  0.1863 -0.1628  0.1374
11116W        W29320  13.565   4.264  10.236  0.1063 -0.1527  0.0413
11117W        W29321   3.691   4.425   3.885  0.2355 -0.0969  0.4288
11118W        W29322   8.089   2.328   2.225 -0.2678 -0.0093  0.2774
11119W        W29323   0.117  15.349  13.961 -0.0524  0.4298  0.1793
11120W        W29324  16.972   4.291  10.853 -0.0915  0.2711 -0.0651
11121W        W29325  10.131  17.745   3.847 -0.0893  0.1038 -0.2656
11122W        W29326   3.322   0.007  13.049  0.0619 -0.0313  0.1148
11123W        W29327   5.831   9.761   0.700  0.1583 -0.2264  0.0055
11124W        W29328  10.285  11.647   3.123  0.0439  0.1784 -0.1531
11125W        W29329   5.171   1.306   3.303 -0.0140 -0.2005 -0.2796
11126W        W29330  16.041  13.994  13.231 -0.1332 -0.0264 -0.2048
11127W        W29331   5.606   2.030   1.485  0.0754 -0.0684 -0.0296
11128W        W29332  13.868  12.980  13.262  0.1981  0.2210 -0.0403
11129W        W29333  10.567  13.420  12.271  0.2794  0.1461 -0.0514
11130W        W29334  11.848   6.557  11.318 -0.0788  0.3716  0.0185
11131W        W29335  14.298   7.230   5.013 -0.4232 -0.1153 -0.3490
11132W        W29336  15.454   7.822  15.548  0.0409 -0.1624  0.2217
11133W        W29337   2.579  13.422   0.913  0.1906  0.0326 -0.1361
11134W        W29338  12.439  17.365  12.998 -0.1284  0.0167 -0.0516
11135W        W29339  12.509  13.815  14.618 -0.0778 -0.1509  0.1813
11136W        W29340  14.614   2.016   0.262 -0.2026 -0.0155 -0.1633
11137W        W29341  17.718  17.860   1.062 -0.2506  0.0035  0.0312
11138W        W29342   0.759  13.331  14.441  0.0466 -0.3108 -0.2037
11139W        W29343  13.917   8.603   2.918 -0.0307 -0.1916 -0.1651
11140W        W29344   8.936   2.258  14.894  0.1415 -0.0342 -0.0485
11141W        W29345  10.817   2.103   5.720  0.1449 -0.2340  0.1448
11142W        W29346  12.475   8.526   3.336  0.0799  0.0977  0.3459
11143W        W29347  16.823   3.668   2.137  0.0216  0.5961  0.3310
11144W        W29348   4.711  15.751   3.135 -0.1095  0.5209  0.0228
11145W        W29349   4.633   7.267   0.893 -0.2258 -0.2806  0.1002
11146W        W29350  17.705   1.262  14.058 -0.2065  0.1098  0.1727
11147W        W29351   8.644  18.064   4.450  0.1207  0.3417  0.1233
11148W        W29352   7.041   7.469  10.932 -0.1298  0.0979 -0.1193
11149W        W29353  14.679   0.220  14.677 -0.0290 -0.2889  0.1653
11150W        W29354  10.785   4.053  12.363 -0.2898 -0.0764  0.0207
11151W        W29355   3.085   1.541  14.747  0.0957 -0.1468  0.1931
11152W        W29356  10.209  17.184  11.358  0.1844  0.0992  0.0939
11153W        W29357  17.481   7.799  12.313 -0.0782  0.0665  0.0429
11154W        W29358   6.461   0.576   0.459  0.0368 -0.0008  0.1776
11155W        W29359   4.908  14.246  14.862  0.0188 -0.1945  0.1882
11156W        W29360  12.610  15.677  15.120  0.1881 -0.2423  0.1453
11157W        W29361  17.306   1.474   3.538 -0.3458  0.0137 -0.0807
11158W        W29362  16.433   2.488  15.263 -0.1756 -0.0668  0.0705
11159W        W29363   5.596   9.710   5.670 -0.0791 -0.0271 -0.1046
11160W        W29364   3.081   9.618  13.622 -0.2650  0.1853 -0.3519
11161W        W29365  17.268   7.512   4.043 -0.1378 -0.3854  0.0225
11162W        W29366   5.976  12.953  13.343 -0.0438  0.3982  0.0121
11163W        W29367   6.055   2.401  13.696 -0.0450 -0.0196 -0.2969
11164W        W29368  15.560  16.213   2.184  0.1204 -0.0528  0.0669
11165W        W29369  11.680   0.146   2.663  0.0581 -0.0454  0.1156
11166W        W29370  13.313   9.232   4.303  0.0268  0.1241 -0.2715
11167W        W29371   7.593   1.892   1.828 -0.3752 -0.0824  0.1838
11168W        W29372  14.047   3.636  11.934  0.2177  0.1536  0.0581
11169W        W29373   4.935   4.694  12.804 -0.1406 -0.2335  0.0114
11170W        W29374  16.535   1.345  11.523  0.0088  0.0126 -0.1288
11171W        W29375   9.469   4.666   1.497  0.1239  0.2765  0.0420
11172W        W29376  12.724   5.777  10.078  0.1461  0.1230  0.1628
11173W        W29377  17.864   6.231  13.618  0.2100 -0.2152 -0.1095
11174W        W29378   0.727   1.701  11.095  0.0181 -0.2129 -0.1816
11175W        W29379   9.594  17.251   3.593 -0.1345 -0.0872  0.0752
11176W        W29380   8.040  13.354  14.389 -0.1926  0.0672 -0.3475
11177W        W29381   3.656   1.380  13.568  0.0200 -0.0151  0.0216
11178W        W29382   1.772   2.554   3.832  0.1360  0.1945 -0.0729
11179W        W29383   6.442   1.106  13.925  0.0379  0.4369 -0.2854
11180W        W29384  17.511  11.927   2.844  0.0807 -0.1432  0.2269
11181W        W29385   9.108  18.373  14.200 -0.1292 -0.4293  0.1585
11182W        W29386   8.948  17.701  11.375 -0.1705 -0.3203 -0.0482
11183W        W29387   9.800  15.019  10.695 -0.0676 -0.1007 -0.2291
11184W        W29388   9.913  15.578   3.507  0.0207  0.0484 -0.0750
11185W        W29389   0.234   4.418  13.419 -0.0412  0.1509  0.1069
11186W        W29390  17.869  16.422  13.193  0.0739 -0.2388 -0.0179
11187W        W29391  15.580  14.194   4.957  0.0491 -0.3875  0.3550
11188W        W29392   8.281  11.305   4.158 -0.1324  0.5329 -0.0110
11189W        W29393   3.364  13.614   0.861  0.0764  0.0046 -0.0228
11190W        W29394  12.194  10.862   0.020  0.0083 -0.0776 -0.0660
11191W        W29395   9.169   2.505   2.401 -0.2531 -0.1431  0.3916
11192W        W29396  10.547  14.429  12.113 -0.0296 -0.0808 -0.0934
11193W        W29397  11.854  14.222   1.190 -0.1499  0.4638 -0.2271
11194W        W29398  10.250  14.241  13.451 -0.0146 -0.2636 -0.2895
11195W        W29399  16.013   0.117  11.734  0.0467 -0.1242  0.0244
11196W        W29400   7.745   6.710   5.323 -0.1214 -0.0720  0.3656
11197W        W29401   0.526   3.083   2.590  0.0155  0.1858  0.0256
11198W        W29402  13.737   0.256   5.407 -0.1403  0.4165 -0.3541
11199W        W29403   5.812   6.476  15.441 -0.1168  0.1049 -0.0334
11200W        W29404  16.610  15.600   0.970 -0.0962  0.0106  0.1040
11201W        W29405  10.392   3.075  12.836 -0.0971  0.0010 -0.2143
11202W        W29406  13.165  10.172   0.582  0.0761 -0.5504 -0.4403
11203W        W29407   6.879   1.574  15.570 -0.0346 -0.2945 -0.0021
11204W        W29408   1.163  15.901   0.190 -0.0723 -0.0021  0.0248
11205W        W29409  15.154   9.826   0.321  0.0749 -0.1096 -0.1059
11206W        W29410  18.334  17.639  11.957  0.1783  0.1500 -0.2074
11207W        W29411  15.719  12.486   2.967  0.1105  0.0087  0.1393
11208W        W29412  14.897  10.747   2.098  0.1361 -0.0500  0.0201
11209W        W29413  14.494   9.399   4.886  0.0211 -0.3348 -0.1065
11210W        W29414   4.570   5.732  10.976  0.2583 -0.3802 -0.1470
11211W        W29415  13.407   4.474   0.245  0.1122  0.0399  0.1244
11212W        W29416  11.359  14.102  12.809 -0.1800  0.0969 -0.0229
11213W        W29417  11.035   8.350   2.087  0.1369  0.0116 -0.3748
11214W        W29418  12.700   5.586   0.430  0.2750 -0.0134  0.3136
11215W        W29419  14.950  10.492  13.566 -0.1616 -0.0324 -0.3063
11216W        W29420   7.894  18.123  11.670  0.2268  0.0174 -0.0520
11217W        W29421   1.891   1.494   3.924  0.0106 -0.0622  0.1998
11218W        W29422   3.949   4.565  14.148  0.2292 -0.3513  0.1446
11219W        W29423   4.739  15.637   5.555 -0.0291 -0.0862 -0.0712
11220W        W29424   6.285   0.733  11.470 -0.0490  0.2620 -0.1981
11221W        W29425   7.426   2.711   0.032  0.2698  0.2099 -0.3515
11222W        W29426  12.629   5.990  11.668 -0.1543  0.3617  0.0999
11223W        W29427   0.538   0.024  12.887 -0.0615 -0.0590  0.1197
11224W        W29428  16.591  11.733   3.926  0.0994 -0.0351  0.1190
11225W        W29429   4.582   4.933  11.499 -0.0285  0.1290  0.2975
11226W        W29430   9.339  10.674  12.942  0.1248 -0.2812 -0.2414
11227W        W29431   7.101   1.362   4.598 -0.0728 -0.1154 -0.2872
11228W        W29432   2.453  12.353  11.222  0.0183 -0.2738 -0.1063
11229W        W29433  12.602   5.853   2.327 -0.3289 -0.1545 -0.1498
11230W        W29434  14.118  16.049   2.436 -0.3529 -0.0263 -0.3782
11231W        W29435   9.122  10.767  11.564 -0.0761  0.0033  0.7301
11232W        W29436  15.301  14.341   1.348 -0.2306  0.1891 -0.1782
11233W        W29437   0.156  11.944   1.857 -0.3158 -0.1476 -0.1375
11234W        W29438  12.790   1.256  11.787  0.0451  0.1699  0.3429
11235W        W29439  17.876   5.745   1.288  0.0108 -0.1648  0.2864
11236W        W29440  16.220   7.294   4.549  0.1566  0.0588  0.3300
11237W        W29441   5.684   0.562   5.423 -0.2441  0.1901  0.2098
11238W        W29442   1.996   5.762  12.894 -0.0357 -0.3477  0.1620
11239W        W29443   4.123  11.964   0.168  0.0769  0.0198  0.0326
11240W        W29444   9.143   0.439   2.029 -0.1538  0.0734 -0.2696
11241W        W29445  15.170   1.684   4.072  0.1027 -0.2789  0.3614
11242W        W29446   1.203   6.678   4.073 -0.2148  0.2619  0.0309
11243W        W29447   0.194  11.667   3.673 -0.4749  0.2377 -0.3598
11244W        W29448  12.572   0.431   0.997 -0.0197 -0.2177 -0.0357
11245W        W29449   8.389  16.149   1.217  0.2286 -0.0481  0.5263
11246W        W29450  11.730   4.200  14.756 -0.0566 -0.3661  0.2106
11247W        W29451  14.198   1.892   2.870 -0.1202  0.1887  0.1038
11248W        W29452  16.892  10.595   3.091  0.1553 -0.2550  0.0559
11249W        W29453  11.216   2.327   0.066  0.1774  0.1768 -0.1134
11250W        W29454   3.863  16.432   0.803 -0.2433 -0.1716 -0.2343
11251W        W29455   3.262   4.522   4.667 -0.1690 -0.0982 -0.1134
11252W        W29456   7.836   9.708   4.152 -0.0228  0.0704  0.0594
11253W        W29457   5.402  17.557  11.365 -0.3116  0.1373 -0.0777
11254W        W29458  17.606   0.751  12.168  0.2901  0.1752 -0.0079
11255W        W29459  11.968  12.835   2.733  0.1415 -0.1126 -0.1041
11256W        W29460   1.466  10.662  13.191  0.0571  0.3317 -0.1294
11257W        W29461  10.708   7.168   0.536 -0.0945  0.0312  0.1480
11258W        W29462  17.251  15.976  15.438  0.2582 -0.0307  0.0352
11259W        W29463   7.129  11.219   2.070  0.0798 -0.0518 -0.3353
11260W        W29464   2.633   7.016  11.407  0.3460  0.0032  0.0556
11261W        W29465   5.444  16.389  14.922  0.0386  0.0971  0.0826
11262W        W29466   9.008  10.361  12.414  0.1169  0.0850  0.0722
11263W        W29467   6.265   3.574   1.594  0.0696  0.0629  0.2055
11264W        W29468   8.804   2.633   0.783  0.1156  0.1524  0.2134
11265W        W29469   6.228   2.735  13.294 -0.0779  0.2283  0.2046
11266W        W29470  17.815   8.738  14.829  0.1669 -0.3268 -0.0329
11267W        W29471   5.585   6.023  15.378 -0.0730  0.1106  0.0075
11268W        W29472   4.994   5.323  12.362 -0.1285  0.0090  0.0777
11269W        W29473  11.320   1.415   2.308 -0.1763  0.1954  0.1922
11270W        W29474   8.041   4.426   3.458 -0.3924  0.0163 -0.1245
11271W        W29475  16.694  11.005  13.168  0.2770 -0.0378  0.0846
11272W        W29476  11.649   7.634   1.924  0.0516 -0.1837 -0.4582
11273W        W29477  17.213   6.890  12.556  0.3530 -0.1197 -0.0084
11274W        W29478   0.817  16.443   4.068  0.4526 -0.0584 -0.0516
11275W        W29479  12.118   7.185   3.836  0.2670 -0.1097  0.3893
11276W        W29480   5.433  17.576  15.208  0.3593 -0.1586 -0.3336
11277W        W29481   4.235  10.306   2.775  0.0112 -0.2032  0.4030
11278W        W29482   0.580  17.737  14.065 -0.0039  0.0538  0.6338
11279W        W29483   4.466  11.114   3.226  0.0335 -0.0147 -0.0055
11280W        W29484   4.296   6.727  13.449 -0.0485 -0.3826 -0.3976
11281W        W29485   3.459   9.150  14.625 -0.0867  0.0884 -0.0669
11282W        W29486   8.359   2.343   5.026  0.0325  0.1540 -0.2366
11283W        W29487   2.851  11.394   1.076 -0.1339 -0.0361  0.0542
11284W        W29488  11.813   5.852   0.793 -0.1516 -0.1878  0.4283
11285W        W29489   1.066   9.582   0.791 -0.0661 -0.2594 -0.1366
11286W        W29490  12.441  14.900  13.257 -0.3874  0.0573  0.0121
11287W        W29491   5.839   8.863  12.362 -0.1453 -0.0344  0.0731
11288W        W29492  10.345   2.476   0.495  0.0080 -0.1353 -0.0673
11289W        W29493   8.406   9.243  11.229 -0.1821  0.0709 -0.0012
11290W        W29494  13.957  10.420   4.642  0.1418  0.2452 -0.0270
11291W        W29495   7.351   6.697   2.547  0.3485  0.2345 -0.0850
11292W        W29496  11.089  17.540   1.285  0.2540 -0.2548  0.1456
11293W        W29497   9.576   6.799  15.248 -0.1121 -0.0458 -0.1773
11294W        W29498   4.851   7.368   2.312 -0.1272 -0.0496  0.1516
11295W        W29499  12.712  15.466  11.791 -0.1273 -0.0851 -0.4528
11296W        W29500   8.482  13.898   2.463  0.5756  0.1447 -0.3212
11297W        W29501  16.403   3.082   4.642 -0.2098 -0.1200 -0.0976
11298W        W29502   0.827   8.236  14.032  0.0675 -0.0121 -0.0097
11299W        W29503   8.668  11.131  15.245 -0.1010  0.0712 -0.0800
11300W        W29504  11.239   5.820  11.844 -0.0687 -0.3108 -0.1276
11301W        W29505   7.066   1.024  12.289 -0.0519  0.0281  0.2595
11302W        W29506   3.102  15.819  12.485 -0.1648 -0.0639 -0.2498
11303W        W29507  13.344  16.943  11.686 -0.1800  0.0251 -0.2224
11304W        W29508  13.659  11.838   1.111  0.0321 -0.0541 -0.0869
11305W        W29509   5.076   5.703   0.317  0.3018  0.0757  0.0192
11306W        W29510  13.771   3.042   2.986 -0.2961 -0.2646  0.3784
11307W        W29511   5.325  11.264  12.740  0.2018  0.1964 -0.1114
11308W        W29512   1.997   6.246   0.520 -0.0639  0.4538 -0.0836
11309W        W29513   4.141   9.735  13.932  0.0193 -0.2328 -0.1631
11310W        W29514   3.296  16.349  14.668  0.0347 -0.1667  0.0175
11311W        W29515  15.677   9.641   3.617 -0.2062 -0.0412 -0.2510
11312W        W29516   9.238   4.878  14.416 -0.0907  0.2055 -0.2676
11313W        W29517   8.355   5.586   3.249 -0.2603 -0.1380  0.1019
11314W        W29518  11.692   4.581  12.812 -0.2236 -0.0925  0.1807
11315W        W29519   1.361   7.640  14.555 -0.2520  0.2126 -0.3892
11316W        W29520  11.642  17.088  15.183  0.0617  0.1000 -0.0347
11317W        W29521  14.062  11.118  12.586  0.1552 -0.2121 -0.0361
11318W        W29522  14.520   5.277   4.065 -0.2247 -0.0118  0.0939
11319W        W29523   7.746   7.884   1.394 -0.0428  0.0761 -0.2158
11320W        W29524   1.877  10.612  12.122 -0.1568 -0.1051  0.0399
11321W        W29525   5.816   8.244   4.479 -0.3414  0.0295  0.0592
11322W        W29526  14.262   6.113   1.372  0.1592  0.0956  0.3231
11323W        W29527  11.200   4.713  12.579 -0.0326 -0.3616 -0.0609
11324W        W29528   6.289   9.432   2.861 -0.1812  0.3985  0.2114
11325W        W29529   4.389  15.728  13.123 -0.0086 -0.0199 -0.3657
11326W        W29530   5.519  10.926   4.037 -0.1034  0.2370  0.1125
11327W        W29531   0.817   8.666  15.645 -0.0983 -0.0822  0.4455
11328W        W29532  17.302  16.023   4.733 -0.4286 -0.0657 -0.3519
11329W        W29533   3.924   0.980  15.399  0.0483 -0.1761  0.0607
11330W        W29534  13.644   5.395  15.000 -0.2385 -0.2282 -0.2741
11331W        W29535  14.736   8.973  15.617 -0.1226 -0.1968 -0.1801
11332W        W29536   2.085   6.558  10.117 -0.1017  0.1149 -0.1705
11333W        W29537  14.820   7.099   2.164  0.1935  0.2278 -0.4189
11334W        W29538   7.249  16.150  11.413  0.0879  0.0932  0.3036
11335W        W29539  16.053   1.644   3.909  0.1005  0.0830  0.0363
11336W        W29540  14.895  12.817  11.875  0.3035  0.1469 -0.1433
11337W        W29541  15.321   9.319  10.139  0.2683  0.0704 -0.1245
11338W        W29542   9.487  13.458  11.294  0.3092  0.0870  0.2830
11339W        W29543   2.754   2.042   3.747 -0.3433 -0.0960  0.1412
11340W        W29544   0.714   1.514   1.842 -0.2294  0.0268 -0.0613
11341W        W29545   9.366   2.511  11.040  0.0097  0.0705 -0.2943
11342W        W29546  11.210  10.642  12.550 -0.1600 -0.3237  0.0092
11343W        W29547  11.839   0.641  13.722  0.2262 -0.2267 -0.0309
11344W        W29548   1.200   2.889   4.036  0.3473 -0.1100 -0.3382
11345W        W29549   8.949   3.354  14.244 -0.0329  0.0506 -0.1567
11346W        W29550   1.774  15.261  13.727  0.2218  0.1677  0.1082
11347W        W29551  15.808  10.698   2.463 -0.1894 -0.0236 -0.1265
11348W        W29552  17.899   6.549  12.975 -0.3324  0.0958  0.1054
11349W        W29553  13.229  12.559   1.695  0.0137  0.2998 -0.0109
11350W        W29554  12.848  11.948   0.244 -0.0837  0.0664 -0.1573
11351W        W29555   7.458   9.944  13.511  0.3069 -0.1397  0.0579
11352W        W29556   7.324  17.179   0.648  0.0048 -0.0474  0.4597
11353W        W29557   7.545   2.820   2.781  0.0288  0.0614 -0.1292
11354W        W29558   6.154  14.091  11.215  0.1165 -0.0242  0.0576
11355W        W29559   7.941   4.150  12.391  0.3150 -0.1829  0.4795
11356W        W29560   2.450  17.970   1.185  0.0572  0.2802  0.0044
11357W        W29561  17.141   9.424   0.291  0.0282  0.0373  0.1504
11358W        W29562  15.601  17.002  15.420 -0.3005  0.2061 -0.2255
11359W        W29563  16.449  11.322  14.888 -0.1710 -0.0753 -0.1199
11360W        W29564   8.374  13.511   2.205 -0.0550  0.2948 -0.4434
11361W        W29565  10.328   6.974  12.030 -0.0886 -0.1200  0.1075
11362W        W29566   4.257   0.225  13.451  0.2653  0.3125  0.2822
11363W        W29567   8.201   9.593   4.451 -0.2288 -0.2316  0.0938
11364W        W29568  16.728   7.902  14.899 -0.0382 -0.1130 -0.0515
11365W        W29569  15.221   3.226  12.248 -0.2169  0.1043 -0.2368
11366W        W29570   3.236  12.225   1.089  0.4361  0.1710  0.0172
11367W        W29571   5.312   0.529   2.491 -0.3662 -0.0144 -0.0127
11368W        W29572  11.118   7.029  15.440 -0.2394  0.1011 -0.2540
11369W        W29573   1.718  17.507  13.877  0.0327 -0.1993 -0.1177
11370W        W29574   4.869   2.166  11.198  0.0701  0.2310 -0.0408
11371W        W29575  16.249   0.151   1.784 -0.0951 -0.0589  0.1720
11372W        W29576  14.219   4.677  13.101 -0.0455 -0.3671  0.2044
11373W        W29577   9.061   5.801  11.086  0.3276 -0.1023 -0.0965
11374W        W29578  10.773   5.181  14.706  0.0481 -0.0544  0.0145
11375W        W29579  12.103   1.102   2.329  0.1645 -0.0445 -0.0169
11376W        W29580   1.046   6.286  15.391 -0.0008 -0.0107 -0.0984
11377W        W29581  15.663   5.296  12.272  0.1056 -0.1678  0.3770
11378W        W29582   8.992  15.399  11.595 -0.1760 -0.2625  0.1645
11379W        W29583  10.054  11.248   2.849  0.0494 -0.3263 -0.0655
11380W        W29584   8.775  17.003  14.324  0.0834  0.0712 -0.0243
11381W        W29585   0.319   6.331  14.754 -0.2852  0.0527 -0.3729
11382W        W29586  15.946   4.399  12.371  0.3349  0.0915 -0.2722
11383W        W29587   3.180   3.366  13.681 -0.2817  0.3579  0.0717
11384W        W29588   8.453   8.459   4.937 -0.0004  0.0723  0.0885
11385W        W29589   6.231   0.530  14.650  0.0335 -0.2252 -0.0346
11386W        W29590   9.207  15.704   0.861 -0.0411 -0.1857 -0.3164
11387W        W29591   2.597   2.430   3.124  0.0957 -0.3423 -0.3167
11388W        W29592   5.335   7.766   2.094  0.1807 -0.1461  0.0704
11389W        W29593   2.431  11.922  15.691  0.0182  0.0871  0.1194
11390W        W29594   1.437   6.789  13.263  0.1435 -0.1964 -0.0771
11391W        W29595   1.839   4.356   4.927  0.3767  0.3022 -0.1181
11392W        W29596   1.201   0.166   1.410 -0.0215  0.1751  0.0906
11393W        W29597  13.585  18.201   0.176  0.0407 -0.1564  0.0859
11394W        W29598   6.871  14.261  13.289 -0.3430  0.0367  0.1056
11395W        W29599  13.664  10.369   4.260  0.0764  0.4468 -0.0253
11396W        W29600  12.069  17.403  11.571 -0.3251 -0.3782  0.0570
11397W        W29601  13.988  16.503   4.694  0.1153 -0.0042 -0.3204
11398W        W29602   9.243   8.824   1.387  0.2319  0.2035  0.1599
11399W        W29603  12.380   6.465  14.652  0.0017 -0.0958 -0.1473
11400W        W29604   3.972   7.230   1.168  0.3896 -0.0420 -0.2231
11401W        W29605   8.559   5.181   0.310 -0.3590  0.0693  0.2752
11402W        W29606  18.331  13.728  14.882  0.1129  0.1449  0.3135
11403W        W29607   7.386  14.778   3.660 -0.0914  0.0591  0.1215
11404W        W29608   5.934  15.872  14.412 -0.0601  0.4233 -0.1469
11405W        W29609   3.753   3.052   0.716  0.1717  0.0747  0.2233
11406W        W29610   2.831  10.873  14.307  0.2132 -0.0679  0.3444
11407W        W29611  13.587   6.566   2.722  0.2826 -0.2966  0.1510
11408W        W29612  11.851   3.598   2.875 -0.1351 -0.1571  0.0513
11409W        W29613  14.024  14.504  10.845  0.3793  0.0958 -0.2049
11410W        W29614  13.868   4.967  12.951 -0.0687 -0.1240 -0.0410
11411W        W29615   6.358  17.395  13.794  0.1609 -0.0424 -0.2885
11412W        W29616  17.624   9.867   3.066 -0.1695 -0.2272  0.3077
11413W        W29617  14.012   1.248  14.588 -0.2772  0.1083  0.3391
11414W        W29618   0.009   1.802   2.868 -0.1397 -0.0921  0.1560
11415W        W29619  12.199   8.888   2.874  0.1945 -0.0888  0.2600
11416W        W29620  11.708  17.606   2.651  0.4268 -0.1540  0.3737
11417W        W29621   5.676  17.979  14.640 -0.1658 -0.1487  0.2008
11418W        W29622  10.479   0.277  11.251  0.3232  0.0032 -0.0064
11419W        W29623   7.134   0.939   1.486  0.0632 -0.0665 -0.0327
11420W        W29624   9.414   9.577   4.293 -0.0114  0.2356 -0.0506
11421W        W29625  11.320   1.426   1.007 -0.3158  0.1791 -0.0112
11422W        W29626   5.795  17.154  15.257  0.1275  0.2943  0.0279
11423W        W29627   2.659   1.589   5.184  0.1176  0.1143  0.3322
11424W        W29628  16.006   8.892   1.428  0.1022  0.1160 -0.1817
11425W        W29629  15.311  13.832   3.242  0.2097  0.0624  0.2551
11426W        W29630   3.679  15.269  12.696 -0.2635 -0.2730 -0.2083
11427W        W29631   3.206   0.733   3.288  0.0850 -0.4053  0.1129
11428W        W29632  16.698   5.521   4.085 -0.2836 -0.2286  0.0754
11429W        W29633   0.886   6.263  13.956  0.0518 -0.0117 -0.0629
11430W        W29634  10.706   9.633  15.361  0.0190  0.0391  0.0938
11431W        W29635  17.691  10.574   2.578  0.1263 -0.1301 -0.0953
11432W        W29636   9.131   8.297   4.337 -0.0087  0.3112  0.3673
11433W        W29637   9.133   5.130  14.004 -0.1314  0.0519 -0.3452
11434W        W29638   4.342  13.035   1.853  0.1400  0.1349 -0.3648
11435W        W29639   0.197  10.726   3.198 -0.1846  0.1805 -0.1474
11436W        W29640   1.554   7.583   1.668 -0.0803 -0.0996  0.1289
11437W        W29641  10.283  13.010   2.976  0.1231 -0.2525  0.0360
11438W        W29642  17.366  15.298   5.310  0.1518  0.0981  0.1003
11439W        W29643   1.752  11.801   3.840  0.1175  0.0237 -0.0370
11440W        W29644  11.085   8.993  13.929 -0.1249 -0.0676  0.2600
11441W        W29645   9.726   9.976  12.893  0.1198  0.0766 -0.1327
11442W        W29646   8.802   8.409  13.474  0.0027  0.2083  0.1821
11443W        W29647   6.470   4.611  12.860  0.0364 -0.1517 -0.0515
11444W        W29648   9.428   1.875  11.903 -0.0824  0.2165 -0.1723
11445W        W29649  15.649  12.883  12.532 -0.0777  0.0892 -0.0398
11446W        W29650   0.714  15.228  11.696 -0.0202 -0.0058 -0.0087
11447W        W29651   3.544  14.778  12.598 -0.0422 -0.0744 -0.0048
11448W        W29652  18.320   8.501  11.916 -0.1483  0.3648 -0.1821
11449W        W29653  12.588   9.614  15.151 -0.0857  0.0516 -0.0375
11450W        W29654  12.962  15.811   2.921  0.0844 -0.0687  0.0665
11451W        W29655   1.905  18.186  12.360  0.0441 -0.0553  0.2234
11452W        W29656   3.756  13.517   2.876 -0.1537 -0.0003 -0.2182
11453W        W29657  17.345  15.860  12.742  0.0378  0.0749  0.4232
11454W        W29658  16.151   5.206   3.448 -0.0178 -0.1970  0.0436
11455W        W29659  16.241   0.857  11.489  0.0755 -0.1362 -0.0111
11456W        W29660   6.109   3.306   3.407  0.0197 -0.1571 -0.1616
11457W        W29661  16.205  15.625   0.493  0.0706  0.0344  0.0631
11458W        W29662  14.303  14.028   4.333 -0.3558 -0.0799  0.3858
11459W        W29663   2.355  10.982  14.377 -0.2099 -0.0576  0.3140
11460W        W29664  12.435  11.264   3.381 -0.1017 -0.0230 -0.5047
11461W        W29665   0.913  13.896  11.344  0.3855  0.1065  0.0011
11462W        W29666   4.515   8.416  12.918 -0.1596 -0.3301 -0.0547
11463W        W29667   7.973  14.455  13.942 -0.1694 -0.0622 -0.0414
11464W        W29668   7.412   3.388   0.576  0.1249  0.1717  0.2393
11465W        W29669  18.277   5.087  13.052 -0.1688  0.0012 -0.2834
11466W        W29670  15.431  11.709  14.632  0.1254  0.0917  0.0868
11467W        W29671  10.906   8.341   1.097 -0.2079 -0.2401 -0.1263
11468W        W29672  13.916  17.308   0.444  0.0496 -0.0283  0.0396
11469W        W29673   7.449   3.073  15.371 -0.1532  0.0023  0.1265
11470W        W29674   8.298   7.903   1.585 -0.3364 -0.2195  0.0411
11471W        W29675  17.387   3.935   4.287  0.0007 -0.0079  0.0460
11472W        W29676  13.922  10.289   0.938 -0.1864 -0.2314 -0.2002
11473W        W29677  16.843   4.558   1.307  0.0902 -0.1164 -0.0263
11474W        W29678  14.659  17.848  13.154  0.3251 -0.1236 -0.4409
11475W        W29679   4.286   7.346  11.918  0.0894 -0.2610 -0.1791
11476W        W29680   2.107  13.839  11.120  0.1003 -0.1911  0.1209
11477W        W29681   5.917   1.774   3.381  0.2012  0.0296  0.1217
11478W        W29682  10.945   8.937   2.923 -0.2897 -0.2682 -0.3272
11479W        W29683  14.190  11.721  13.054 -0.0214  0.1728  0.0121
11480W        W29684  11.984   0.546   2.400  0.2624 -0.1746  0.1152
11481W        W29685  16.307   6.518  12.668 -0.3366 -0.2260  0.0322
11482W        W29686  18.281   1.814  11.574 -0.0328  0.2011 -0.0298
11483W        W29687   9.636   3.167   4.217 -0.0795 -0.1305  0.0643
11484W        W29688  13.738   9.503   3.594  0.0105  0.1531  0.1281
11485W        W29689   1.413   2.233   4.162  0.2904  0.2173 -0.0534
11486W        W29690   6.939   7.443   5.852  0.1011  0.2202 -0.0905
11487W        W29691   0.084  12.648   3.569  0.3310 -0.4538 -0.3908
11488W        W29692   3.709   9.437   3.213 -0.0690 -0.0896 -0.0318
11489W        W29693  12.942  10.693   1.807 -0.0874 -0.1276  0.0654
11490W        W29694   8.364  13.553  10.428 -0.0061 -0.1521 -0.0431
11491W        W29695   6.121   0.218   0.248 -0.1680 -0.0874 -0.1257
11492W        W29696   1.381  16.327  14.932 -0.3021 -0.0248  0.2415
11493W        W29697  11.120  17.225   4.589 -0.0996 -0.0457 -0.2829
11494W        W29698  16.026   0.378  13.211  0.3047 -0.0484 -0.3227
11495W        W29699   6.409   5.777   4.021 -0.0335  0.1340 -0.1199
11496W        W29700   8.646  11.827   2.605  0.2475  0.1373  0.0173
11497W        W29701  18.232   6.153  13.963  0.0992  0.1688  0.0690
11498W        W29702   6.215   9.066   0.615 -0.2336  0.0446  0.4729
11499W        W29703   2.512  16.348   1.125 -0.0476  0.2224 -0.0211
11500W        W29704  10.093   2.653  11.929  0.0045 -0.3382 -0.3393
11501W        W29705  18.326   0.831  15.709  0.1434  0.1595  0.0438
11502W        W29706   2.507   0.810   0.588  0.2034 -0.0640  0.0189
11503W        W29707   6.413   4.789   4.358 -0.2379  0.1184 -0.0906
11504W        W29708  16.621  15.122   2.291  0.3381 -0.2764  0.0181
11505W        W29709   7.363   0.845   0.099 -0.2127  0.1709 -0.1397
11506W        W29710   6.445  13.510   2.594  0.0715 -0.2552 -0.1906
11507W        W29711   5.443  10.442  14.159 -0.0405  0.2662  0.0797
11508W        W29712   2.240  10.083   3.929  0.1275  0.0610 -0.2917
11509W        W29713  12.527   5.392  11.627  0.1949  0.1107 -0.0162
11510W        W29714  16.550   3.385   1.766 -0.0448 -0.2678  0.1114
11511W        W29715   8.087   0.792   4.312 -0.0591  0.1350  0.0998
11512W        W29716   3.205  17.752  11.091  0.0577 -0.2020  0.2510
11513W        W29717   0.573  15.866  15.642  0.2733 -0.1123 -0.1144
11514W        W29718  10.803  16.175  12.949  0.0556  0.2558  0.1088
11515W        W29719   7.202  12.314   0.485 -0.0814 -0.0455  0.1119
11516W        W29720   6.199  18.330   3.717  0.1217  0.1395 -0.0283
11517W        W29721  14.945   4.128  12.700  0.2212  0.3609  0.1872
11518W        W29722   0.953   8.526  13.510 -0.1000 -0.3079 -0.1619
11519W        W29723  16.341  15.986   0.112 -0.2712 -0.1783 -0.0649
11520W        W29724  11.056  10.933   3.819  0.0721 -0.0332  0.1440
11521W        W29725  10.622   3.987  11.072  0.1127  0.1523  0.0295
11522W        W29726   0.360   0.970  15.410  0.2146 -0.0612  0.3418
11523W        W29727   9.178  12.677   4.142  0.1061  0.1395 -0.0429
11524W        W29728  10.854   4.029   3.069 -0.0293 -0.1041 -0.2227
11525W        W29729   2.324   8.326   4.898  0.1003 -0.3402 -0.0541
11526W        W29730   4.987  14.421   3.493 -0.0503 -0.0251 -0.0555
11527W        W29731   2.514  16.764  13.831  0.2181 -0.0019 -0.1019
11528W        W29732   9.582  15.690  15.686 -0.0630  0.0881 -0.2054
11529W        W29733  12.983   6.908   4.082  0.0190 -0.2093  0.0386
11530W        W29734  11.971   0.904  12.441  0.1500  0.0266 -0.1369
11531W        W29735   7.748   9.679   0.319 -0.3975  0.1727 -0.4936
11532W        W29736   5.592   7.288  13.679 -0.2118  0.1092  0.1892
11533W        W29737   0.897   4.810  13.087 -0.1878  0.1541  0.0229
11534W        W29738   4.954   6.154   5.463 -0.0831 -0.1038  0.0113
11535W        W29739   9.593   9.800   0.767 -0.0762  0.1608 -0.1691
11536W        W29740  13.835   2.055   0.620  0.0212 -0.0301 -0.1039
11537W        W29741   4.372   0.522   0.538 -0.0325  0.2951 -0.0928
11538W        W29742  12.233  13.282   2.863 -0.2788  0.0819  0.0076
11539W        W29743   5.081   2.144   4.378  0.2392 -0.2238  0.0579
11540W        W29744   0.780   5.210   2.570  0.5342  0.0327  0.0233
11541W        W29745   7.583  14.580  12.151 -0.0729 -0.0292  0.1207
11542W        W29746   8.898  12.318  12.805 -0.0070 -0.1634 -0.1014
11543W        W29747  13.718   6.758  13.593 -0.0769  0.0553 -0.0261
11544W        W29748  11.271   5.617   0.120 -0.0601  0.0323  0.2930
11545W        W29749  17.003  10.142  12.717 -0.4136  0.1217  0.0004
11546W        W29750  10.986  16.002  15.072  0.4533  0.0750  0.0510
11547W        W29751   3.080  14.823  14.352  0.0836 -0.1421 -0.2232
11548W        W29752   8.901   0.174   0.870  0.2587  0.2603  0.0326
11549W        W29753   8.434   8.040  13.374  0.0132 -0.0198  0.4376
11550W        W29754  14.031  11.040   0.122  0.3030  0.2005  0.1660
11551W        W29755  12.396  15.723  10.186  0.1651 -0.0425 -0.0309
11552W        W29756   5.809  10.491   0.193 -0.0091 -0.0595 -0.2492
11553W        W29757   1.356   6.402  12.915  0.1365 -0.1126 -0.0569
11554W        W29758  13.221  13.323  13.548 -0.0784  0.2665  0.1636
11555W        W29759   6.641  12.807   1.180  0.1921  0.0032  0.1022
11556W        W29760   6.899  10.977  14.776 -0.2925  0.1348 -0.1123
11557W        W29761   3.525   7.653  10.972  0.0601  0.2505 -0.0069
11558W        W29762   9.155  13.722   1.727 -0.0269 -0.1223  0.0549
11559W        W29763  13.561   3.006  12.304 -0.0373 -0.3071 -0.3108
11560W        W29764   0.584   9.182  14.418  0.0587 -0.0389  0.0492
11561W        W29765   7.718  12.598   1.710  0.4018  0.1656  0.1496
11562W        W29766  11.227   8.705  12.924 -0.2572 -0.1770 -0.2812
11563W        W29767  16.525   9.531  14.336 -0.0867 -0.2926 -0.1431
11564W        W29768   2.364   6.785   1.996  0.0846  0.0930 -0.0531
11565W        W29769  10.031   4.767   0.856  0.0237 -0.2741  0.0550
11566W        W29770   7.486  15.261   3.914 -0.2136  0.2893 -0.1139
11567W        W29771   6.115   4.454   0.771 -0.3444 -0.0397  0.2042
11568W        W29772   5.980   1.511   1.930 -0.1465  0.1037 -0.0088
11569W        W29773   9.008   2.876   3.751  0.0747 -0.1319 -0.2506
11570W        W29774  14.968   6.783   0.744 -0.2557  0.1245  0.0126
11571W        W29775   3.173  14.336  12.481 -0.0433 -0.1960  0.0110
11572W        W29776   7.707   5.058   0.554  0.0883 -0.0323  0.2295
11573W        W29777   4.021  16.842  12.008 -0.1646 -0.4395 -0.0169
11574W        W29778   5.758  10.643  11.912 -0.1559 -0.0577 -0.0252
11575W        W29779   6.599  17.705  12.617 -0.3808 -0.0231 -0.0586
11576W        W29780  15.497   1.009   3.094 -0.1016 -0.0609 -0.2220
11577W        W29781   6.566   1.315  13.044  0.0746  0.4498  0.0068
11578W        W29782   8.168   1.571   1.092 -0.2282 -0.0877  0.0154
11579W        W29783   4.517   5.195   4.734 -0.1773 -0.0771 -0.1030
11580W        W29784   1.763  17.127  12.606 -0.1309 -0.1108 -0.1845
11581W        W29785   4.353  11.689   3.342 -0.4378 -0.0562  0.1100
11582W        W29786   5.628   6.503   0.525 -0.0235 -0.4245 -0.2912
11583W        W29787   1.752   8.522  14.212 -0.0789  0.0920 -0.0189
11584W        W29788   4.337   0.941   5.344  0.1343 -0.0762  0.1069
11585W        W29789  11.543   9.850   3.561  0.2153  0.0369  0.2302
11586W        W29790   8.785  14.850  13.717 -0.0427 -0.1759 -0.0146
11587W        W29791  13.825   2.723  11.019  0.0746  0.0809 -0.0092
11588W        W29792  10.523   4.999  15.588 -0.0638  0.0159 -0.1766
11589W        W29793  12.346   8.364   0.290  0.0474  0.1097 -0.3531
11590W        W29794   5.797  13.815  15.061  0.1196 -0.2427  0.2004
11591W        W29795   4.555   0.253  15.171 -0.0066  0.0315 -0.0885
11592W        W29796  13.942  17.943   1.906 -0.2392 -0.0812  0.0102
11593W        W29797   8.330  11.118   0.377  0.2319 -0.1634  0.1523
11594W        W29798   7.865   2.919   4.790  0.2643 -0.1772 -0.1218
11595W        W29799  18.029   1.874  11.140 -0.1075 -0.1941  0.0464
11596W        W29800  16.101  14.131   1.546 -0.0174 -0.1215  0.1015
11597W        W29801  16.882  16.666  13.209 -0.3086  0.0604  0.3018
11598W        W29802   1.837  14.534   0.449  0.0526  0.3564  0.0370
11599W        W29803   5.914  13.185   4.487  0.1016 -0.0708  0.0782
11600W        W29804  10.908   0.274   1.942  0.0539 -0.2197  0.1311
11601W        W29805  12.135  14.880   3.366 -0.1279 -0.0148 -0.0798
11602W        W29806  14.890  12.864  14.981 -0.1460  0.0854 -0.1248
11603W        W29807  10.988  17.092  14.202 -0.1342 -0.1352  0.1748
11604W        W29808  11.120  10.992  12.943 -0.0609 -0.1503 -0.3213
11605W        W29809  18.043   7.094   3.528  0.3279  0.0482  0.1279
11606W        W29810   9.659   0.881   0.194  0.1783  0.0211  0.0496
11607W        W29811  11.571   3.891   1.976  0.0360 -0.0423  0.1459
11608W        W29812  14.157   4.977   3.249  0.1723 -0.0420 -0.2586
11609W        W29813   8.842  15.661   0.287  0.3438  0.0712  0.1888
11610W        W29814  13.970   3.109   3.793  0.1417 -0.1548 -0.1730
11611W        W29815  11.828  12.032   4.203  0.0718  0.2406  0.0043
11612W        W29816   6.737   8.115   3.897  0.0510  0.0201 -0.1024
11613W        W29817  13.934  10.436   5.885 -0.0879 -0.0628 -0.0123
11614W        W29818   6.829   6.862  13.885 -0.2093 -0.0745 -0.2209
11615W        W29819   7.932   2.385  13.213  0.0613  0.3141 -0.0844
11616W        W29820  12.313   6.835   2.393 -0.1027 -0.0934 -0.0850
11617W        W29821  13.712   5.902  14.839 -0.0322 -0.1957 -0.2172
11618W        W29822   9.552   5.943  14.942  0.1629 -0.1609 -0.1254
11619W        W29823   2.487   0.277   0.504  0.2193  0.0529 -0.3830
11620W        W29824   0.619   5.792  14.060  0.1219 -0.0712  0.0999
11621W        W29825  10.107   4.198   2.577  0.3634  0.0551 -0.0209
11622W        W29826  13.554  14.729  14.898  0.3429 -0.1132 -0.0071
11623W        W29827   9.617   0.784  12.825 -0.0019  0.1599 -0.5700
11624W        W29828   4.310   4.396   1.547  0.0311 -0.0124  0.0794
11625W        W29829   6.133   7.464   5.691 -0.3010 -0.2763  0.0639
11626W        W29830   8.830   6.027   1.508  0.1695 -0.1090 -0.1286
11627W        W29831   3.687   0.347   3.823 -0.1197 -0.1263 -0.1104
11628W        W29832   3.199   8.314  13.717  0.0696 -0.0838  0.2027
11629W        W29833  15.382  12.940  11.794  0.0858  0.2091  0.2263
11630W        W29834   9.863   3.620  14.919  0.0781 -0.0577  0.1518
11631W        W29835  17.418   5.847   5.993 -0.0692  0.2369  0.0871
11632W        W29836  12.545   1.176  10.842 -0.1135 -0.2300  0.2989
11633W        W29837   6.103  16.625  11.279 -0.0678  0.2137 -0.0246
11634W        W29838   1.147  15.953   1.904 -0.1541  0.5107  0.3055
11635W        W29839  13.754  15.149   4.440 -0.2430 -0.1525 -0.1649
11636W        W29840   9.762   0.969  11.977  0.2325 -0.0827 -0.2327
11637W        W29841  10.062   3.081   0.398 -0.2104  0.1843 -0.0755
11638W        W29842   8.642   3.395  11.075  0.0115  0.2761  0.0198
11639W        W29843   7.638   3.896   1.319 -0.0099  0.1589  0.0472
11640W        W29844   7.348  16.788  12.498  0.2454 -0.0314  0.1797
11641W        W29845   6.329  16.982  10.936  0.0754  0.2450 -0.1450
11642W        W29846   5.198   2.792   2.881  0.1700 -0.1399  0.0148
11643W        W29847   2.781   2.746   2.773  0.0273  0.1930 -0.2086
11644W        W29848   3.774  11.854   1.169 -0.2331 -0.3127 -0.0229
11645W        W29849   8.714  10.786   0.196 -0.1798  0.0147 -0.1133
11646W        W29850   4.194  11.954   1.395 -0.2907  0.2309  0.0295
11647W        W29851   3.025  16.256  11.341  0.0378 -0.1370  0.0014
11648W        W29852   3.738  16.458  12.823  0.1105  0.1046  0.0295
11649W        W29853   3.786   1.148  11.006 -0.0629  0.0480  0.2982
11650W        W29854   5.119   6.621  13.160 -0.1225 -0.0885 -0.0805
11651W        W29855  17.322   3.590   1.976 -0.0206 -0.2416  0.0206
11652W        W29856   7.349   8.562  13.992 -0.3431  0.0018  0.0124
11653W        W29857   2.019   7.718   1.915 -0.1477  0.2970  0.1466
11654W        W29858   6.201  12.616  13.624  0.2345 -0.1181  0.0484
11655W        W29859   7.119   6.366  12.131  0.2774 -0.1408 -0.1921
11656W        W29860  10.644  10.261   4.171 -0.2155 -0.0176 -0.3333
11657W        W29861   3.596   7.647   0.539  0.0712  0.1480  0.0742
11658W        W29862   4.877   7.735  14.571  0.0558 -0.0612  0.0592
11659W        W29863   9.113   0.063  13.278 -0.1482 -0.1216  0.0774
11660W        W29864   6.488   5.318   3.711  0.1173  0.1174 -0.3550
11661W        W29865  16.095  12.473  11.237 -0.0804 -0.2237  0.1212
11662W        W29866   7.568  15.224   2.481 -0.1006 -0.1999 -0.4727
11663W        W29867  11.440   4.267  14.103  0.1505 -0.2068  0.0550
11664W        W29868  13.529  17.497   3.094 -0.0494  0.0557  0.0709
11665W        W29869   6.403   4.538   1.218  0.0126 -0.2565  0.0246
11666W        W29870  11.128  13.052   2.284 -0.0662 -0.1685 -0.0030
11667W        W29871   4.751  11.251   0.081 -0.1343  0.3844  0.3278
11668W        W29872  15.602  14.387  13.281 -0.1005 -0.2628 -0.0488
11669W        W29873  15.123   9.743   2.765  0.1508  0.1451 -0.0014
11670W        W29874  16.196   1.935  12.194  0.0087  0.0961 -0.2209
11671W        W29875  11.459   3.014  15.099 -0.2014  0.2100 -0.0069
11672W        W29876  16.479   2.207   2.665  0.0839  0.1738 -0.1011
11673W        W29877   0.615  11.701  13.990  0.1828  0.1048 -0.1708
11674W        W29878   3.350  12.965   0.247 -0.1024  0.1279  0.2223
11675W        W29879  18.010   0.581  11.943 -0.0508  0.3356 -0.0636
11676W        W29880  14.970   7.521   3.660  0.0426 -0.1612  0.0355
11677W        W29881  10.406  15.462   1.172  0.2304 -0.2233  0.1146
11678W        W29882  18.064   1.791  15.618  0.1643 -0.0790 -0.1170
11679W        W29883   6.678  12.044   0.787  0.1266  0.1614  0.2702
11680W        W29884   3.954  14.791  11.807 -0.0832 -0.0448  0.0078
11681W        W29885  16.644   8.425   3.661  0.3404  0.0802 -0.1610
11682W        W29886  15.363  13.618  10.251  0.1352 -0.1351  0.0662
11683W        W29887   1.195  12.280   3.334  0.0154 -0.1377 -0.4658
11684W        W29888  13.289  10.856   4.227  0.1477  0.2117 -0.1634
11685W        W29889   5.750   8.794   3.875 -0.2696  0.0631 -0.2163
11686W        W29890  16.022   7.060  12.007 -0.2142 -0.2921 -0.2542
11687W        W29891  14.788   4.857  12.370 -0.3112  0.3226 -0.0962
11688W        W29892   5.789   5.189  10.792 -0.2675  0.0955 -0.1419
11689W        W29893  14.717   6.138   4.841  0.0309  0.1485 -0.1370
11690W        W29894   1.131  14.911   6.123 -0.0821  0.0491  0.3446
11691W        W29895  10.898  16.642  11.180 -0.1317  0.1216  0.2401
11692W        W29896  18.250  14.665   2.117  0.0947 -0.1053  0.1236
11693W        W29897  15.270  10.323  12.190  0.1630  0.1929 -0.0171
11694W        W29898   2.550   4.513  13.663  0.4540  0.2648 -0.0498
11695W        W29899   7.652  18.377   0.995 -0.2349  0.0514  0.2811
11696W        W29900  14.425   9.256   1.658 -0.3630 -0.0007  0.1044
11697W        W29901   4.702   3.906  14.279 -0.0414  0.0565 -0.1306
11698W        W29902  15.329   4.975  12.628  0.1502 -0.1242 -0.0335
11699W        W29903  15.526  12.081  13.672  0.2574  0.2663 -0.3090
11700W        W29904   6.558   8.308   4.408  0.0020 -0.3177 -0.1177
11701W        W29905  15.368   0.339  13.125 -0.2219  0.1240  0.0331
11702W        W29906  13.899  13.144   1.934  0.0953  0.0603 -0.1479
11703W        W29907   8.779   4.919   3.660 -0.0416 -0.1938 -0.1686
11704W        W29908   2.282   4.785  11.258 -0.3033  0.3254 -0.2996
11705W        W29909   9.243  13.854  15.253 -0.1806  0.1710 -0.1651
11706W        W29910   2.097  13.087  14.205  0.3467  0.0659 -0.1269
11707W        W29911   5.507  13.812  12.846 -0.2909 -0.0085 -0.0254
11708W        W29912   8.327  16.910  15.343  0.1594  0.2854  0.1325
11709W        W29913   5.528   6.987  10.800 -0.1394  0.1706  0.1252
11710W        W29914   5.361  13.172  11.172  0.0393 -0.0091  0.3656
11711W        W29915   3.754   7.821   3.723  0.3737  0.0629  0.2019
11712W        W29916   9.047  13.891  15.713  0.1834 -0.1929 -0.0477
11713W        W29917   5.273  14.791   9.658 -0.1025  0.0205  0.0368
11714W        W29918  14.547  13.605   3.282 -0.1661 -0.0514  0.0962
11715W        W29919  17.200   5.929  12.818  0.2015  0.1149  0.0646
11716W        W29920   3.919   1.550  15.450 -0.0348 -0.0497 -0.3357
11717W        W29921   2.850  17.627  14.019 -0.1610  0.1432 -0.0857
11718W        W29922  10.778   9.361   3.746 -0.2294 -0.2485 -0.0250
11719W        W29923  16.178  17.746   0.645  0.1893 -0.4169  0.0307
11720W        W29924  16.170  11.075   0.438 -0.0066 -0.2707  0.2498
11721W        W29925   5.911   1.199   2.419 -0.1900 -0.3079 -0.4034
11722W        W29926   7.696  15.251  11.567  0.2056  0.0609  0.0879
11723W        W29927   6.125   1.200  11.355  0.4214 -0.0409  0.1601
11724W        W29928  11.769   4.615  13.864  0.1577 -0.1538  0.1078
11725W        W29929  10.612   2.155  13.392 -0.0142  0.0394  0.2705
11726W        W29930   6.601  13.975   3.520 -0.3528  0.1932  0.0382
11727W        W29931  16.434  14.423  13.850  0.0061  0.2247 -0.0778
11728W        W29932  17.052  18.203   1.795  0.0957  0.0251  0.0752
11729W        W29933   2.224  13.774  12.091 -0.1982 -0.1296  0.1442
11730W        W29934   9.455   6.299  12.642  0.1630 -0.3638 -0.0536
11731W        W29935  10.013   3.036  12.312 -0.1184 -0.1393 -0.1944
11732W        W29936   9.895  14.044  14.304 -0.0726  0.2118 -0.1708
11733W        W29937   3.065  17.352   1.396  0.1390  0.0529  0.2954
11734W        W29938   7.423   9.696  13.079 -0.0189  0.0597  0.1406
11735W        W29939   8.660   6.373  14.679  0.0628 -0.2679 -0.1791
11736W        W29940  12.735   1.213   1.541 -0.1031  0.0887 -0.0241
11737W        W29941  14.621  16.484  11.449 -0.1387 -0.0219  0.2251
11738W        W29942   6.686   4.714   0.183  0.2065 -0.1147 -0.0177
11739W        W29943   9.967  16.101  15.038 -0.1554 -0.2851 -0.0579
11740W        W29944  12.879  15.721  14.675 -0.0807  0.1082 -0.1217
11741W        W29945  13.738   0.062   1.803 -0.0147  0.0864 -0.1507
11742W        W29946   6.266   7.784  14.021  0.0511  0.1034 -0.0255
11743W        W29947  13.614   2.605   2.692  0.5027 -0.2552  0.1119
11744W        W29948   4.991   0.743  13.518 -0.2178 -0.2307 -0.0106
11745W        W29949   7.353   5.582   3.562 -0.0346  0.0185  0.1083
11746W        W29950  11.914  17.913   3.626  0.0562  0.3150 -0.2812
11747W        W29951  17.420   4.553   3.426 -0.0781 -0.3223  0.0333
11748W        W29952  16.759   1.825   0.203 -0.1150  0.0671 -0.0057
11749W        W29953   1.995  11.859   1.449  0.0192 -0.1677  0.0281
11750W        W29954   7.490   4.728  13.856 -0.2480  0.1032  0.1527
11751W        W29955  13.887  17.835  12.371 -0.0549 -0.1311  0.0840
11752W        W29956  13.654   6.274  13.614  0.2778  0.1618 -0.0147
11753W        W29957   7.486   1.330  10.925  0.2683  0.2380  0.0522
11754W        W29958   0.523  15.751  13.861 -0.0725  0.0034  0.1390
11755W        W29959   9.446   5.053   4.311 -0.4173  0.0697 -0.2130
11756W        W29960  14.664  17.323   2.669  0.0025 -0.0584  0.0255
11757W        W29961  17.843  17.559   2.392  0.0856  0.2342 -0.2955
11758W        W29962   9.688   5.039  15.321 -0.1647  0.0567 -0.0903
11759W        W29963  17.429  12.102  15.421 -0.0473  0.0776 -0.2566
11760W        W29964  12.866   3.273  11.527 -0.2827  0.1540 -0.0889
11761W        W29965   4.940  10.178   2.995  0.0924 -0.0488 -0.0917
11762W        W29966  11.287  15.107   0.148 -0.1158 -0.2073  0.2375
11763W        W29967   1.815  13.845   4.841 -0.2063  0.1391  0.0743
11764W        W29968   3.224   8.920  11.457  0.0674  0.2382  0.2045
11765W        W29969   7.947  14.524   2.758 -0.2888  0.3091  0.0870
11766W        W29970   1.578   7.975   0.596 -0.0703 -0.1676  0.1656
11767W        W29971  15.942  13.269  15.518 -0.0688  0.1698  0.3129
11768W        W29972   7.047   6.914  11.367 -0.0168  0.0360 -0.0749
11769W        W29973  11.371   8.621   3.079  0.2105  0.1348 -0.1044
11770W        W29974  17.888   6.755   1.428 -0.0656  0.2424  0.0746
11771W        W29975  16.818  17.419   1.458  0.0636  0.0491  0.3555
11772W        W29976  14.911   8.759   3.300  0.3809  0.0082 -0.0207
11773W        W29977   2.252  17.539   3.876  0.0248 -0.2149 -0.1925
11774W        W29978  15.219  11.127  14.756  0.1597 -0.1244 -0.1048
11775W        W29979  11.947  18.352  11.481 -0.0264  0.0645  0.3970
11776W        W29980   9.280   6.397  15.316  0.0095 -0.1064 -0.1313
11777W        W29981  14.317   1.449  13.893  0.1172  0.1599  0.1810
11778W        W29982  11.000  13.756  15.311  0.2294 -0.3231  0.3092
11779W        W29983   1.805  12.887  13.384 -0.1386  0.1229 -0.1095
11780W        W29984   0.900  11.265  13.832 -0.0344  0.0953 -0.2925
11781W        W29985   3.712   6.737  13.765 -0.2824  0.1500  0.1200
11782W        W29986   6.945   9.539  15.010 -0.2495  0.2321 -0.1962
11783W        W29987   5.950  13.814  13.250  0.2895  0.0075 -0.0460
11784W        W29988  16.697   9.180   0.385 -0.0377 -0.1278 -0.1003
11785W        W29989  13.468  12.317   4.819 -0.1087 -0.1932 -0.0887
11786W        W29990   4.742  10.311  15.433 -0.2001 -0.1946 -0.0838
11787W        W29991   1.473  14.749  12.221 -0.1247 -0.1250  0.2243
11788W        W29992   4.614   8.902  12.454  0.0235 -0.3827 -0.1888
11789W        W29993  11.213   9.746   1.019 -0.2865  0.1615 -0.0168
11790W        W29994  11.233   4.110   2.303  0.0360 -0.0031  0.2393
11791W        W29995  16.204  11.173  13.416  0.0607  0.3921  0.0564
11792W        W29996   0.121  10.345   1.122  0.2336 -0.0224  0.0006
11793W        W29997   8.318   4.069   3.260 -0.1985 -0.2264  0.0949
11794W        W29998  12.505   7.139  12.562 -0.1420  0.1258 -0.1582
11795W        W29999   8.346  14.566  11.705 -0.1553 -0.1589 -0.4007
11796W        W30000  17.989  14.121  14.688 -0.0903 -0.1601 -0.0052
11797W        W30001  14.105   3.558  15.190 -0.0499  0.1419  0.1602
11798W        W30002  16.520  11.645   0.905  0.0643 -0.0514 -0.2147
11799W        W30003  10.080  17.275   3.817  0.2460 -0.0533  0.0942
11800W        W30004   4.559  15.839  12.635 -0.3307  0.1161 -0.0533
11801W        W30005   7.413  15.012   2.037  0.0653  0.0198 -0.0984
11802W        W30006  15.232   0.045  12.529  0.2416  0.0336 -0.1368
11803W        W30007  18.207   3.913  14.492 -0.2894  0.1643 -0.0350
11804W        W30008  10.505   3.069   3.454  0.3394  0.0972 -0.1397
11805W        W30009   0.846  13.675   4.015  0.0833  0.2407  0.3693
11806W        W30010   1.131   4.925  15.013 -0.0962 -0.2752 -0.2140
11807W        W30011   3.714  13.644   1.795 -0.2433 -0.3778  0.0718
11808W        W30012  13.371   7.060   3.696  0.0918 -0.0294  0.0901
11809W        W30013   6.788   4.523  11.694 -0.2027  0.0718 -0.0436
11810W        W30014   5.767   7.549  15.701 -0.1520 -0.1330  0.0151
11811W        W30015  15.725   1.665   4.789  0.0158  0.0983 -0.0422
11812W        W30016   5.826  11.868  13.599  0.0888  0.2294  0.2091
11813W        W30017   5.840  12.682  12.855  0.1062 -0.1560 -0.3339
11814W        W30018  13.006  17.975  11.384  0.0287 -0.1567 -0.0822
11815W        W30019   7.218  17.532   4.063  0.2695  0.2668 -0.1862
11816W        W30020   2.941   8.002  11.468 -0.0164  0.0376 -0.1500
11817W        W30021  16.335  16.568  11.861  0.0738 -0.0997  0.4324
11818W        W30022  17.429   8.802   4.275  0.0174 -0.0500 -0.1403
11819W        W30023   9.061  15.438  14.042 -0.1737  0.0538 -0.4248
11820W        W30024   7.627   4.781   4.449 -0.1751  0.2891  0.1029
11821W        W30025   9.512  14.891  14.380  0.0274 -0.1003  0.2420
11822W        W30026   9.668   1.174   2.692 -0.1258  0.2956  0.1688
11823W        W30027   0.205   3.336  12.415  0.0198  0.2111  0.1811
11824W        W30028  15.856  13.658   1.785  0.1350 -0.1021 -0.1484
11825W        W30029   7.449   7.039   2.129 -0.1945  0.1117  0.1700
11826W        W30030   6.532  13.974  12.592 -0.0162 -0.0378  0.1829
11827W        W30031  12.010   2.619  13.770  0.3162 -0.0974 -0.1633
11828W        W30032   6.849  15.770   0.431  0.1389  0.2248  0.2936
11829W        W30033  14.942   1.327   4.441  0.2006 -0.0167 -0.0801
11830W        W30034  18.139   9.044   2.569  0.0028  0.1195  0.0680
11831W        W30035  16.880  13.629  11.422 -0.0450  0.1098  0.0014
11832W        W30036  14.195   3.643  15.705  0.1334  0.5855 -0.2794
11833W        W30037   4.683  11.841   4.372  0.2730 -0.3704 -0.1339
11834W        W30038  10.721  17.686   4.527 -0.3526  0.1605  0.0048
11835W        W30039  12.732  18.175  12.708  0.3234 -0.1551  0.3404
11836W        W30040   7.338  11.733   1.250 -0.0213 -0.2664  0.0203
11837W        W30041  11.639   6.315  15.470  0.0130  0.0279  0.0952
11838W        W30042   6.956  17.088  14.551  0.0492  0.1358  0.1143
11839W        W30043  14.668   1.670  15.167 -0.0240  0.1589  0.0335
11840W        W30044   9.020  11.853   0.368  0.2714 -0.0043  0.2103
11841W        W30045  10.610  17.437   0.022  0.1808  0.0755  0.2929
11842W        W30046   0.417  17.630  12.289 -0.0211 -0.2240 -0.1374
11843W        W30047   7.104   9.137   4.904 -0.2255  0.0273  0.2201
11844W        W30048   8.834   9.013   4.800  0.0880  0.0677 -0.1192
11845W        W30049   4.336   7.205  15.261 -0.0548 -0.3988  0.0658
11846W        W30050   6.162   8.022   2.634  0.0367  0.0515 -0.0702
11847W        W30051   4.630   2.853   2.891 -0.0521  0.0975 -0.1084
11848W        W30052   6.340   4.685   3.041 -0.2737 -0.0547 -0.1906
11849W        W30053   4.288   1.460   0.431  0.2095 -0.3648 -0.4613
11850W        W30054   7.368   3.437  12.417 -0.2034  0.0815 -0.1306
11851W        W30055   1.413   4.485   1.074 -0.1713 -0.0861  0.1197
11852W        W30056   8.325   2.972   4.507  0.1714 -0.1452 -0.0086
11853W        W30057  15.026  15.424   4.268 -0.2157  0.3073  0.0497
11854W        W30058   0.680  18.340  14.739  0.0813 -0.1235  0.2730
11855W        W30059  13.811   6.305  14.544 -0.3820 -0.3235 -0.1354
11856W        W30060   3.010   0.833   5.362  0.0908  0.0339  0.1217
11857W        W30061   8.734   9.784  15.702  0.1417 -0.0225  0.0755
11858W        W30062  10.526   6.052   3.798  0.1394  0.2605 -0.0042
11859W        W30063   2.334   1.548   0.353  0.1047 -0.0016 -0.3109
11860W        W30064  14.824  17.478   2.212  0.0622 -0.1628  0.0372
11861W        W30065  10.913   6.560   3.325  0.0210  0.1895 -0.2555
11862W        W30066  18.108  17.116   1.689  0.1987 -0.1594  0.2280
11863W        W30067   8.667  14.173  14.491 -0.1809 -0.0947 -0.0758
11864W        W30068   3.730   3.984   1.160  0.4723  0.1918 -0.1583
11865W        W30069  14.978   5.313  12.887  0.0101 -0.1239  0.2331
11866W        W30070   7.412   1.234   5.537 -0.3452  0.1227  0.1239
11867W        W30071  13.371   8.792   2.077  0.2052  0.2812 -0.0478
11868W        W30072   2.009  17.374   2.273 -0.0071  0.3601  0.2008
11869W        W30073   7.593   8.759  13.110  0.0608 -0.0897 -0.1730
11870W        W30074  15.240   8.145  13.072 -0.1702  0.1792  0.0691
11871W        W30075  16.322  14.228   3.494  0.0518  0.3027  0.0456
11872W        W30076   8.216  13.209   2.642 -0.2484  0.2624  0.2507
11873W        W30077   6.416  18.366  14.335 -0.0699  0.0650 -0.1076
11874W        W30078   8.207  12.433  14.307 -0.0797  0.0386 -0.0521
11875W        W30079   7.622  14.183   1.425  0.3229 -0.0327 -0.0838
11876W        W30080   6.194   5.851  11.956  0.0699  0.0501  0.2489
11877W        W30081   5.527  12.052   2.603 -0.0494  0.0035  0.1784
11878W        W30082   0.475   2.626  14.522 -0.3591 -0.0830  0.0751
11879W        W30083  10.937   2.133   4.092 -0.1812  0.1168  0.1043
11880W        W30084   0.479   7.248  14.848 -0.2275  0.4330  0.0573
11881W        W30085  17.027  17.074  11.372 -0.0667 -0.0377  0.1299
11882W        W30086   3.287   7.978  13.124 -0.1614  0.1267 -0.2399
11883W        W30087   1.792  13.313  15.102  0.1969 -0.1474  0.0944
11884W        W30088   5.538   1.964   0.438 -0.2323  0.0862 -0.0735
11885W        W30089   0.950  15.567   2.946 -0.3366 -0.1002 -0.0463
11886W        W30090   8.168  14.139  15.008  0.1351  0.1511  0.0269
11887W        W30091   7.418   7.753  11.099  0.0422  0.0411 -0.1131
11888W        W30092   4.749  14.401   4.496  0.3015  0.0283  0.3349
11889W        W30093  14.114  14.462   4.435  0.0565  0.0700  0.0036
11890W        W30094   2.938  12.680  14.161 -0.0014  0.2084 -0.0528
11891W        W30095  11.771   2.747   4.057 -0.0491  0.3261  0.1693
11892W        W30096   3.656   0.030   2.035  0.1172 -0.1719  0.1634
11893W        W30097   1.701   6.671   4.553 -0.0929 -0.3005  0.1365
11894W        W30098  12.879   7.506   3.242  0.1703  0.0707 -0.3747
11895W        W30099  12.641  12.628  12.394 -0.3529  0.2835  0.1803
11896W        W30100   4.955   3.739   5.487 -0.0121 -0.1515  0.3977
11897W        W30101  18.115  16.957  15.322 -0.1931 -0.0732 -0.1683
11898W        W30102  12.897  12.786   5.006 -0.2994  0.0800 -0.2395
11899W        W30103   1.453  12.708  14.433 -0.0072  0.4537 -0.0686
11900W        W30104   3.975  13.289  13.875 -0.0638 -0.0198 -0.2349
11901W        W30105  15.903   6.906   2.013  0.3116  0.2781  0.1748
11902W        W30106  14.608   3.946   1.565 -0.0920  0.0818 -0.1694
11903W        W30107   6.387   6.405  12.210 -0.1335 -0.0557  0.0464
11904W        W30108   4.723   0.810   2.022  0.1539  0.0833  0.1908
11905W        W30109   6.991   2.603  13.696  0.3135 -0.1415  0.1709
11906W        W30110   6.415   4.395  15.529 -0.0534  0.1386 -0.3344
11907W        W30111   7.320   6.230   2.305  0.2140  0.0884 -0.0367
11908W        W30112   8.167   5.401   2.256 -0.0009  0.0076  0.1387
11909W        W30113  12.851  13.440  14.318 -0.1627 -0.1853 -0.0683
11910W        W30114  16.790   6.867   0.769 -0.1075 -0.4481  0.0325
11911W        W30115   6.467   3.006   0.241  0.0080 -0.0127  0.1697
11912W        W30116   1.817   3.664   0.349 -0.1621  0.0796 -0.1376
11913W        W30117  13.412  14.172  11.982 -0.0331  0.0063 -0.0769
11914W        W30118  14.208  14.065  10.703  0.1606  0.2770 -0.2101
11915W        W30119   9.885   5.873  14.069 -0.4402 -0.0265 -0.0217
11916W        W30120   8.159   5.136   3.093  0.1722  0.1023  0.0797
11917W        W30121   0.714   5.611   4.499 -0.2552  0.1085 -0.0726
11918W        W30122   0.443   0.184  10.410  0.0371  0.1235 -0.3654
11919W        W30123   4.348   7.542   1.391 -0.0888  0.3050 -0.2945
11920W        W30124   7.400   7.667  13.751  0.1368 -0.4029 -0.0861
11921W        W30125  13.534  11.520   3.619 -0.1543 -0.4420 -0.1316
11922W        W30126  12.132  12.937   1.902  0.0076 -0.1070 -0.0699
11923W        W30127   5.063   1.624   2.908  0.0922  0.5202 -0.2685
11924W        W30128  17.053  14.445  11.799  0.2455  0.0976  0.0747
11925W        W30129  13.008   8.303  13.990 -0.0546  0.1892 -0.0110
11926W        W30130   7.764  16.343  14.043  0.1038  0.0759 -0.3000
11927W        W30131  17.016  14.311   1.676 -0.2458 -0.1312 -0.0145
11928W        W30132   4.543   9.626   2.322 -0.1441 -0.1392 -0.0731
11929W        W30133   2.086  13.554   0.209  0.0692 -0.1290  0.1346
11930W        W30134   6.430  15.977   2.370 -0.0495 -0.0097 -0.1542
11931W        W30135   6.120   7.188  11.705 -0.0647  0.1420 -0.2444
11932W        W30136  10.704  12.440  15.682  0.1076  0.1184 -0.1414
11933W        W30137  18.089  10.297  12.199 -0.2776  0.0137  0.0790
11934W        W30138  16.076  12.112  13.679 -0.3410  0.1631  0.1626
11935W        W30139   2.005  15.136   3.708  0.0677  0.2481  0.1061
11936W        W30140  13.615  16.494  11.811 -0.3797 -0.0147  0.1162
11937W        W30141   7.926   9.255   0.179  0.0579 -0.0998 -0.1779
11938W        W30142  13.753  10.134   2.608 -0.1635 -0.0253  0.0867
11939W        W30143   6.460   6.191   1.893 -0.0751 -0.0005  0.0813
11940W        W30144  16.514  14.101  13.157  0.2795  0.3901 -0.0389
11941W        W30145  14.106   8.385   2.479  0.0855  0.1561  0.0973
11942W        W30146   3.071  13.642  10.488  0.0363 -0.0531  0.0728
11943W        W30147   0.237  18.163   2.874  0.1133 -0.3465 -0.1952
11944W        W30148   1.137   2.041  11.668 -0.0821 -0.3004 -0.1922
11945W        W30149  17.455  13.787  14.493  0.2970  0.2524 -0.2330
11946W        W30150  15.844  12.103  13.249  0.3530 -0.1150 -0.2218
11947W        W30151   6.573  10.632  11.241  0.3552  0.3788 -0.1119
11948W        W30152   3.794   8.961  10.648  0.1180  0.1017 -0.2877
11949W        W30153   6.307  13.018   4.282 -0.0873 -0.3377 -0.2088
11950W        W30154   1.257   9.505   0.274  0.0700  0.0540  0.1959
11951W        W30155   5.630   9.249   4.518 -0.0613  0.3935 -0.4420
11952W        W30156  18.286  14.337  12.921  0.1124  0.1939 -0.3105
11953W        W30157   2.035   3.286   2.846 -0.0848  0.0129 -0.2320
11954W        W30158   2.901   5.495   0.221  0.0097 -0.0331  0.0863
11955W        W30159   1.697  17.177  14.941 -0.2432 -0.2226 -0.3954
11956W        W30160  15.846  12.509   0.434 -0.3052 -0.1531 -0.0226
11957W        W30161  17.054   0.835   1.915 -0.0881 -0.1523  0.1457
11958W        W30162  12.271  12.799  13.672 -0.0664  0.0318  0.0466
11959W        W30163   3.427   5.470  13.290  0.2202  0.2652 -0.1174
11960W        W30164  12.132   8.333  12.756  0.2050 -0.3530 -0.0529
11961W        W30165   7.155  11.869   0.288 -0.0715  0.1901  0.2125
11962W        W30166   9.057   4.651  13.117 -0.1633 -0.3388 -0.1871
11963W        W30167   9.032   3.479   3.174  0.0879 -0.1630 -0.2275
11964W        W30168  15.385   1.155   1.039  0.0607 -0.0588  0.0793
11965W        W30169   0.680  13.456   1.953  0.1688 -0.0843  0.0699
11966W        W30170   9.460   0.914  12.366  0.4489 -0.1114 -0.1323
11967W        W30171   4.525   2.810   3.382  0.1092 -0.2428 -0.0385
11968W        W30172  15.829  10.421   4.407 -0.2331 -0.0958  0.2826
11969W        W30173   3.753   4.206  12.876 -0.0022  0.0259  0.1756
11970W        W30174  11.364  14.881   3.082 -0.2977 -0.1268  0.1234
11971W        W30175  12.324   0.248   4.588 -0.1152  0.1127  0.0878
11972W        W30176  13.780  11.509  13.397  0.0134  0.1474  0.2098
11973W        W30177  15.360  10.170   4.211 -0.1376 -0.2638 -0.1454
11974W        W30178   0.095  13.641   2.638  0.1772 -0.2183  0.0837
11975W        W30179  10.033   0.391  12.758  0.0305 -0.1109  0.1792
11976W        W30180   2.894  13.063   4.538 -0.0956  0.3039  0.0392
11977W        W30181  17.897  12.209   4.952  0.0273 -0.0774 -0.1555
11978W        W30182  14.189  14.982   3.128  0.2348  0.3718 -0.0710
11979W        W30183  14.322  14.028  11.927 -0.1932  0.1568  0.0696
11980W        W30184   9.253  13.582  14.626  0.0948 -0.0168 -0.0145
11981W        W30185   6.076  11.745  12.054 -0.0818 -0.3237 -0.0173
11982W        W30186   8.396  15.971  11.851 -0.0810 -0.2228  0.2308
11983W        W30187   0.482   7.631  13.920  0.1584 -0.2337  0.1538
11984W        W30188   8.477  13.047   4.362  0.3052  0.3379 -0.0386
11985W        W30189  12.558  12.780  11.929  0.1430  0.0666  0.1034
11986W        W30190  16.581   6.478   4.772 -0.1552 -0.1650 -0.0289
11987W        W30191  18.271  14.152   2.812 -0.1499 -0.1386 -0.1491
11988W        W30192   5.773   4.880  15.157 -0.1481  0.0785  0.2887
11989W        W30193   8.633   8.693   0.851 -0.0742 -0.2799  0.1783
11990W        W30194   3.058  18.297  12.008 -0.1597  0.0377  0.1834
11991W        W30195  16.980   5.293   1.946 -0.0692 -0.2659 -0.1269
11992W        W30196   4.882   8.332  11.625 -0.2220  0.0332  0.0746
11993W        W30197   8.506   5.327   4.591  0.0138 -0.3049  0.1317
11994W        W30198   4.965   2.326  12.876  0.2139 -0.1368  0.1459
11995W        W30199  11.275  14.173  14.473 -0.0616  0.0916 -0.1937
11996W        W30200   6.855  17.840  11.686  0.0703 -0.0798 -0.1061
11997W        W30201   1.154  15.172  15.609  0.0873 -0.2249 -0.2509
11998W        W30202  11.256   0.506  11.773  0.0936 -0.0992  0.0815
11999W        W30203  17.528  10.625  14.639  0.1555 -0.1822  0.3379
12000W        W30204  17.425  16.309   0.096 -0.3726 -0.0462  0.1408
12001W        W30205   7.190  15.360   1.738 -0.1319  0.0365 -0.2675
12002W        W30206   2.735  14.585   1.613 -0.0238  0.3454 -0.0263
12003W        W30207   9.243  16.313   0.042  0.3425  0.0508 -0.0205
12004W        W30208   7.330   6.628   3.772 -0.0433  0.2412  0.3130
12005W        W30209  17.784  12.877   2.932  0.2499  0.3131 -0.2441
12006W        W30210   0.228   8.665  12.831 -0.1864  0.0483 -0.0784
12007W        W30211   8.084  10.375   0.951  0.0201  0.3154  0.2797
12008W        W30212   4.234  17.173   0.369  0.1894  0.0759  0.1948
12009W        W30213   6.685   5.765   3.297 -0.2114 -0.0905 -0.1658
12010W        W30214   5.109  14.950   5.010 -0.0579  0.0510 -0.1248
12011W        W30215   3.098   0.033   4.014 -0.0565 -0.1028 -0.3409
12012W        W30216  12.716  14.432   2.376 -0.1545 -0.6540 -0.0452
12013W        W30217  14.797   9.593  14.880 -0.0808 -0.1609  0.3305
12014W        W30218  11.834  12.407   3.926 -0.2113 -0.1872 -0.1790
12015W        W30219  13.025  13.056  14.033  0.2673  0.0717 -0.0719
12016W        W30220   7.150   6.178   4.639 -0.1928 -0.2746  0.1348
12017W        W30221  15.882  15.359  14.585  0.1689 -0.1684 -0.2190
12018W        W30222   3.045  14.970   2.778  0.2832 -0.1174  0.3581
12019W        W30223   8.968   5.001   1.506  0.2984 -0.1802 -0.0993
12020W        W30224  17.295   0.560  15.266  0.2646 -0.1033  0.1813
12021W        W30225  13.652   0.133  14.644  0.0802  0.0873  0.1924
12022W        W30226  11.010   3.191   2.623 -0.1409  0.2060 -0.0968
12023W        W30227  10.649   9.564  14.201 -0.2702  0.0893 -0.1843
12024W        W30228  16.759   1.492   1.246  0.0008 -0.0025 -0.3383
12025W        W30229   8.075   0.044   1.827  0.1290 -0.4066 -0.3880
12026W        W30230  13.240   1.272   2.345 -0.0350 -0.0163 -0.3703
12027W        W30231   8.232   9.761  12.324  0.0595  0.0277  0.1838
12028W        W30232  17.686   2.502   2.803 -0.0552  0.1381 -0.1357
12029W        W30233  12.611  15.533  10.618  0.1349  0.1305  0.1317
12030W        W30234   8.292   8.992   3.697  0.2036  0.2444 -0.2052
12031W        W30235   2.894   4.171  13.626 -0.0230 -0.1547  0.1113
12032W        W30236  10.676   4.370  13.138 -0.1535 -0.0904  0.0127
12033W        W30237   1.132  12.329  14.282  0.1164  0.0842 -0.1546
12034W        W30238  10.726   8.813  13.389  0.0248  0.2404 -0.0052
12035W        W30239   5.973   5.593   2.233 -0.0626  0.1082  0.0989
12036W        W30240  12.555  17.537  11.341  0.2070 -0.2339 -0.1931
12037W        W30241   9.602  15.373   3.132  0.2031 -0.1688  0.6527
12038W        W30242  11.430  15.312  11.514 -0.1827 -0.0977  0.1332
12039W        W30243   1.160   9.923  15.208 -0.2137 -0.0236  0.3607
12040W        W30244  14.003  17.382  15.664 -0.0132  0.0744  0.0455
12041W        W30245  14.625   5.631   1.485 -0.0502 -0.0360 -0.1428
12042W        W30246   7.222  11.397  12.546  0.0931 -0.1858 -0.1019
12043W        W30247  15.106   9.457   5.731  0.2522 -0.2423  0.0814
12044W        W30248  16.736  16.143  11.851 -0.2040 -0.2398  0.1174
12045W        W30249  15.680  16.793  12.876  0.1233 -0.1804  0.0174
12046W        W30250   5.958  14.957   0.466  0.3617  0.3852 -0.3114
12047W        W30251   0.243   6.702  15.574 -0.2770 -0.1553  0.0794
12048W        W30252   8.656  17.971  12.982 -0.0810 -0.0147  0.4048
12049W        W30253  14.663  11.727   2.244  0.0190 -0.1300  0.2639
12050W        W30254  16.068  15.036   2.966  0.0567  0.0080 -0.1428
12051W        W30255   0.065  12.164   3.556  0.1555  0.3183 -0.1082
12052W        W30256  15.015   7.140   1.680 -0.0161  0.0578 -0.0897
12053W        W30257   6.748   0.519  12.197  0.0111  0.2270 -0.2337
12054W        W30258  10.954  16.454  13.678  0.1140 -0.0025 -0.1305
12055W        W30259  14.299  13.828   0.295 -0.1156  0.2522 -0.0779
12056W        W30260  12.191  14.588  14.499  0.1320 -0.0840  0.2822
12057W        W30261   7.844   2.129   0.436  0.1109 -0.0072  0.1493
12058W        W30262  17.918  16.032   4.302 -0.1173 -0.0480  0.1093
12059W        W30263   4.967   1.316  13.778  0.0319 -0.2288 -0.0144
12060W        W30264  10.715  10.215   1.969 -0.0196  0.1966 -0.4088
12061W        W30265  10.268   9.147   3.507 -0.2753  0.4903  0.1843
12062W        W30266   1.629   8.150  14.659 -0.1433 -0.5235 -0.2207
12063W        W30267  17.744  16.406  15.470  0.0612 -0.1420 -0.0625
12064W        W30268   8.160   4.463   1.847 -0.2426  0.0246  0.0768
12065W        W30269   1.126   0.937   3.616  0.4266 -0.2102 -0.1344
12066W        W30270  13.176  18.341  12.393  0.0639 -0.1480  0.5627
12067W        W30271   6.797   8.965  15.625  0.4432  0.2123 -0.1487
12068W        W30272  14.908   9.370  11.152 -0.1581 -0.2915  0.0190
12069W        W30273  17.587   3.746  12.205  0.1043 -0.0224 -0.2914
12070W        W30274  16.531  14.992   1.805 -0.0543 -0.1343  0.0558
12071W        W30275   7.751   9.870  15.577 -0.0931 -0.0330 -0.1468
12072W        W30276   4.100   3.611   4.379 -0.0708  0.2199 -0.0706
12073W        W30277  13.224  17.237   2.738 -0.3806  0.1576  0.3802
12074W        W30278   8.928   0.078   2.305 -0.0873  0.0466 -0.2114
12075W        W30279  12.823   5.538  14.570  0.2357  0.0422 -0.0528
12076W        W30280  10.466   8.190  15.632  0.2136 -0.2136 -0.0008
12077W        W30281   6.395   8.902  13.124  0.1434  0.2402 -0.1939
12078W        W30282  12.819   1.956   3.311  0.0391  0.1942 -0.1904
12079W        W30283  14.176  15.994   4.400  0.0838 -0.2175 -0.0591
12080W        W30284  17.660   0.751   4.729 -0.1702  0.0380 -0.1179
12081W        W30285  10.900  16.059  12.361  0.2244 -0.0592  0.0776
12082W        W30286   3.857   8.011   2.241 -0.0314  0.1947 -0.1078
12083W        W30287  10.681  17.904   0.860  0.1148 -0.2754 -0.0481
12084W        W30288   4.639   6.622  13.046 -0.0504 -0.1776  0.3100
12085W        W30289   2.440  12.284  12.594  0.0373 -0.0128  0.1836
12086W        W30290  14.580  16.778  14.111 -0.1192 -0.1488  0.4630
12087W        W30291  14.389   4.660  12.047 -0.0439  0.2985  0.0539
12088W        W30292   1.456  10.336  13.611 -0.2277  0.0643  0.0236
12089W        W30293   5.318   7.340  12.929  0.1831  0.1929  0.1300
12090W        W30294   7.847  18.054   0.014 -0.3818  0.0866 -0.1183
12091W        W30295   1.703   6.140   3.765  0.2751  0.0650  0.1575
12092W        W30296   1.550  15.492  12.831  0.0913  0.5111  0.3361
12093W        W30297  11.618   8.889  11.234 -0.3112  0.1632 -0.0571
12094W        W30298  12.930   4.264   2.416 -0.0276  0.0959  0.0158
12095W        W30299   6.290   4.058  12.843  0.2690 -0.2713 -0.3289
12096W        W30300   4.021   4.860  13.662  0.0272  0.0913 -0.0183
12097W        W30301   9.207  11.547   4.538  0.3693 -0.0338  0.2422
12098W        W30302   1.047   3.211  14.492 -0.1056 -0.2933 -0.0838
12099W        W30303  16.420   7.671  11.415  0.4576 -0.2146  0.1226
12100W        W30304   2.678   5.283  15.045 -0.1287  0.2806 -0.1900
12101W        W30305   1.843   6.745   2.756  0.0860  0.1025 -0.4466
12102W        W30306  13.085  10.560   0.112  0.0053 -0.0528  0.0062
12103W        W30307  10.946   6.468   2.335  0.2764 -0.1618  0.2587
12104W        W30308  16.631  17.913  15.411  0.0104  0.0807 -0.1233
12105W        W30309   4.412   2.749   4.497  0.0954  0.2464  0.0624
12106W        W30310   7.801   3.466   1.563 -0.0763  0.2222  0.1176
12107W        W30311   0.804   5.631  11.057  0.2350 -0.1932 -0.3395
12108W        W30312  11.475  11.972   2.482  0.0927 -0.0811 -0.2523
12109W        W30313  17.134  10.297   1.817  0.0882  0.1658 -0.0831
12110W        W30314   3.960  13.996   0.455  0.0443  0.1648  0.0001
12111W        W30315   2.409   4.400  15.010 -0.0523 -0.0570 -0.3241
12112W        W30316   5.105   8.619   1.371  0.0574  0.0421 -0.2773
12113W        W30317   5.198  10.407   1.423 -0.0006 -0.0832 -0.0388
12114W        W30318   7.928   4.581  13.714  0.1339  0.3331 -0.0535
12115W        W30319   4.618  10.971   2.152 -0.0708  0.0671  0.0421
12116W        W30320  13.424   2.885   4.421  0.0723 -0.0644  0.0938
12117W        W30321  15.869   5.629   1.136 -0.0592 -0.0677 -0.2782
12118W        W30322   8.667  15.935   0.727  0.4319  0.2500 -0.0955
12119W        W30323  13.893  11.468   4.820 -0.1421 -0.0831  0.0074
12120W        W30324  10.168  13.604   4.648  0.2452 -0.0552 -0.0080
12121W        W30325   7.367   7.326  12.965  0.0802 -0.0231  0.2894
12122W        W30326   9.904  16.761   3.656  0.1570  0.0791 -0.0718
12123W        W30327  14.167   4.377   0.015  0.0385 -0.0978 -0.2566
12124W        W30328  11.073   2.802   0.161  0.1657  0.2775 -0.3169
12125W        W30329   3.258   0.940  14.114  0.0862  0.3409  0.2021
12126W        W30330   1.056  11.191  11.390  0.3122  0.0318 -0.1246
12127W        W30331  12.481  15.617   3.267 -0.2387 -0.1128 -0.0184
12128W        W30332  11.880   2.100  13.159 -0.1564  0.2142  0.1226
12129W        W30333   7.027  10.128  12.187  0.4613 -0.4997  0.0693
12130W        W30334   8.616   9.124  11.732  0.1835 -0.4210 -0.1135
12131W        W30335   8.381   6.853  14.344 -0.2229 -0.0959  0.1827
12132W        W30336  15.239   9.868   4.613 -0.2058  0.4056 -0.0362
12133W        W30337   5.383   2.100  12.053  0.1858 -0.2044 -0.1353
12134W        W30338   2.077  15.487  11.524  0.0416 -0.1752 -0.1754
12135W        W30339  14.954   6.046  12.054  0.2172 -0.0421  0.2869
12136W        W30340  11.563   4.083   0.941  0.0565  0.0039  0.1856
12137W        W30341   9.163   4.306   0.496  0.0979  0.1411  0.2014
12138W        W30342   5.914  16.152  14.818  0.1597 -0.0883 -0.1133
12139W        W30343  16.320  13.660   1.632  0.2914 -0.2937 -0.0119
12140W        W30344   1.284  16.349  12.886 -0.2560 -0.0401  0.5043
12141W        W30345   2.079   4.203   0.121 -0.0488  0.1745  0.1161
12142W        W30346   4.270  16.432  12.909 -0.2493 -0.1188 -0.2661
12143W        W30347   5.184  11.402  11.657 -0.2278  0.0978  0.0090
12144W        W30348   7.145   2.723   4.388 -0.0353 -0.0833 -0.0685
12145W        W30349  16.454   3.959  14.923  0.0542  0.1588  0.1818
12146W        W30350   9.262   1.120  11.235 -0.0849 -0.0371 -0.0069
12147W        W30351   5.498   7.016   3.919  0.1155  0.0420  0.5012
12148W        W30352   6.040   9.735  13.903 -0.3329  0.1862  0.1126
12149W        W30353   2.976   5.018   1.437  0.4189 -0.1766 -0.0609
12150W        W30354   7.405   8.399   0.501  0.2174 -0.0824 -0.2068
12151W        W30355   3.331  12.923  11.127 -0.2033  0.0577  0.1778
12152W        W30356  10.075   3.465  12.780 -0.2464 -0.0031 -0.1023
12153W        W30357  14.615  14.499   4.328  0.0637  0.0181  0.1200
12154W        W30358  11.621   6.384   1.210  0.1761  0.0605 -0.1818
12155W        W30359  11.504   0.320   3.121  0.1580  0.1471  0.0610
12156W        W30360  12.701   3.243  13.687  0.0702  0.2151 -0.0381
12157W        W30361   3.947   3.792  13.822 -0.0677 -0.1428  0.0491
12158W        W30362  17.184  13.940   0.606  0.0546 -0.0449  0.1482
12159W        W30363   3.407  10.900   1.881  0.0438 -0.1317  0.0306
12160W        W30364  11.289  15.170   2.709  0.0290 -0.1464  0.2412
12161W        W30365  15.104  10.253  11.707  0.2652  0.0006 -0.1299
12162W        W30366   6.972  17.736  12.281  0.2864 -0.0156  0.1006
12163W        W30367   2.631   1.106   4.446  0.3027  0.1163 -0.0735
12164W        W30368   2.216  18.360  12.753 -0.0849  0.2989  0.1587
12165W        W30369   9.732   5.958  11.756  0.2583 -0.0175  0.1456
12166W        W30370  15.779  11.099  15.387  0.4426 -0.0425 -0.1814
12167W        W30371   7.892   6.437  11.725 -0.0011 -0.0381 -0.2044
12168W        W30372  17.497  14.548  11.131  0.3753 -0.0210 -0.0286
12169W        W30373  11.366   0.047  10.270 -0.0440 -0.0385  0.1298
12170W        W30374   8.359   3.902  13.548 -0.1345 -0.0878  0.2983
12171W        W30375   5.230  16.744  11.538 -0.0627  0.1180  0.0063
12172W        W30376  14.827   6.955   2.789  0.1367  0.1791  0.1237
12173W        W30377  17.377   2.041  15.189  0.1925 -0.0436  0.3167
12174W        W30378   3.292  12.199   0.600 -0.1196 -0.0856 -0.0673
12175W        W30379   5.208  16.717   9.927  0.1765 -0.1786  0.1292
12176W        W30380  17.763  13.173  13.091 -0.1906 -0.0984  0.0490
12177W        W30381  12.581   2.234   4.323  0.2569  0.0538  0.1609
12178W        W30382  13.965  15.537  15.328  0.3290 -0.1027  0.0077
12179W        W30383  13.159  17.175   1.386  0.0939  0.3218  0.1511
12180W        W30384  15.324   4.529   3.415 -0.0331  0.3790  0.1876
12181W        W30385   6.605   9.033   1.581  0.1160  0.1822 -0.1499
12182W        W30386  10.275  17.504   3.422  0.0352  0.0929 -0.4357
12183W        W30387  10.854  10.865   2.503 -0.1811  0.1529  0.1801
12184W        W30388  17.252   3.250   2.908  0.2035 -0.2188  0.1746
12185W        W30389  14.557   4.806  11.586  0.1408  0.0388  0.1732
12186W        W30390  16.136  15.768   0.974  0.0441 -0.2275  0.3580
12187W        W30391  17.928  10.167   3.866 -0.0108 -0.3000  0.3814
12188W        W30392  10.005   4.277  11.912 -0.1580  0.0276  0.1431
12189W        W30393  17.341  17.363  15.457  0.0534 -0.1024  0.1243
12190W        W30394   3.479  15.474  11.968  0.2673  0.3171  0.0908
12191W        W30395   2.225  15.320  12.167  0.2319  0.0809  0.3975
12192W        W30396  17.266   6.838   2.353  0.1466 -0.1307 -0.3304
12193W        W30397  10.034  12.754   1.581 -0.0501 -0.0097  0.0023
12194W        W30398  11.406  13.594   2.189  0.0185 -0.1493  0.3044
12195W        W30399   3.307  15.345  12.443  0.0518 -0.2872  0.2234
12196W        W30400  18.304   5.463   2.064 -0.0209 -0.0280  0.2017
12197W        W30401   0.194  12.628  11.926  0.1089 -0.1589  0.1019
12198W        W30402   3.971   2.858   1.666  0.2999  0.0437  0.0092
12199W        W30403   0.549  14.823   0.671 -0.0415 -0.2021  0.1755
12200W        W30404   9.838  15.213   2.574 -0.0150  0.1162 -0.0031
12201W        W30405   2.532  14.239  14.612 -0.2000 -0.0758  0.1896
12202W        W30406   8.152  13.400  11.530 -0.3496  0.0092  0.2701
12203W        W30407   6.285   0.631   2.605  0.0476 -0.0129 -0.0552
12204W        W30408  12.750  14.944   0.418 -0.3211  0.1448  0.1289
12205W        W30409   7.212   3.176   3.001  0.3866  0.1720 -0.2232
12206W        W30410   5.106   9.590   2.255  0.1215 -0.0569 -0.2352
12207W        W30411  12.735   4.765   3.167 -0.1786 -0.3002 -0.2117
12208W        W30412   4.553   4.288  12.775 -0.0303 -0.1081 -0.2453
12209W        W30413  10.469  15.800  13.006  0.0910 -0.0980  0.0198
12210W        W30414   4.482  13.084  11.081 -0.0612 -0.0073  0.3611
12211W        W30415   2.382   4.573  14.544 -0.0279 -0.0963 -0.1600
12212W        W30416   8.237  16.814   4.577  0.0588 -0.3551  0.0556
12213W        W30417  11.129   0.315  14.748 -0.1711 -0.4092 -0.0361
12214W        W30418   2.342   9.077   0.424 -0.0376  0.1406  0.1219
12215W        W30419   9.076   4.641   3.970 -0.0253 -0.4282 -0.0249
12216W        W30420   9.320  14.925   2.949 -0.0760 -0.1988 -0.1688
12217W        W30421  16.509  13.029   4.420  0.1308 -0.2392 -0.0960
12218W        W30422   2.130   9.279   3.743  0.1515 -0.0826 -0.1743
12219W        W30423   8.554  10.972   3.359 -0.0283  0.1189  0.2385
12220W        W30424  18.109   8.336   0.747  0.1428  0.1235  0.2600
12221W        W30425   0.211   0.492   0.229  0.1529 -0.3181 -0.3766
12222W        W30426  16.218  17.398  14.150  0.2473 -0.0689 -0.1710
12223W        W30427  16.592   8.350   1.775  0.1579 -0.0069  0.1999
12224W        W30428  17.683   5.953   0.539 -0.2823 -0.0003 -0.1743
12225W        W30429   4.582   7.760   4.124 -0.1144  0.0498  0.0072
12226W        W30430   3.918  11.577  12.635 -0.2248 -0.1844  0.2210
12227W        W30431  13.072  12.758   3.962 -0.1336  0.0229  0.2004
12228W        W30432   8.745   7.849   1.247 -0.3076  0.1930  0.3654
12229W        W30433  14.167   0.193   2.588  0.1099  0.1727 -0.0253
12230W        W30434   9.688  12.777   0.313 -0.0377  0.0386 -0.2015
12231W        W30435   3.035   4.278   0.815 -0.3191 -0.2204 -0.1213
12232W        W30436   3.814  10.338  14.605 -0.1034  0.2327 -0.0983
12233W        W30437   0.661  14.475  12.531 -0.0540  0.4380  0.1171
12234W        W30438  11.141  16.611   0.173  0.1326  0.2346 -0.1869
12235W        W30439   6.051   8.732   2.311  0.0121 -0.3154  0.2243
12236W        W30440   6.413  14.098  14.574  0.1105  0.3232 -0.3236
12237W        W30441  13.843   7.130   4.787 -0.3560  0.2225 -0.1744
12238W        W30442  14.661  12.835  10.898 -0.1460  0.0604 -0.0614
12239W        W30443   1.674  17.705   2.501 -0.0499  0.1986 -0.3269
12240W        W30444   3.560   8.562   4.968 -0.0401  0.1451 -0.1444
12241W        W30445  15.947   7.250  15.452  0.1351  0.0929 -0.2490
12242W        W30446   7.392   8.105  12.533 -0.0425 -0.2508  0.0675
12243W        W30447  11.399   7.540  10.534 -0.0195 -0.0560 -0.0448
12244W        W30448   9.822  15.127  13.387 -0.3843  0.1407 -0.1183
12245W        W30449   3.937  18.112   4.118 -0.1315  0.1707 -0.0688
12246W        W30450  14.617  12.762   0.782  0.0998 -0.1308 -0.1656
12247W        W30451  16.447   9.967  15.414 -0.1271  0.0446 -0.0873
12248W        W30452   0.524   3.595   1.949 -0.0366 -0.1926  0.1130
12249W        W30453   1.522   6.596   1.487 -0.1452 -0.0268 -0.0244
12250W        W30454  18.097   3.848   3.273 -0.3343 -0.1639 -0.0758
12251W        W30455   0.154  12.486  14.682  0.0692  0.1188  0.4034
12252W        W30456   6.683   2.730   4.710  0.1361 -0.1782 -0.2050
12253W        W30457   3.604   0.667  15.016 -0.0499  0.4340  0.3147
12254W        W30458   8.604   7.117   1.862  0.0541 -0.1319  0.1140
12255W        W30459   3.117   4.092   0.254 -0.2541  0.0404 -0.1113
12256W        W30460  12.369  13.202  13.495 -0.0941 -0.3164  0.3646
12257W        W30461   7.954  15.886  12.149 -0.3101 -0.0986  0.1489
12258W        W30462  17.070  15.682   5.182 -0.4095 -0.0023  0.2858
12259W        W30463   3.441   3.366   3.671  0.1984 -0.1910 -0.0551
12260W        W30464  10.221   3.130  11.835 -0.0794  0.0250  0.1101
12261W        W30465   2.230   4.256  11.205 -0.1408 -0.0238 -0.1113
12262W        W30466   8.560  17.150  12.994  0.1008 -0.2789 -0.0393
12263W        W30467   2.627  10.498  12.130 -0.3067  0.1431 -0.2890
12264W        W30468  13.839   2.505   4.432 -0.0430 -0.3294  0.1027
12265W        W30469  15.647   2.862  11.940  0.3178  0.1004  0.1675
12266W        W30470  16.792  16.415  14.117 -0.2751  0.1414  0.1636
12267W        W30471   9.047   7.246  11.738  0.1346 -0.3187  0.0711
12268W        W30472  15.103  17.204   2.572 -0.2502 -0.0059  0.1812
12269W        W30473  15.582   2.866  12.946  0.2005 -0.3038 -0.0769
12270W        W30474   1.908   4.715  12.072 -0.2664 -0.0727 -0.0572
12271W        W30475  14.946  18.300   0.286 -0.0256 -0.0295 -0.0234
12272W        W30476   5.680   7.428  15.105 -0.2662  0.0453  0.1442
12273W        W30477   7.437   3.049  13.492 -0.0569  0.2444 -0.3377
12274W        W30478   6.219  17.202   0.486  0.2432  0.2025 -0.0434
12275W        W30479  11.575   0.582   1.091  0.1744  0.3134  0.0321
12276W        W30480  12.053   3.436  12.625 -0.1989 -0.2077 -0.1605
12277W        W30481  13.750   8.658   0.249  0.1951  0.2795 -0.2246
12278W        W30482   4.705   1.513   3.232  0.3077  0.1852 -0.1773
12279W        W30483   2.561  16.675  12.847 -0.1229  0.1762 -0.1299
12280W        W30484  17.896  16.022  13.960  0.0849  0.1133  0.2931
12281W        W30485   4.967   2.977   1.882 -0.1055  0.2028 -0.0841
12282W        W30486   6.040   0.853   1.135  0.1982 -0.0981  0.0113
12283W        W30487   9.978  18.226  15.039 -0.0908  0.1674  0.0885
12284W        W30488   8.821   5.481  14.225  0.2030  0.0006 -0.2696
12285W        W30489  14.510  13.388   3.773 -0.1052  0.0448 -0.3714
12286W        W30490   6.375  17.479  10.539 -0.3025 -0.3931  0.3766
12287W        W30491   2.363   0.417  11.693  0.1183 -0.1510 -0.0850
12288W        W30492   2.570  16.417  11.803  0.2429 -0.2428  0.0131
12289W        W30493   5.009   3.455   2.951  0.0629 -0.0079  0.0740
12290W        W30494   2.297   2.828   2.958 -0.3005  0.0005 -0.1166
12291W        W30495   5.355   5.447  14.055 -0.2195  0.0576 -0.1073
12292W        W30496  13.294  15.567   1.473  0.2697  0.1153 -0.1354
12293W        W30497   0.231  18.227  14.793  0.1193  0.0557 -0.1402
12294W        W30498   3.272  14.126   2.580 -0.0598 -0.1685  0.0633
12295W        W30499   4.259   3.343  13.999 -0.0561 -0.0763 -0.1684
12296W        W30500   1.537   0.470  12.011 -0.4374 -0.0778  0.2777
12297W        W30501  10.628  14.251   1.884 -0.1805  0.0023  0.1708
12298W        W30502   6.842  17.640   1.791  0.2254 -0.0165  0.1196
12299W        W30503  17.789   1.642   1.141 -0.0821 -0.0305 -0.1491
12300W        W30504  10.502  11.681   4.773  0.0105 -0.2087  0.2579
12301W        W30505   4.325  16.814  13.672 -0.0967 -0.1769 -0.2356
12302W        W30506   2.227   4.412  14.108  0.1091 -0.3084  0.0965
12303W        W30507  15.209  11.708   1.589 -0.2980  0.0658  0.0862
12304W        W30508  16.976   7.963   1.856 -0.3054  0.1749  0.1711
12305W        W30509   9.705   6.332   2.267 -0.3796 -0.2410 -0.0815
12306W        W30510  10.078   2.508  15.487 -0.1771  0.1874  0.3689
12307W        W30511   3.103  16.302   1.199  0.1105 -0.0907  0.0611
12308W        W30512   9.024   8.198   0.983 -0.0835 -0.3426  0.1033
12309W        W30513   8.628  15.133   3.252 -0.0365 -0.0908 -0.4508
12310W        W30514  15.005  11.729  14.282 -0.0265  0.2161 -0.1550
12311W        W30515  15.905   6.857  12.479  0.1569  0.0789 -0.0104
12312W        W30516   6.984   9.953  13.643  0.0601 -0.2689  0.0577
12313W        W30517   8.502  15.043   2.595 -0.1137  0.0422  0.1451
12314W        W30518   4.984   8.637   1.858  0.1438 -0.0118 -0.0417
12315W        W30519  15.794   9.612   0.489  0.1613  0.0314 -0.1626
12316W        W30520   6.773   6.549   4.407  0.0316  0.1474  0.0479
12317W        W30521   4.479  12.772   0.341 -0.0233 -0.0320 -0.0833
12318W        W30522   8.508   4.824   1.258 -0.0029  0.1842 -0.0367
12319W        W30523   4.545  13.465  14.172 -0.1653  0.1111 -0.1155
12320W        W30524  16.280   3.530  12.837  0.1573 -0.1648 -0.1080
12321W        W30525  14.140  18.061  13.970 -0.2737  0.0809  0.1708
12322W        W30526   8.318   2.127   5.489  0.0405  0.1629 -0.0678
12323W        W30527   1.348   2.126  13.491 -0.1069  0.0273 -0.0579
12324W        W30528   7.627  16.592  11.589  0.2942 -0.0367  0.2775
12325W        W30529   2.405   8.279   3.517  0.1158 -0.1433 -0.1584
12326W        W30530  16.422  10.049   0.188  0.0504  0.1422 -0.6091
12327W        W30531   0.517  11.496   2.873  0.3751  0.0466 -0.1376
12328W        W30532  15.981  17.328  12.387  0.0763 -0.1001 -0.1872
12329W        W30533  16.605  14.410   4.364 -0.2155  0.1318  0.3948
12330W        W30534  11.517  17.584   0.324  0.2048 -0.0265 -0.1295
12331W        W30535   2.814   7.585  15.271  0.1201 -0.0063 -0.2338
12332W        W30536   8.957   1.686   0.868 -0.2548 -0.0443 -0.2827
12333W        W30537   5.521  11.460   4.136 -0.0459  0.0375  0.1657
12334W        W30538  13.658   9.815   0.500 -0.1958  0.0494  0.0937
12335W        W30539   2.887   3.164  12.570 -0.0970  0.2792 -0.4267
12336W        W30540   7.032   2.305  13.041 -0.1736  0.2859  0.2198
12337W        W30541  17.307  16.577   1.440 -0.1041  0.1819  0.0340
12338W        W30542  10.630   8.321  13.680  0.2984 -0.2588  0.1600
12339W        W30543  16.469  13.550  13.273  0.1697 -0.2227 -0.4328
12340W        W30544   4.275  13.022  12.886 -0.0558 -0.3076 -0.0484
12341W        W30545  13.409   9.275  10.481 -0.1790 -0.0533 -0.0577
12342W        W30546   9.726   4.505   2.288  0.2878 -0.1583 -0.2153
12343W        W30547  17.527  10.931  13.610  0.1252 -0.2628  0.0447
12344W        W30548   7.414   9.484   4.995  0.3404 -0.1621  0.2669
12345W        W30549  13.361  12.187   0.168  0.0486  0.1417  0.2226
12346W        W30550  10.780  12.108  11.858 -0.1966  0.1367 -0.2132
12347W        W30551   5.224  16.573  13.430  0.1568  0.1737 -0.2612
12348W        W30552   4.129  16.501  14.678  0.0656  0.1910  0.1054
12349W        W30553  11.506   5.289  15.337 -0.0741 -0.0277 -0.1021
12350W        W30554   4.078  13.863  12.100  0.0977  0.0517  0.0864
12351W        W30555  14.203   9.349  12.949 -0.1018  0.0182  0.2534
12352W        W30556  17.948  12.605  12.634 -0.1917  0.0411  0.2014
12353W        W30557  11.489   4.206  12.395  0.0909  0.0911 -0.1767
12354W        W30558  15.750   1.233   3.765  0.2271 -0.2122 -0.0262
12355W        W30559   1.697   5.272   1.432 -0.1546  0.1977  0.2366
12356W        W30560  10.122   0.946   2.434  0.1240 -0.1149  0.0772
12357W        W30561   1.274  11.240  12.191 -0.0555  0.0066 -0.2098
12358W        W30562   1.578   1.447   3.517  0.1061 -0.0548 -0.0146
12359W        W30563   6.265  10.797  11.591 -0.0026  0.2265 -0.0045
12360W        W30564   0.718  12.476  11.996  0.0653  0.0099 -0.1939
12361W        W30565  10.446  10.395  11.095  0.0578  0.3214  0.0423
12362W        W30566   5.347  11.281   1.342  0.0231  0.1744 -0.0904
12363W        W30567  10.116  18.310  11.828 -0.3824  0.2390  0.4026
12364W        W30568   1.266   2.076   1.693  0.0619  0.1505 -0.0751
12365W        W30569   4.872  12.649   3.044 -0.0810  0.2149  0.0370
12366W        W30570   4.221  16.077   0.939  0.0357 -0.4807  0.1554
12367W        W30571  14.208  14.268  13.620  0.0504  0.1263 -0.3343
12368W        W30572  12.087  15.772   3.629  0.0920  0.0823 -0.2135
12369W        W30573  18.338   6.743  13.102 -0.0340 -0.1170 -0.0519
12370W        W30574  17.412  13.946   5.142  0.0124  0.2064  0.0242
12371W        W30575  11.347  10.361  13.883 -0.0160  0.1654 -0.0432
12372W        W30576  12.073  12.208  15.344  0.1098 -0.3141  0.1991
12373W        W30577  14.720  14.628  11.281  0.2113 -0.0547  0.1842
12374W        W30578   8.305   4.007  14.116 -0.1602  0.1113  0.0345
12375W        W30579   1.993  16.872  10.782 -0.1173  0.1636 -0.0621
12376W        W30580   5.588   5.623   1.804  0.0078 -0.0836 -0.0450
12377W        W30581  14.159  14.391   3.196 -0.2232 -0.2838  0.0615
12378W        W30582   0.819   1.352  10.124 -0.0849  0.0743  0.1992
12379W        W30583   3.523  12.892  11.922  0.1342  0.2383 -0.0422
12380W        W30584  13.131   2.294   1.597 -0.0875  0.1303 -0.2280
12381W        W30585  17.318   1.076  13.796 -0.2758 -0.1195 -0.0397
12382W        W30586   9.876  16.036   5.758  0.2708 -0.1026  0.0966
12383W        W30587  12.190   3.079  15.385 -0.3233 -0.1043  0.2748
12384W        W30588  13.854   4.241  13.088  0.1862 -0.2673 -0.1041
12385W        W30589  17.902  15.312   5.028  0.3683 -0.1756  0.1616
12386W        W30590   0.943   5.196   4.345 -0.1596 -0.4425 -0.0169
12387W        W30591   5.024   8.459   3.617 -0.0580  0.3783  0.1359
12388W        W30592   3.209   9.148   0.102 -0.1312  0.1257  0.0630
12389W        W30593   7.541  13.496  14.569  0.0407  0.0740 -0.2685
12390W        W30594   1.162   8.894   3.602  0.3259  0.1665  0.2969
12391W        W30595   6.845  15.347  14.633  0.0635 -0.1469 -0.0292
12392W        W30596   5.963   5.308  14.858 -0.0726 -0.0458 -0.1518
12393W        W30597  11.585   0.125   1.199  0.0440 -0.0918  0.1434
12394W        W30598   8.469   8.019   0.308 -0.2133  0.1615  0.1337
12395W        W30599   1.742   6.970  11.948  0.4758 -0.0434  0.0257
12396W        W30600   4.745   9.526   1.828  0.2840  0.1004 -0.2160
12397W        W30601  11.018   3.570   0.791 -0.2733  0.1176 -0.2047
12398W        W30602   0.591   9.917  14.609  0.0292  0.0035 -0.2416
12399W        W30603   0.084   1.309   0.904 -0.0832  0.1554  0.0144
12400W        W30604  12.685   8.898   3.644  0.2791  0.4504  0.0879
12401W        W30605  15.340  17.039  14.013 -0.1161 -0.3131 -0.1547
12402W        W30606   1.151   9.669   4.621 -0.0511  0.3067 -0.2566
12403W        W30607   1.030  14.341   4.635 -0.1827  0.0950 -0.0299
12404W        W30608  18.087   8.050   3.785 -0.0340  0.1712  0.2359
12405W        W30609   9.104   7.339   3.887  0.1680 -0.1991 -0.4411
12406W        W30610   9.015  15.742  13.647 -0.0027  0.2905  0.2473
12407W        W30611  13.116   0.757   3.183  0.0009 -0.0241 -0.2401
12408W        W30612  11.401  17.508  14.455  0.0826  0.2323  0.0945
12409W        W30613  15.490  14.302  14.649 -0.1266 -0.2670 -0.0097
12410W        W30614   4.073   7.060  14.002  0.0291 -0.0019  0.1581
12411W        W30615  10.789   1.330   3.838  0.1113 -0.2863 -0.1282
12412W        W30616  15.578  16.611  15.703 -0.0178  0.1894  0.1702
12413W        W30617  16.629   5.964   1.525 -0.0693 -0.0832 -0.0488
12414W        W30618  13.738   6.582   1.725  0.0499 -0.2009  0.0901
12415W        W30619   3.179  10.257   3.001  0.0064  0.0278  0.0055
12416W        W30620  18.009  10.768   0.794  0.2610 -0.0126  0.1859
12417W        W30621  11.510  10.347   3.641 -0.1507  0.0513 -0.3189
12418W        W30622  13.053  12.577  12.055  0.2670  0.0450 -0.2165
12419W        W30623   9.151  16.233  13.608 -0.1085 -0.1292 -0.0464
12420W        W30624   7.373  10.140   0.189 -0.2221 -0.0327 -0.1652
12421W        W30625   6.862   5.440   5.537 -0.1392 -0.1086  0.1163
12422W        W30626   7.590  15.524  12.423 -0.1242 -0.1791  0.0520
12423W        W30627   8.347   3.286   0.887  0.2132  0.3801 -0.1342
12424W        W30628   0.873  14.006  12.529  0.5266  0.2109  0.1098
12425W        W30629   1.015   8.450   3.471  0.3809  0.0861  0.0678
12426W        W30630  13.029   5.713   4.261 -0.0391 -0.2355 -0.0146
12427W        W30631   5.268  12.991  12.308  0.0731  0.0480  0.2697
12428W        W30632   0.047   6.239  12.285  0.0402 -0.0250 -0.1529
12429W        W30633  10.195   9.056  11.693 -0.0671 -0.0090 -0.1239
12430W        W30634   0.529   0.561  12.024 -0.0374  0.1001  0.1027
12431W        W30635  15.767   0.493  11.933  0.3501 -0.0410 -0.1716
12432W        W30636  13.961   0.618   1.608 -0.1277  0.0078 -0.0566
12433W        W30637  10.807  15.612   3.593 -0.0760  0.1359  0.1897
12434W        W30638   0.242  15.770  14.722 -0.0600  0.0188  0.0595
12435W        W30639   3.485  15.106  14.459  0.2473  0.0172 -0.1339
12436W        W30640  18.374  11.098   3.874  0.0001  0.1374  0.0868
12437W        W30641  16.930  14.984  11.181  0.0137 -0.0542 -0.0780
12438W        W30642  16.485  10.711   0.724  0.0236  0.1877  0.0355
12439W        W30643  18.329   5.098   1.667 -0.1055  0.1558  0.2196
12440W        W30644  15.059   4.708   1.369  0.2606  0.2089 -0.1338
12441W        W30645  17.963   7.610   1.895  0.1103  0.1728 -0.1567
12442W        W30646   0.299   2.629   2.979  0.0672  0.0780 -0.1504
12443W        W30647  12.491   5.309  13.601 -0.1386  0.0238 -0.1155
12444W        W30648   9.220  10.550   0.816  0.1507 -0.1897 -0.0281
12445W        W30649  14.189   5.057  11.300 -0.0500  0.4035 -0.2273
12446W        W30650  14.387   6.372  11.370  0.3044  0.0967 -0.2668
12447W        W30651  11.027   8.356  14.874 -0.1108 -0.0760  0.4347
12448W        W30652  15.598   7.423   2.737  0.2188 -0.2289 -0.0567
12449W        W30653   2.898   9.957   2.415  0.1479  0.2522 -0.1232
12450W        W30654   2.646   7.662   5.655 -0.1426  0.0857 -0.0497
12451W        W30655  11.188   8.770   5.372  0.2303  0.3710 -0.0120
12452W        W30656  11.681  12.677  12.411 -0.0021  0.0167 -0.2075
12453W        W30657  11.534   4.056   0.406 -0.0175  0.0621 -0.0489
12454W        W30658   8.913   4.303  13.844 -0.1953  0.1954 -0.1655
12455W        W30659   5.813  13.784  11.679 -0.0557  0.3847  0.0206
12456W        W30660  15.675   2.085   0.946 -0.1838 -0.1478  0.0735
12457W        W30661  14.304   3.896  13.521 -0.0353 -0.3521  0.1420
12458W        W30662   4.352  17.844   3.388 -0.1781  0.0325 -0.1901
12459W        W30663   7.974  17.600   3.840 -0.2867  0.1928 -0.0225
12460W        W30664  13.809  11.945   4.933  0.0756  0.1464  0.0657
12461W        W30665  16.511  12.759   1.918 -0.0753  0.3287  0.1334
12462W        W30666  15.140  14.887   2.522  0.0156 -0.2233 -0.0560
12463W        W30667   8.621   7.450   0.265 -0.2763  0.0127 -0.1385
12464W        W30668   4.131   4.610   1.994  0.2051  0.3604  0.0986
12465W        W30669   3.641  11.349   1.132 -0.0342  0.1253 -0.0542
12466W        W30670  13.706  14.616   4.675 -0.0469  0.1079  0.1029
12467W        W30671  15.662   1.232  11.225 -0.1983 -0.0358 -0.0155
12468W        W30672   7.510  15.107  14.304 -0.1160 -0.1472  0.1304
12469W        W30673  13.945   6.038   2.488 -0.1851  0.1345  0.0906
12470W        W30674   9.072   7.498  14.073  0.0757 -0.1581 -0.1991
12471W        W30675   1.736   5.788   3.090  0.3181 -0.0971 -0.1807
12472W        W30676   4.644   7.359   1.781  0.2343 -0.0234 -0.0712
12473W        W30677  12.666   1.041   2.985 -0.0998 -0.1705 -0.3201
12474W        W30678  17.154   5.689   4.146  0.2978 -0.0545 -0.1713
12475W        W30679   1.039  14.669   4.244  0.1360 -0.1465  0.0165
12476W        W30680  14.288  10.097  14.269  0.1321  0.0425 -0.3422
12477W        W30681   9.313   4.504   3.551  0.3695 -0.3632 -0.3236
12478W        W30682  16.981  10.804   4.114  0.0079  0.1082  0.2917
12479W        W30683   7.464  12.621  14.942  0.0278 -0.2093 -0.1292
12480W        W30684  12.522   4.199   0.121  0.2389 -0.1893 -0.0964
12481W        W30685  16.497   0.895   3.472 -0.1899  0.1760  0.2406
12482W        W30686  11.043   9.445   2.840 -0.0395  0.1781  0.1846
12483W        W30687  18.144   5.601   0.848  0.2640  0.1273  0.0360
12484W        W30688  10.888   7.936  13.476 -0.2664  0.2201 -0.2505
12485W        W30689   6.609  14.398  14.952 -0.2735 -0.4499 -0.3689
12486W        W30690   4.015  18.215   3.612 -0.3541  0.0146  0.2251
12487W        W30691  10.714  14.917  14.993 -0.0832  0.2578  0.1372
12488W        W30692  16.426   3.158   4.020 -0.1357  0.1735  0.1191
12489W        W30693  13.860   1.698   3.685 -0.1486  0.1906 -0.1890
12490W        W30694  17.403  12.986  14.032 -0.5206 -0.2055 -0.1009
12491W        W30695   9.932   1.601   1.206  0.1901 -0.1027 -0.3250
12492W        W30696  11.849   0.086  12.156 -0.1273 -0.3211 -0.1508
12493W        W30697  13.032   5.251  15.261  0.1004 -0.2996  0.0658
12494W        W30698   7.503  16.773  13.761 -0.2834 -0.0276  0.1561
12495W        W30699  15.705   8.806   0.482  0.1114 -0.2754  0.0857
12496W        W30700  13.818  14.019   1.203  0.2124 -0.1397 -0.2603
12497W        W30701  10.616   3.598   3.220  0.1490  0.2587  0.0457
12498W        W30702  16.566  13.997   4.785  0.1458 -0.0102 -0.0116
12499W        W30703   4.635  10.751  15.577 -0.1296  0.2582 -0.0435
12500W        W30704   2.688  15.008  14.101 -0.1064 -0.3400 -0.1479
12501W        W30705   2.238   5.358  12.606 -0.1112 -0.0900 -0.0833
12502W        W30706   5.421   9.556   3.086 -0.2901  0.3818  0.4865
12503W        W30707  10.644   1.991   3.160  0.3012  0.4934 -0.1093
12504W        W30708  17.908  15.846   1.732 -0.1857  0.0569 -0.1477
12505W        W30709  12.558  17.486   3.125  0.3202 -0.0702  0.1992
12506W        W30710  15.701   1.490   4.223  0.1719  0.1329  0.3415
12507W        W30711   9.307   7.178   2.226  0.2504  0.0111 -0.1659
12508W        W30712   7.225   5.665  11.426 -0.2422  0.2624  0.2940
12509W        W30713  15.072   4.669   2.080  0.1506 -0.0945  0.0387
12510W        W30714   5.894  10.523  12.445 -0.0174 -0.1428  0.0275
12511W        W30715  11.465  11.937   3.819  0.0539  0.0904  0.2594
12512W        W30716  17.143   8.028  14.633  0.1015 -0.1172  0.3390
12513W        W30717  13.862   3.300   0.737 -0.5666 -0.0101  0.0337
12514W        W30718   1.813   3.116  11.907 -0.1580  0.3558  0.1272
12515W        W30719   7.905   8.491  15.355  0.1238  0.2628  0.0625
12516W        W30720   4.335   6.527   1.036 -0.3044  0.0557  0.3059
12517W        W30721   7.577  17.110  12.797  0.1112  0.1015 -0.2005
12518W        W30722   1.254  11.155   1.620  0.1803 -0.2464  0.1548
12519W        W30723  16.851   2.895   3.251 -0.1143  0.0429 -0.1924
12520W        W30724  14.161   6.751  10.948  0.1315 -0.0141 -0.0662
12521W        W30725   2.243  17.928  11.068  0.1253  0.0963 -0.2409
12522W        W30726   6.000   3.875  13.875  0.1590 -0.1098 -0.0025
12523W        W30727   9.310   2.065  12.771  0.0753  0.0782 -0.1103
12524W        W30728   5.846  17.416   0.804 -0.0260  0.1577  0.1382
12525W        W30729   6.451   8.042  14.395 -0.1118 -0.4625  0.0970
12526W        W30730   4.420   4.397  11.747  0.0126  0.4580  0.0427
12527W        W30731  10.131   3.911  14.627 -0.1515  0.1446 -0.0417
12528W        W30732  12.785   5.690   1.338  0.0815  0.3667  0.1881
12529W        W30733  14.381   6.198   0.186 -0.1405  0.1931 -0.3206
12530W        W30734   1.825   3.314  11.470 -0.2548  0.4326 -0.4010
12531W        W30735   7.994   1.090   3.423  0.2446 -0.1422  0.0769
12532W        W30736  14.620   3.837  15.544  0.0550  0.1409 -0.1821
12533W        W30737   8.119   4.834   4.413 -0.2793  0.0113 -0.1277
12534W        W30738   2.877   3.982   1.206  0.1573  0.0938 -0.1858
12535W        W30739  17.289  16.648  13.991  0.1169 -0.0253  0.0768
12536W        W30740  12.225  13.715  15.475 -0.0276  0.1342  0.0677
12537W        W30741   0.691   7.382   1.150 -0.0333 -0.0173 -0.2442
12538W        W30742  10.671   7.469   2.893  0.0674  0.1448 -0.4288
12539W        W30743   6.265   8.884   2.843  0.1283 -0.2487 -0.0083
12540W        W30744   7.176   6.697  14.733 -0.1560  0.1245  0.1027
12541W        W30745   0.926   0.870  13.767 -0.2928 -0.0955  0.0919
12542W        W30746  11.509  13.038  12.726 -0.1702 -0.2308  0.1152
12543W        W30747  11.138   7.691   5.237 -0.1620 -0.1331 -0.1223
12544W        W30748  15.755  11.769   1.554  0.0756  0.1185 -0.0383
12545W        W30749  15.229  13.431  13.162  0.0655 -0.2646 -0.1295
12546W        W30750   9.482  14.038   3.725 -0.3053  0.1528 -0.1240
12547W        W30751  15.884   3.857   0.008 -0.1523 -0.1236 -0.2391
12548W        W30752   0.621   4.147  14.819  0.1793  0.1675 -0.1325
12549W        W30753   6.363   2.893   2.133 -0.1401 -0.1349 -0.1308
12550W        W30754   3.084   1.039  14.896 -0.0228 -0.2185  0.0089
12551W        W30755  12.331   2.632  15.102 -0.0156 -0.1382 -0.0024
12552W        W30756   5.283  15.406  14.572 -0.0477  0.1240  0.0326
12553W        W30757   6.308   4.278   3.300  0.0480  0.0277  0.0883
12554W        W30758  12.069   7.688   3.603  0.0502  0.0728  0.2340
12555W        W30759  11.176   9.831  11.238  0.3634 -0.0228  0.0133
12556W        W30760  17.176   5.628  13.235 -0.5513 -0.0008 -0.2957
12557W        W30761   4.832  18.236  14.127  0.1083  0.2625 -0.0470
12558W        W30762  14.248  12.082   0.398  0.0058 -0.0436 -0.0469
12559W        W30763  10.593  17.388  13.406  0.1780  0.0926 -0.2371
12560W        W30764  17.568   9.550  12.562 -0.1414  0.0238 -0.1017
12561W        W30765  16.951  13.546  13.433 -0.1844 -0.0820  0.2663
12562W        W30766  13.611  17.339  14.541 -0.2010 -0.2098 -0.1391
12563W        W30767  10.275  12.269  14.859  0.2286 -0.2684 -0.1234
12564W        W30768   2.273   4.696  13.308 -0.0865 -0.0957 -0.0014
12565W        W30769   6.242   1.066   2.091  0.0217  0.2152  0.0691
12566W        W30770  12.351   5.700  11.286  0.1620  0.0354 -0.0973
12567W        W30771   6.407  17.097   4.082  0.2641 -0.0012 -0.3140
12568W        W30772   5.479   5.263  11.205  0.0445 -0.0574  0.3090
12569W        W30773   3.731   8.919  13.565 -0.2343 -0.0641 -0.0558
12570W        W30774   4.067   5.524   0.835  0.0335  0.3700 -0.0033
12571W        W30775  12.926   2.839  13.602 -0.0014  0.0324 -0.0789
12572W        W30776   4.447   4.556  14.867 -0.0639 -0.1993 -0.0474
12573W        W30777  12.247   7.134   4.307  0.1724  0.0656 -0.0610
12574W        W30778   9.798   5.938   1.933 -0.3186 -0.2616  0.2121
12575W        W30779   7.712  15.453   1.151  0.1613  0.2214 -0.0501
12576W        W30780   0.000   2.508  14.005  0.2045 -0.0405 -0.2021
12577W        W30781   4.957   5.980   4.521 -0.0141  0.0709  0.1396
12578W        W30782  15.096   5.061  15.256 -0.2472 -0.2235  0.2057
12579W        W30783   1.316  11.006   3.741 -0.0775 -0.1359 -0.4602
12580W        W30784   5.783   8.104  15.719  0.0892 -0.0747 -0.1208
12581W        W30785   1.251   0.646  15.390  0.2180  0.3202 -0.1672
12582W        W30786  10.723   3.221   5.296  0.1873  0.1997  0.0597
12583W        W30787   0.361   9.772  11.823  0.1534 -0.0831  0.3067
12584W        W30788   2.889  11.104   0.003 -0.2484  0.0338 -0.0269
12585W        W30789  17.706  12.057  14.317  0.3885 -0.2478 -0.0722
12586W        W30790   5.818  16.317  15.721 -0.0414 -0.0386  0.2417
12587W        W30791   3.455   0.243  15.340  0.1892  0.1275 -0.0541
12588W        W30792  14.542  17.491   3.125 -0.4183 -0.0917  0.1996
12589W        W30793   6.586  15.125  13.471 -0.0491  0.0435  0.0796
12590W        W30794  12.655  13.504  11.923 -0.1807 -0.3587 -0.0893
12591W        W30795   5.191  11.837   4.179  0.2726  0.0394 -0.0502
12592W        W30796   1.268  13.938   3.759  0.0335 -0.2990 -0.2216
12593W        W30797  11.573  16.594  11.951 -0.0036  0.2580  0.1774
12594W        W30798   3.329   4.140   1.759  0.0986 -0.3306  0.0233
12595W        W30799   0.801   3.477   2.889 -0.0640  0.2476 -0.1061
12596W        W30800  10.502  11.045  15.491 -0.2624 -0.0760  0.2115
12597W        W30801   4.829   4.279   2.837 -0.1212 -0.3042 -0.2966
12598W        W30802   0.917   8.407  12.215 -0.0931 -0.0166  0.1396
12599W        W30803   5.698   5.397   3.125  0.1391 -0.0861 -0.0355
12600W        W30804   3.483   0.915  13.692 -0.1049  0.0861 -0.1414
12601W        W30805   6.691   3.082  15.208  0.2742  0.0007  0.0493
12602W        W30806   0.037  10.632  11.949 -0.1665 -0.1264  0.1786
12603W        W30807  10.672  12.342   4.434 -0.0220 -0.2505 -0.0308
12604W        W30808   7.495  13.868   3.886  0.1440 -0.1475 -0.1469
12605W        W30809  12.698  10.942   3.669  0.2937 -0.3159  0.1421
12606W        W30810   9.700   3.012   1.157  0.1843  0.2048 -0.2534
12607W        W30811   8.832   1.034  11.570  0.3110  0.1086 -0.0636
12608W        W30812   3.140   3.005   3.971 -0.0926  0.0826  0.1196
12609W        W30813   6.247   6.101   0.378 -0.3254  0.0791  0.1148
12610W        W30814  13.672   1.763   2.237 -0.0679 -0.0358 -0.0086
12611W        W30815   8.358   7.772  14.029 -0.0372  0.0625  0.0702
12612W        W30816   0.513   2.970   0.430  0.2732 -0.1408 -0.3604
12613W        W30817  11.145   7.790  14.356 -0.0761  0.1734  0.4251
12614W        W30818   0.855   9.931   2.161 -0.1081 -0.0248  0.4925
12615W        W30819   7.854   0.957  11.097 -0.0061  0.0878 -0.0565
12616W        W30820   8.214  12.495  13.338  0.1562 -0.1727 -0.0418
12617W        W30821   2.019   5.904   4.104 -0.0303  0.0662  0.0501
12618W        W30822   3.765  16.260  12.250  0.0027  0.3138 -0.1006
12619W        W30823   3.750  12.395   4.345  0.1656 -0.2642 -0.0954
12620W        W30824  11.213   0.365  12.264 -0.2063 -0.1086  0.2116
12621W        W30825  12.269   0.446  13.391  0.0859 -0.1736  0.0222
12622W        W30826   2.187  13.260   4.060  0.4504  0.0709  0.0976
12623W        W30827  10.049   3.347  11.415  0.0017  0.1215  0.2665
12624W        W30828  10.273  12.719  11.893  0.2219  0.0778  0.2839
12625W        W30829   7.149   5.421  12.269 -0.0072 -0.0527 -0.3454
12626W        W30830   1.300   5.955   2.837 -0.1455  0.2495 -0.2011
12627W        W30831  12.311  15.319   5.400 -0.1272 -0.0108 -0.2311
12628W        W30832  15.615   1.580   2.793 -0.0408 -0.0082  0.2361
12629W        W30833  13.280  12.272   4.125 -0.0518  0.1497  0.1493
12630W        W30834   8.077  11.636  11.212  0.1133  0.0823  0.0080
12631W        W30835   2.403  10.817   3.453  0.2178  0.1482  0.2012
12632W        W30836  14.923  13.773  11.168 -0.0277  0.0119  0.0107
12633W        W30837   7.698   5.650  11.180 -0.3951  0.0263 -0.0076
12634W        W30838  17.949  12.566   0.727  0.0444  0.0253  0.4574
12635W        W30839   1.898   9.501  15.497 -0.0181  0.1941 -0.1352
12636W        W30840  11.836  15.768  12.373  0.1043 -0.1843  0.2650
12637W        W30841   6.236  14.139   1.222  0.2011  0.0300 -0.1609
12638W        W30842   5.194   9.365  13.586 -0.2076 -0.2068  0.2080
12639W        W30843   4.917   4.466   3.401  0.2373 -0.3366  0.1855
12640W        W30844   2.455  18.132   4.708 -0.1922  0.1749 -0.0397
12641W        W30845   4.532  15.408  12.384  0.1685  0.0246  0.3392
12642W        W30846   9.774   1.463   4.082  0.0674 -0.2721  0.0376
12643W        W30847  16.640  11.193   0.533 -0.1219  0.1536  0.1292
12644W        W30848   5.527  11.885  14.121  0.1425  0.1078  0.0130
12645W        W30849   5.217  11.661   2.775 -0.2965  0.2831  0.2844
12646W        W30850   5.183   7.365  14.362 -0.0338 -0.2306 -0.0365
12647W        W30851  15.460   4.640  11.218  0.1397 -0.3584  0.4403
12648W        W30852   4.505   5.952   4.175  0.0142  0.0593  0.1355
12649W        W30853   6.266   8.882   4.756  0.0025 -0.1794 -0.0235
12650W        W30854   8.068   2.545  14.903 -0.1513  0.2574  0.1285
12651W        W30855  13.734   4.366  12.542 -0.1406  0.1930 -0.1086
12652W        W30856   3.538   7.724  12.328 -0.0495 -0.1185 -0.4059
12653W        W30857   0.315  17.608   2.881 -0.0927  0.0449  0.1318
12654W        W30858   4.663   5.438  15.537  0.3156 -0.1367  0.1086
12655W        W30859  12.921  15.275  14.262 -0.2017  0.5023  0.2054
12656W        W30860  11.896  10.373  13.862 -0.0854  0.0317 -0.0535
12657W        W30861   6.225  13.456  13.927 -0.1549  0.1535 -0.0182
12658W        W30862   8.867   8.197   4.766  0.3305  0.0133 -0.0232
12659W        W30863   4.504   8.460   3.378 -0.0906 -0.1225 -0.1561
12660W        W30864  13.875  17.425   2.090 -0.2275  0.1379  0.3760
12661W        W30865  17.016   8.980   1.206 -0.2964  0.1136  0.0845
12662W        W30866  10.613   0.172   3.392  0.5040 -0.1141 -0.1405
12663W        W30867   5.496  15.738   0.748 -0.0950 -0.0061 -0.4804
12664W        W30868   7.743  13.086   3.463  0.1227  0.1964  0.2540
12665W        W30869   2.183  10.736  10.127  0.1955 -0.0386 -0.0924
12666W        W30870  14.415  18.238  14.360 -0.4201  0.0222 -0.3609
12667W        W30871  14.787   5.503  15.270 -0.0113 -0.3933 -0.0177
12668W        W30872   0.734   8.623   5.043 -0.1512  0.0466  0.3025
12669W        W30873  17.058   4.628  11.845 -0.0344 -0.2747 -0.0118
12670W        W30874   9.196  17.105   4.580  0.2131  0.1726  0.2437
12671W        W30875   3.813  17.934   1.918 -0.3387  0.2755 -0.0474
12672W        W30876   8.279   0.378  15.423 -0.0835  0.1848 -0.1759
12673W        W30877   5.269  12.190  14.352 -0.1514 -0.1678 -0.1672
12674W        W30878   5.179   1.974   1.218  0.0448  0.1990  0.0294
12675W        W30879   6.248   6.435  10.859 -0.2627  0.0489  0.0046
12676W        W30880  14.349   8.845  14.836 -0.1357  0.1931 -0.2276
12677W        W30881   3.818  17.156  13.465  0.0280  0.2307  0.0689
12678W        W30882   6.821   1.734  14.380  0.1022 -0.1301 -0.3427
12679W        W30883  12.243  12.278   2.045  0.2274  0.0521 -0.3043
12680W        W30884  10.672   7.393  13.573 -0.0603  0.2838 -0.3316
12681W        W30885  15.672   1.947  12.282 -0.3210  0.0738 -0.0353
12682W        W30886  17.395  16.853   3.914  0.0663 -0.1769 -0.1028
12683W        W30887   9.918   5.252   4.635  0.0744  0.3030 -0.0538
12684W        W30888   3.189   2.175  12.343  0.0490  0.1904 -0.1253
12685W        W30889   3.759  15.846  12.993 -0.1477 -0.1660  0.0171
12686W        W30890  17.923  17.632   4.775  0.1542 -0.1049  0.1212
12687W        W30891   9.411   0.242   2.404 -0.2637  0.1914 -0.2197
12688W        W30892  17.936  10.788  14.923  0.1269 -0.3575  0.1333
12689W        W30893   8.185   1.543   2.743  0.0552  0.1453 -0.0014
12690W        W30894   7.904   0.977  15.678 -0.1250  0.0627 -0.2182
12691W        W30895   4.189   4.568   4.866  0.2487 -0.2371  0.1625
12692W        W30896   7.757  16.510   2.218  0.0078 -0.0470  0.1307
12693W        W30897  11.663   7.120   5.007  0.1923 -0.3953  0.2910
12694W        W30898   2.428  12.646  15.402  0.2704  0.0893 -0.3002
12695W        W30899  12.687   7.603  12.836  0.0295 -0.0406  0.0663
12696W        W30900  16.105   4.095   4.908  0.2003 -0.0121 -0.1998
12697W        W30901   3.186   2.822  14.047 -0.0689 -0.0115 -0.0620
12698W        W30902  15.228   8.606   4.135 -0.1142 -0.0577  0.1108
12699W        W30903  10.900  10.276   0.224  0.1863 -0.2001 -0.0909
12700W        W30904   5.181   5.670  14.481 -0.0102  0.2137  0.1539
12701W        W30905   1.266  11.922  15.585  0.1460  0.0870  0.2608
12702W        W30906  15.443  18.079  14.376  0.1951  0.0091 -0.2458
12703W        W30907  12.993  12.626  12.933 -0.1217  0.1071 -0.0849
12704W        W30908  17.307   9.530  13.884 -0.2271  0.1036 -0.0624
12705W        W30909   5.526  14.934  14.426 -0.6296  0.2429 -0.1852
12706W        W30910   6.239  16.380   2.160  0.0486  0.3133 -0.0158
12707W        W30911   6.035  10.642  13.976  0.2719  0.0388  0.0756
12708W        W30912  14.129  13.849   3.150 -0.2202 -0.0576 -0.1069
12709W        W30913   5.911  17.039   3.993  0.1131  0.1712 -0.2234
12710W        W30914  16.852  12.807  11.564  0.1191 -0.1205 -0.1483
12711W        W30915  10.270   1.409  12.829 -0.0820 -0.0104 -0.2135
12712W        W30916  11.234   0.266  14.299  0.0166 -0.0403 -0.1484
12713W        W30917  17.432   8.847   1.791 -0.1809 -0.1519 -0.3471
12714W        W30918  16.829  10.636  11.937 -0.0113 -0.2936 -0.1828
12715W        W30919   9.185  12.635  11.669  0.1890 -0.1950  0.1521
12716W        W30920   3.776  13.862   0.898  0.0527 -0.2953 -0.1773
12717W        W30921  14.741   3.077  14.326  0.0243 -0.0068  0.1654
12718W        W30922  15.488  11.236   5.343 -0.1505  0.0459  0.0867
12719W        W30923  14.426  12.490  12.763  0.2695  0.0070  0.0267
12720W        W30924   6.395   2.316  11.928  0.0887  0.0270  0.3552
12721W        W30925   7.238   9.702   1.727  0.1141  0.0140  0.1257
12722W        W30926  11.904   9.852  12.604  0.0485  0.0219 -0.1315
12723W        W30927   2.989  12.985   1.616  0.1094 -0.2928  0.1246
12724W        W30928   9.197   8.281   0.061  0.0681 -0.1350 -0.3071
12725W        W30929  11.782  17.968  12.998  0.0974 -0.2490  0.0223
12726W        W30930  14.618  15.264   3.087 -0.0142  0.2326  0.0953
12727W        W30931   7.936   6.487  15.455 -0.0400 -0.3051  0.1413
12728W        W30932   4.013   3.734   3.844  0.3128 -0.0022  0.2441
12729W        W30933  17.212  10.314   2.903  0.4019 -0.0546 -0.1806
12730W        W30934   0.858   2.007  14.518 -0.0609  0.2500 -0.2525
12731W        W30935   6.813   7.164   1.716 -0.0817  0.0428  0.2336
12732W        W30936  10.511   2.889   2.495 -0.2197 -0.2076 -0.1899
12733W        W30937  11.972  11.914   1.833 -0.0874  0.1830 -0.1837
12734W        W30938  16.308   4.900   0.133  0.0066  0.0186 -0.2289
12735W        W30939   9.148   4.699  11.987  0.2280  0.2056  0.3065
12736W        W30940   1.759   7.469  11.186  0.1569  0.2636  0.0623
12737W        W30941  12.784  11.417   0.877  0.1859  0.2934  0.1042
12738W        W30942   5.178   8.583   4.593 -0.0085 -0.0919  0.1142
12739W        W30943  16.780  14.548  14.316 -0.0710  0.0505  0.0028
12740W        W30944  11.304   8.260   2.516  0.0976 -0.4058 -0.2982
12741W        W30945  17.387  13.405  10.082  0.1282  0.0878 -0.0230
12742W        W30946   8.375   9.486   0.426  0.0020  0.2375 -0.2117
12743W        W30947   9.578  12.865  11.275  0.3875  0.0159 -0.0981
12744W        W30948   5.113   7.995   2.813 -0.1803  0.0393 -0.0670
12745W        W30949  14.155   8.123   2.006 -0.0758 -0.2339 -0.0121
12746W        W30950  15.517   2.965  13.847 -0.0275 -0.0121  0.0098
12747W        W30951   2.778  17.668   4.679  0.0767 -0.1762  0.1648
12748W        W30952  14.695  17.019  13.675 -0.0381  0.1575 -0.0273
12749W        W30953   1.854   6.177  13.143 -0.0657  0.0479  0.0283
12750W        W30954   7.584   0.876   4.256 -0.2708  0.2003 -0.0797
12751W        W30955  15.927  16.750   3.660 -0.0153 -0.1072  0.3603
12752W        W30956  12.783  15.808  13.138  0.0798  0.0853  0.1203
12753W        W30957  12.363  15.469  13.121 -0.0530 -0.2058 -0.0753
12754W        W30958  10.152  14.557  11.374 -0.0278 -0.3667  0.1833
12755W        W30959   4.729   1.059  12.266 -0.1012 -0.0107  0.0763
12756W        W30960  12.697  10.826  15.652 -0.1753  0.3296 -0.4727
12757W        W30961   9.103  17.196  13.336  0.2945 -0.0116  0.1272
12758W        W30962   8.265   2.914  11.105  0.0556 -0.1561  0.0789
12759W        W30963  13.373   3.471   5.186  0.0377 -0.1794 -0.0338
12760W        W30964   9.943   0.070   1.777  0.3646 -0.1851  0.5287
12761W        W30965   3.321   3.230  12.102  0.2847  0.0046  0.0985
12762W        W30966  14.267   3.568  12.941  0.2853 -0.1786 -0.1218
12763W        W30967   2.719  11.111   3.116  0.1908  0.0442 -0.1363
12764W        W30968  11.075  15.747  11.574  0.1135 -0.3375 -0.1312
12765W        W30969   3.488   4.618   5.445  0.0318  0.0301  0.1745
12766W        W30970  13.386   2.947  12.783  0.0162  0.0062  0.0464
12767W        W30971   0.449  18.197   2.057  0.0211 -0.1864  0.4328
12768W        W30972  11.689  16.635   1.196  0.0078 -0.0124 -0.0269
12769W        W30973  11.254   9.039  11.604  0.0783  0.0921  0.2147
12770W        W30974   4.426   9.194   0.546  0.2614 -0.2597  0.1525
12771W        W30975  15.624   4.574   3.825 -0.2152 -0.0402 -0.0194
12772W        W30976   1.338  11.230   0.270  0.0374  0.2557 -0.1093
12773W        W30977   5.876   4.563   4.222 -0.0528  0.0362  0.0991
12774W        W30978  15.878   6.518   2.972  0.1840  0.2673 -0.0089
12775W        W30979   0.174   4.457  11.560 -0.2583 -0.2098 -0.1207
12776W        W30980  17.730  11.956   3.782 -0.0724 -0.3733 -0.0024
12777W        W30981  13.121   5.002  10.150 -0.0444 -0.0682  0.2478
12778W        W30982   3.117   0.861  11.977  0.1289  0.1912 -0.0360
12779W        W30983   3.084  13.026  12.731  0.0133 -0.2092 -0.1152
12780W        W30984   2.662  10.068  15.402 -0.0009 -0.0708 -0.2530
12781W        W30985   7.718  17.139   1.512 -0.0908 -0.0508  0.2728
12782W        W30986   2.942  10.281  11.017 -0.0385  0.1413  0.2586
12783W        W30987   0.688   8.805   3.553  0.0298  0.0535  0.0708
12784W        W30988   7.476  17.980  13.536  0.0005 -0.0270  0.4085
12785W        W30989  16.140   4.798   2.499  0.0918  0.0574 -0.3835
12786W        W30990  13.398   8.285   4.454 -0.1652  0.2058  0.1600
12787W        W30991   6.307  11.017  13.532  0.0680 -0.1212  0.1193
12788W        W30992   8.468   2.009  11.556 -0.0116  0.1897  0.1995
12789W        W30993   4.383  10.109  11.762 -0.2102 -0.3010  0.0972
12790W        W30994   9.960  10.231   0.643 -0.0709 -0.0394  0.3161
12791W        W30995   5.840  15.671  13.151 -0.2227 -0.0161  0.1079
12792W        W30996   2.035   1.610  13.166  0.1263 -0.1804 -0.2429
12793W        W30997  10.936  11.554  11.969  0.1782  0.2207 -0.3369
12794W        W30998   8.576  11.331   2.509 -0.0338 -0.0735 -0.3535
12795W        W30999   1.095   3.942  14.157 -0.1058 -0.0108 -0.1951
12796W        W31000  16.009  10.103  14.144 -0.2146 -0.1256 -0.3014
12797W        W31001   7.600   5.108  14.813 -0.0541 -0.0312  0.0570
12798W        W31002  10.328  13.242   4.233  0.1715  0.0202 -0.1046
12799W        W31003  17.261   3.791  12.678  0.0828 -0.1044  0.0816
12800W        W31004   5.359   5.243  11.933 -0.0186  0.0400 -0.0767
12801W        W31005   2.183  14.907   0.101 -0.0899 -0.3238  0.0469
12802W        W31006   4.636  11.735   5.463 -0.2816 -0.1033 -0.2411
12803W        W31007  11.200  10.619  12.052  0.2002  0.1914  0.0462
12804W        W31008   5.101   2.435  11.780 -0.0279 -0.0245 -0.3198
12805W        W31009   0.666   3.261   5.307  0.1770  0.1641  0.1318
12806W        W31010  15.803  13.167  11.969 -0.1140 -0.0354 -0.0330
12807W        W31011  15.317  13.764   1.161 -0.0218 -0.1703  0.0082
12808W        W31012  17.196   2.681   1.201 -0.0947  0.1239  0.2750
12809W        W31013   1.532   4.467   4.020  0.4412  0.0579 -0.0703
12810W        W31014   3.578   2.465  10.915  0.1115  0.0194 -0.1790
12811W        W31015  15.566   1.206  14.344 -0.2160  0.0340  0.0294
12812W        W31016   9.374   0.858  14.056  0.0590  0.1003 -0.0328
12813W        W31017   8.499   0.277   1.986 -0.1164  0.1644  0.0308
12814W        W31018  14.180   2.767  15.711 -0.1468 -0.0041  0.1567
12815W        W31019   9.180  10.311  11.351 -0.1326 -0.1544  0.0976
12816W        W31020  16.539   2.873  11.200  0.1067  0.1988  0.2047
12817W        W31021  14.557  14.785   3.951 -0.2168  0.1107  0.1127
12818W        W31022   8.710   5.531  12.707  0.3941  0.1023 -0.1322
12819W        W31023   2.112   7.292  12.178 -0.0745 -0.3284 -0.1245
12820W        W31024   7.796   1.660  13.812  0.2463  0.2311 -0.3299
12821W        W31025  14.906   9.283   1.487 -0.1218  0.1370 -0.2620
12822W        W31026   1.030  17.257   1.905 -0.3904  0.2352 -0.0788
12823W        W31027   4.716   1.857   4.155  0.1065 -0.1218  0.0685
12824W        W31028   4.513   2.696  14.918  0.3409  0.1115  0.4112
12825W        W31029   2.088  16.285  12.764  0.0880  0.0222  0.1858
12826W        W31030   4.209  12.492   3.860  0.1752  0.4055 -0.2068
12827W        W31031   6.714  11.020   5.467  0.0236 -0.0251 -0.0875
12828W        W31032  10.329  10.359   1.091 -0.1986 -0.1890  0.0450
12829W        W31033  13.791  16.127  10.691 -0.2886 -0.0374  0.1448
12830W        W31034  14.684  15.041  14.844  0.0098 -0.1577 -0.0716
12831W        W31035  12.780  17.836   1.150 -0.1547  0.2268  0.2543
12832W        W31036  14.651   0.775  13.064  0.1831  0.2519  0.0422
12833W        W31037  16.740   0.387  13.150  0.1913 -0.1573 -0.0722
12834W        W31038  15.228   4.913  12.096 -0.5742 -0.0481  0.0516
12835W        W31039  16.970  17.558  12.201  0.1023  0.1358 -0.0201
12836W        W31040   8.839   6.838  14.588  0.1542 -0.2707  0.2852
12837W        W31041   0.629  13.009   4.579 -0.1342 -0.0198  0.1148
12838W        W31042  18.233   3.669   4.305  0.1212 -0.0188 -0.0408
12839W        W31043  18.322   0.613  13.683  0.0977 -0.2386  0.3898
12840W        W31044   5.038   9.919  13.461 -0.3485 -0.0356 -0.0491
12841W        W31045  17.657   1.050   0.446  0.1865  0.0284 -0.1155
12842W        W31046  14.315   2.078  15.106 -0.1160  0.0919 -0.0586
12843W        W31047  17.262  10.350  11.306 -0.1826 -0.0494 -0.0161
12844W        W31048  11.720   3.145   9.861  0.0338 -0.1735 -0.1501
12845W        W31049  10.685   9.200  11.672 -0.0491  0.3548 -0.1414
12846W        W31050  14.005   8.615  13.116  0.2728 -0.0902  0.0808
12847W        W31051   8.764   9.911  12.425 -0.2312  0.0038 -0.1544
12848W        W31052  13.054   0.977  13.703 -0.0930  0.4059 -0.0098
12849W        W31053   1.053   6.000   0.355  0.0137  0.1634 -0.2657
12850W        W31054  14.775   3.948   4.480 -0.0947  0.0745  0.2052
12851W        W31055  17.712  13.823   0.628  0.1825  0.1807  0.4216
12852W        W31056  13.185  15.719  11.238  0.1739  0.1188 -0.0718
12853W        W31057  14.137   2.218   3.834  0.2004  0.3435 -0.0305
12854W        W31058  15.569   5.409   1.465  0.0744  0.1893 -0.0785
12855W        W31059   9.104  13.479  11.664 -0.0892 -0.0625  0.2290
12856W        W31060   8.797   0.729   3.443  0.2187  0.3053  0.0651
12857W        W31061  15.443  15.377  14.377  0.0353  0.2822  0.0791
12858W        W31062   5.500   8.560   3.438  0.2870 -0.3662  0.1517
12859W        W31063  18.112  11.317   1.823 -0.0050 -0.1580 -0.1333
12860W        W31064  14.116   9.443  13.409  0.0112  0.0989 -0.3430
12861W        W31065  15.527  10.039   2.095 -0.0301  0.2484  0.1613
12862W        W31066  13.345  16.752   1.874 -0.0246 -0.4076  0.0418
12863W        W31067  14.322   3.126   1.309  0.1056  0.1040  0.0367
12864W        W31068  17.547  10.695   3.165  0.0345 -0.0232 -0.0046
12865W        W31069   0.655   6.253   2.745 -0.0672  0.1206  0.0175
12866W        W31070  18.281   5.846  14.417 -0.1251 -0.1701  0.0711
12867W        W31071   6.146   9.024  10.826 -0.2816  0.4910 -0.1917
12868W        W31072   5.497  10.698   1.188 -0.1197 -0.1378  0.1206
12869W        W31073  11.814   7.325   4.391  0.3377  0.1112  0.1319
12870W        W31074  16.922  12.219  14.149 -0.1020  0.0650  0.0528
12871W        W31075   7.709   5.991   2.108 -0.3769  0.0743 -0.0885
12872W        W31076  10.921   4.542  12.198  0.0486  0.0301  0.0724
12873W        W31077   8.082  10.663   3.593 -0.3399 -0.1519  0.2364
12874W        W31078   7.687  16.066   3.511 -0.0472  0.2987 -0.1494
12875W        W31079   8.309  13.920  13.494  0.1718 -0.0631  0.2637
12876W        W31080   0.680   9.116   1.510 -0.0858  0.1497 -0.1560
12877W        W31081  11.539  13.924   2.591  0.2069 -0.0160 -0.1491
12878W        W31082   5.771   5.730  12.585 -0.0957  0.1182 -0.0118
12879W        W31083   5.951  16.892   0.900 -0.1499  0.0281 -0.0940
12880W        W31084   6.278   7.883  11.979  0.1178 -0.0639 -0.1598
12881W        W31085   3.511   9.587   0.044 -0.1122 -0.1077 -0.0864
12882W        W31086   6.264  13.142   2.287  0.4135 -0.1802 -0.4110
12883W        W31087   6.140  15.331   1.177 -0.0497 -0.0162 -0.1898
12884W        W31088   3.470   0.064  10.743 -0.0049 -0.2197  0.0596
12885W        W31089   1.628   1.691   2.628  0.2260  0.0899 -0.1817
12886W        W31090  17.553  11.487   3.762 -0.0194 -0.1225 -0.1147
12887W        W31091  15.307  11.474   3.871  0.1886 -0.3113 -0.0865
12888W        W31092   1.821   2.681   0.534  0.0781  0.0331  0.1118
12889W        W31093  13.891   1.314   5.093  0.2339  0.5175  0.1087
12890W        W31094   2.202   5.100   4.064  0.0661 -0.4051 -0.2134
12891W        W31095  14.208   6.492   1.705  0.0434  0.0414  0.1290
12892W        W31096   3.549  17.992   0.448 -0.1079 -0.1606 -0.2133
12893W        W31097  14.215   7.793  14.941  0.2456  0.1620 -0.0775
12894W        W31098   2.969   8.452  15.275 -0.4295 -0.6602  0.1693
12895W        W31099   1.510  10.726  14.090 -0.0154 -0.2008  0.0936
12896W        W31100   9.027  13.523  12.784 -0.0552 -0.1471  0.1944
12897W        W31101  15.696  13.159   1.522  0.0374  0.1591  0.0576
12898W        W31102   6.046  12.600  14.472 -0.0126  0.0855 -0.0149
12899W        W31103   8.003  11.083  12.720 -0.1908  0.2459 -0.2409
12900W        W31104  11.255   0.156   4.369  0.0591  0.3687  0.2677
12901W        W31105  17.577   7.716  11.305 -0.0295 -0.1052  0.1414
12902W        W31106  16.615  10.450  14.592 -0.4027 -0.1465 -0.0983
12903W        W31107   0.349   0.414  13.474  0.1092  0.1275 -0.0217
12904W        W31108   9.145  15.124   0.449 -0.3282  0.1431 -0.2348
12905W        W31109   1.620  12.189   5.146  0.1575 -0.1018 -0.1060
12906W        W31110  13.183  10.793  14.408 -0.1654 -0.0579  0.0831
12907W        W31111   2.591  13.255  11.378 -0.0148  0.1688  0.0069
12908W        W31112   0.131   3.569  14.196 -0.2174 -0.5759  0.2735
12909W        W31113   2.767   7.789  12.438 -0.0832  0.1517 -0.0973
12910W        W31114  12.022  12.019  11.909  0.1104 -0.1311  0.3456
12911W        W31115  16.755   7.648  12.403 -0.1707 -0.1841  0.2114
12912W        W31116  11.430   2.968  12.785 -0.0740 -0.3918 -0.0113
12913W        W31117   0.205  15.206  14.561 -0.2091  0.1462 -0.2784
12914W        W31118  16.748  15.698   3.944  0.0154  0.3916 -0.0525
12915W        W31119   7.211  18.263  11.202  0.0800  0.2102 -0.0073
12916W        W31120   6.706   2.537   2.020 -0.3191 -0.1111  0.0487
12917W        W31121  12.715  13.436   1.374  0.1789  0.0942 -0.0018
12918W        W31122   3.263   8.131   3.026  0.2909  0.1208 -0.3653
12919W        W31123   7.232  10.118   0.994 -0.2041  0.1927  0.3173
12920W        W31124   5.525   8.350   5.082 -0.1688 -0.0453 -0.0964
12921W        W31125   3.830   5.857   1.234  0.1175 -0.3707 -0.1708
12922W        W31126  13.713   7.899  10.806  0.1473 -0.1282 -0.2743
12923W        W31127   5.214   0.806   4.205  0.0706 -0.0818 -0.0530
12924W        W31128   0.374   8.037   2.501 -0.2452  0.1279 -0.0474
12925W        W31129   8.000  12.831  12.154 -0.2394  0.2601  0.0976
12926W        W31130  17.319  18.126   3.066  0.0971 -0.0275 -0.1869
12927W        W31131   0.871   1.025  14.655  0.1204  0.1103  0.1154
12928W        W31132  17.274   9.738  14.798 -0.0669  0.2923 -0.3322
12929W        W31133  14.290  14.842  15.286 -0.0006  0.0799  0.2104
12930W        W31134   4.975   1.494  15.459 -0.0582  0.3289 -0.1406
12931W        W31135  16.693   6.526   3.908 -0.1186  0.0499 -0.1267
12932W        W31136   4.971   3.767   0.981 -0.2011 -0.0330  0.2220
12933W        W31137  13.493   6.454   0.986  0.2272 -0.1121 -0.0199
12934W        W31138  15.045   5.448   1.721  0.0300  0.0627 -0.0863
12935W        W31139  15.241   6.786   3.091 -0.1332 -0.0713 -0.1042
12936W        W31140   2.330   3.419   5.161 -0.0405 -0.1093  0.3368
12937W        W31141   7.642  14.318   0.072 -0.0744 -0.0261 -0.4793
12938W        W31142   2.685  13.599  11.926  0.1216  0.1459 -0.0713
12939W        W31143  16.641  16.224   3.987 -0.1820  0.1848 -0.0581
12940W        W31144   8.640   3.700   3.389 -0.0971 -0.2183 -0.1951
12941W        W31145   8.468   2.276   0.619  0.0066  0.0358 -0.1330
12942W        W31146  13.122   4.343  15.510 -0.1188  0.2486  0.2300
12943W        W31147   9.225  12.027   2.813 -0.0643 -0.3265 -0.1674
12944W        W31148   6.004  11.927   4.806 -0.0113  0.1817  0.1769
12945W        W31149   9.096   9.463  14.416 -0.0986  0.1275 -0.0338
12946W        W31150   0.161   3.052  11.926 -0.2095  0.0358 -0.1816
12947W        W31151  15.057   4.833  11.609  0.0838  0.0440  0.2590
12948W        W31152   3.851  13.116   2.010  0.2508  0.0242  0.1184
12949W        W31153   7.184   2.270  14.973  0.1933  0.2178 -0.2420
12950W        W31154  16.876   2.191  12.993  0.0198 -0.0345  0.1603
12951W        W31155   7.219   6.790   4.527 -0.2605  0.1449  0.0490
12952W        W31156  16.869   0.507   1.017  0.0820 -0.0803 -0.1011
12953W        W31157   6.378   3.727   3.325 -0.1699  0.0679 -0.0060
12954W        W31158   4.441   9.291   3.849 -0.0271  0.1917 -0.1115
12955W        W31159   1.223  13.420  12.211 -0.1178  0.0542 -0.0751
12956W        W31160  18.065  12.014  13.489 -0.0185 -0.3333 -0.1770
12957W        W31161  17.916  14.848  12.262 -0.0633 -0.7998 -0.2831
12958W        W31162   2.878   4.392   4.421  0.1645  0.0216  0.2713
12959W        W31163   4.450   4.353   3.219 -0.0319 -0.0605  0.0855
12960W        W31164   2.002   9.919  14.772 -0.0636 -0.0921 -0.2835
12961W        W31165   1.358   6.209   3.334  0.0226 -0.0635  0.0643
12962W        W31166  17.457  11.580   1.850  0.1562  0.1223  0.1646
12963W        W31167   3.749   1.778   1.636  0.1475 -0.1525 -0.1962
12964W        W31168  12.220  10.577  10.524  0.0951  0.0251  0.1172
12965W        W31169   4.258  10.047   2.324  0.3543 -0.1122  0.0518
12966W        W31170   9.342   9.892   3.863  0.0406  0.1868 -0.2233
12967W        W31171  17.766   3.742  12.761 -0.0383 -0.2841  0.1753
12968W        W31172  13.446   7.589  12.046 -0.1133  0.3728 -0.2479
12969W        W31173  13.982   2.369   5.258  0.0396 -0.1019  0.1236
12970W        W31174   9.339   5.957   1.734 -0.0503  0.0070  0.3911
12971W        W31175   6.611   1.132   4.681 -0.3472  0.3792 -0.1054
12972W        W31176   7.861  17.916  13.158 -0.0103 -0.0923 -0.2290
12973W        W31177  14.932   0.523   2.037  0.0742 -0.2672 -0.0178
12974W        W31178  16.739   8.845   1.743  0.0139 -0.0197 -0.1654
12975W        W31179   8.105  16.589  14.991  0.0676 -0.0749  0.0854
12976W        W31180   9.113   4.020   1.766 -0.1631  0.1633  0.2344
12977W        W31181  17.332  10.519  13.358  0.3265 -0.4141 -0.3165
12978W        W31182  14.779  12.277  13.549  0.0682 -0.0805  0.1386
12979W        W31183   0.375  13.492   1.250  0.2346 -0.0263 -0.0526
12980W        W31184   8.797   5.426  10.336 -0.1194  0.0218 -0.0202
12981W        W31185   6.490   9.452   1.264  0.1456 -0.0861 -0.2093
12982W        W31186   5.666  17.732  13.367 -0.0117 -0.3420  0.1901
12983W        W31187  16.018   0.855  10.462  0.1144  0.0598 -0.0387
12984W        W31188  17.498   7.502   3.450 -0.1240  0.1437  0.1822
12985W        W31189  12.448   4.004  14.510 -0.0509  0.1387  0.0655
12986W        W31190   8.406   0.959   5.028  0.1486  0.1416 -0.0521
12987W        W31191   3.427   3.963  11.271 -0.0124 -0.0343  0.0786
12988W        W31192  15.701  13.019  14.466  0.0435  0.2454 -0.1138
12989W        W31193   8.881  13.010   1.237 -0.1481  0.2098 -0.1769
12990W        W31194   6.039   0.862  10.215 -0.0867  0.1292 -0.1562
12991W        W31195   0.656  17.010  15.026  0.0426  0.1144  0.2359
12992W        W31196  10.312   1.727   0.153  0.0039 -0.1697  0.0662
12993W        W31197   7.070  18.179  10.706  0.1490 -0.1537  0.1198
12994W        W31198  11.858  11.501  10.598  0.1598  0.0854  0.1109
12995W        W31199   3.928   5.110   1.165  0.1594  0.3147  0.2753
12996W        W31200  11.955   2.308   2.339  0.2437  0.1523  0.1536
12997W        W31201  14.181  11.629   1.208 -0.0854  0.0235  0.3079
12998W        W31202  15.641  10.842   4.515  0.0796 -0.1524  0.0883
12999W        W31203  13.839   2.177   3.439  0.1697 -0.2171  0.1062
13000W        W31204  16.929  17.198   1.931 -0.0796 -0.4413  0.1328
13001W        W31205  13.527   2.163  11.470 -0.0008  0.0440 -0.0512
13002W        W31206   3.369  13.031   2.561 -0.2600  0.1268 -0.1281
13003W        W31207   7.059  13.281   2.809  0.2678 -0.0540  0.1423
13004W        W31208   5.186   4.053  13.006 -0.4429 -0.0532 -0.3708
13005W        W31209   6.740   2.830  12.502  0.1160 -0.2553  0.1592
13006W        W31210   3.929  16.583   2.573  0.3168 -0.6093  0.2173
13007W        W31211   7.906   0.959  12.473  0.0499  0.2965 -0.1593
13008W        W31212   0.075  15.398  10.813 -0.1152 -0.0670 -0.3356
13009W        W31213  16.220  15.621  14.930 -0.1197  0.0963 -0.0239
13010W        W31214   6.386  11.895  12.741 -0.0981 -0.0717 -0.1228
13011W        W31215   5.627  13.806   3.644 -0.0185 -0.2293 -0.0318
13012W        W31216   5.469  13.131  14.011  0.0936  0.1021  0.0613
13013W        W31217  14.060   2.457   9.801  0.2179  0.0724  0.2156
13014W        W31218   7.040  18.152  13.275  0.1548 -0.0389 -0.0757
13015W        W31219  15.857  10.844  14.242  0.0774  0.1581  0.0766
13016W        W31220   5.361  11.373   0.174  0.1886 -0.0938 -0.0941
13017W        W31221   6.463  13.032  12.083  0.0105 -0.1918 -0.1849
13018W        W31222  12.104   1.101  11.936  0.1062 -0.2546  0.1339
13019W        W31223   2.759   6.629   2.874  0.0023 -0.0967 -0.1470
13020W        W31224   1.974   6.804  13.375  0.1022 -0.0200 -0.1657
13021W        W31225   8.857  16.305  11.564 -0.1798  0.1883  0.2780
13022W        W31226   4.342   5.614  13.164 -0.3754  0.1123  0.2454
13023W        W31227   8.022   2.003  14.100 -0.1507  0.1984 -0.1293
13024W        W31228   2.924  14.155  13.865  0.5160  0.0754  0.2157
13025W        W31229   8.387   0.762   3.826 -0.1136  0.3381 -0.1956
13026W        W31230  15.603  10.419   2.994  0.1169 -0.1499  0.1347
13027W        W31231  11.224  15.976   3.523  0.0905  0.1848  0.2881
13028W        W31232   4.748   4.396  14.445  0.0674 -0.4317  0.0922
13029W        W31233  18.305   5.016  11.519  0.1136 -0.0197  0.3418
13030W        W31234   4.768   6.449   2.849  0.0318 -0.1813  0.3226
13031W        W31235   2.156   0.972   4.437 -0.0089 -0.0455  0.1662
13032W        W31236  15.350   4.358   2.870 -0.1729  0.0684  0.5300
13033W        W31237  18.024   1.522  14.795  0.0625  0.1206  0.1234
13034W        W31238   1.030   7.530   4.033 -0.1538  0.1917 -0.2132
13035W        W31239  13.815   3.779  14.836  0.0875  0.0185 -0.2489
13036W        W31240   7.857   3.857   1.874  0.0870 -0.0114 -0.2357
13037W        W31241  14.293   5.883  11.887 -0.1042  0.0276  0.1824
13038W        W31242   7.742  12.379  12.266 -0.2115 -0.0789  0.2899
13039W        W31243   4.063  17.199   1.336  0.2913  0.0712  0.4428
13040W        W31244   0.214   2.035  12.631  0.1480 -0.0358  0.0022
13041W        W31245   3.597  16.550  11.847  0.2368 -0.3225 -0.0792
13042W        W31246  14.755  16.846   2.647 -0.0891  0.4986  0.0747
13043W        W31247  15.384   7.633  14.200  0.0813  0.2165 -0.1446
13044W        W31248  17.125   1.370  14.725  0.0991 -0.3252  0.0162
13045W        W31249  11.708  14.919  13.903 -0.0232  0.3079  0.0488
13046W        W31250  10.950   1.510  11.326  0.2648  0.0984 -0.3967
13047W        W31251   3.889   6.901   3.630  0.0566 -0.0839 -0.0862
13048W        W31252   2.069   0.407  13.418  0.0550 -0.0709  0.2375
13049W        W31253  12.840  12.146   3.305 -0.1253 -0.1561  0.0889
13050W        W31254  16.607   9.763  12.400  0.1173 -0.0840  0.1044
13051W        W31255  17.588  18.195   4.222 -0.2950 -0.3959  0.1485
13052W        W31256   7.054  15.310   3.633 -0.0027  0.1492  0.1800
13053W        W31257   5.744   5.815   4.469 -0.4852  0.0459  0.1366
13054W        W31258  13.242  13.290   4.075 -0.2148  0.0338 -0.0786
13055W        W31259   5.815   2.249  14.148  0.0549  0.0107  0.0846
13056W        W31260  12.775   9.632  11.629 -0.1614  0.2094 -0.0694
13057W        W31261   9.907  15.325  15.663  0.3502  0.0588  0.1396
13058W        W31262  18.367  14.741  12.457 -0.1631 -0.1928 -0.2808
13059W        W31263   3.690   4.076   3.527 -0.1484  0.1126 -0.1387
13060W        W31264   8.301   8.699   1.438  0.0214 -0.0269  0.2079
13061W        W31265  12.554   3.282  12.451  0.0276  0.1092  0.0704
13062W        W31266   2.770  14.433   3.561 -0.2263 -0.0093 -0.3901
13063W        W31267  16.106   5.128  12.030  0.2633 -0.0411 -0.0607
13064W        W31268  14.036   4.610   4.214  0.0393  0.0687 -0.1449
13065W        W31269   1.725  15.657  13.345  0.2046  0.0656  0.1479
13066W        W31270  11.754  12.103   1.090  0.0326  0.3632 -0.1361
13067W        W31271  11.281   9.116  12.548 -0.0839  0.1414 -0.0415
13068W        W31272  18.327  15.431   3.782  0.0300 -0.0086 -0.5070
13069W        W31273  13.252   9.843  14.249  0.1960 -0.2836  0.0843
13070W        W31274  15.021  10.307   0.460 -0.3292 -0.0594  0.2748
13071W        W31275  12.870   0.771  10.884  0.2394 -0.1204  0.0404
13072W        W31276   8.508  11.136   1.000  0.1085  0.1181 -0.4364
13073W        W31277   3.392  10.797  11.985  0.1645  0.1302  0.0676
13074W        W31278   4.863  14.377  11.658 -0.3099 -0.3112  0.1539
13075W        W31279   7.541  13.738  13.651  0.1873 -0.2477 -0.1108
13076W        W31280  14.605  10.230   0.997 -0.2111  0.0854 -0.0670
13077W        W31281   5.329  10.623   2.684 -0.0840  0.0087 -0.1473
13078W        W31282  16.610   0.816   2.460  0.3340 -0.2541  0.0384
13079W        W31283   9.936  13.438   2.906  0.0793 -0.0266 -0.0119
13080W        W31284   7.439   2.895   3.888 -0.1430  0.1527 -0.2304
13081W        W31285   1.476   5.299  14.935 -0.0858 -0.0329 -0.0418
13082W        W31286   0.388   8.949  15.314 -0.0279 -0.0898  0.2725
13083W        W31287  18.154  14.017  15.253  0.4796 -0.2654  0.0449
13084W        W31288   1.109   3.501  11.632 -0.0429 -0.1005 -0.2547
13085W        W31289  11.387   6.415  11.927  0.0977  0.1355  0.0692
13086W        W31290   5.213   6.961   1.418 -0.0709  0.1150 -0.3781
13087W        W31291  15.645   4.171  13.251  0.2201 -0.0026  0.1294
13088W        W31292   2.739  14.170  15.661  0.3522  0.1472  0.2525
13089W        W31293  15.240   7.752  13.375  0.0043  0.1139  0.0199
13090W        W31294   3.333  16.384   4.385 -0.0313  0.3391  0.0816
13091W        W31295  12.039  14.727   1.686 -0.1719  0.0984  0.0650
13092W        W31296  12.786   8.624   4.821 -0.0152 -0.2278 -0.2291
13093W        W31297   2.911   7.476   2.114 -0.2729  0.0004  0.1196
13094W        W31298   0.521   6.918  13.195 -0.1051 -0.0863 -0.2091
13095W        W31299   1.739   6.255   2.748 -0.0548  0.1758 -0.0542
13096W        W31300  11.955  14.437   3.087 -0.0547 -0.1782 -0.1796
13097W        W31301  13.130   6.130  15.610  0.1073  0.1628  0.1873
13098W        W31302   7.892   3.136   3.715 -0.0199  0.1307 -0.1859
13099W        W31303   4.348   7.915   9.790  0.2485 -0.1640 -0.5318
13100W        W31304  17.254   8.825  11.237  0.1222  0.2555  0.4357
13101W        W31305  13.263  13.584   4.529  0.2091  0.0812  0.2221
13102W        W31306   2.701   3.454   4.340  0.1209 -0.2616 -0.2778
13103W        W31307   6.753  15.329   0.161  0.0594 -0.1455 -0.3237
13104W        W31308   6.867   1.812  10.151 -0.2417 -0.1580 -0.1018
13105W        W31309  18.372  15.434   0.541  0.1580 -0.1104  0.1061
13106W        W31310  18.345  10.518  15.604 -0.0106  0.1208 -0.3587
13107W        W31311   3.803  15.957   1.277 -0.2460 -0.2398 -0.1083
13108W        W31312  11.950  13.977   2.884  0.2153  0.0126 -0.0734
13109W        W31313   3.410  10.610  12.857 -0.2592  0.0499  0.0041
13110W        W31314   1.775  17.582  14.695 -0.2539  0.0234  0.0280
13111W        W31315   6.186   3.060  14.819 -0.3061 -0.0427  0.0350
13112W        W31316   0.451  14.679   0.191  0.2382 -0.1067  0.2169
13113W        W31317   9.771   1.541   3.572  0.2457  0.3571 -0.0168
13114W        W31318   8.241  11.380  10.109  0.1164  0.0740  0.0096
13115W        W31319  12.982  12.092  11.907 -0.0347  0.2039  0.2944
13116W        W31320  15.065  14.973   3.006  0.2474 -0.0408  0.0180
13117W        W31321   9.715   2.857   0.682  0.2691 -0.0583  0.1739
13118W        W31322  17.296  14.609   3.147 -0.1410 -0.3904  0.2113
13119W        W31323   4.980   4.388   0.423 -0.1628  0.1270  0.2831
13120W        W31324  14.504  15.719  15.360  0.1523 -0.1201 -0.0403
13121W        W31325  17.944  15.596   0.196 -0.3823  0.2724  0.1233
13122W        W31326  16.075  14.732  13.898 -0.0952  0.0643  0.4864
13123W        W31327   4.832   2.479   3.160 -0.0368 -0.2074  0.0576
13124W        W31328  11.911   1.671  11.437  0.0089 -0.0445  0.3430
13125W        W31329   4.971   5.520   4.783 -0.3781 -0.0919  0.0050
13126W        W31330   3.741  11.412  11.894  0.0393 -0.3609  0.1974
13127W        W31331  13.294  13.199   2.169  0.1334 -0.0722  0.1088
13128W        W31332   9.781   6.664   0.426 -0.1390 -0.2532 -0.1847
13129W        W31333  10.993  17.616  12.258 -0.0902 -0.1317 -0.1163
13130W        W31334  10.451   8.915   2.880 -0.2062 -0.0211  0.0188
13131W        W31335  17.537  10.618   2.057 -0.1464 -0.3420 -0.1465
13132W        W31336  17.871  17.124   4.502  0.0356 -0.1580  0.2874
13133W        W31337   3.091   3.539   4.661  0.1657 -0.3442  0.1096
13134W        W31338   4.218  13.638   1.008  0.2548  0.2852  0.0227
13135W        W31339   6.781   7.806  14.115 -0.1235  0.1299  0.0935
13136W        W31340   5.473  15.815   1.777 -0.0508 -0.4032  0.0781
13137W        W31341   5.699   9.307   0.512  0.2453  0.2178  0.0721
13138W        W31342  13.350   9.965   1.472  0.1230  0.2380 -0.0785
13139W        W31343  13.757   5.359  13.443 -0.0762 -0.3116  0.1443
13140W        W31344   8.865   2.823  12.222 -0.1719 -0.1113 -0.1163
13141W        W31345   1.459  17.997  13.879 -0.0107 -0.3247  0.1995
13142W        W31346   7.388   8.609  15.335  0.0431 -0.0688  0.0453
13143W        W31347  16.472  10.234  13.220  0.1713 -0.0284  0.1852
13144W        W31348   5.134   6.559   0.609 -0.1465  0.2588 -0.1751
13145W        W31349   0.300  17.971  11.938  0.0028 -0.0273 -0.1930
13146W        W31350   7.847  18.214  15.261  0.0396 -0.0741 -0.1236
13147W        W31351   9.351  14.431   5.593 -0.2704 -0.1557 -0.1109
13148W        W31352  15.971   9.718  14.984  0.1746  0.0584 -0.2130
13149W        W31353   6.813   0.418   4.328 -0.0100  0.0878  0.1464
13150W        W31354   4.233  15.078  12.138  0.1349  0.0876 -0.0114
13151W        W31355  13.177  13.104  10.899 -0.0409  0.3542 -0.0724
13152W        W31356   3.045   1.016   0.716  0.0761  0.0053  0.1863
13153W        W31357   4.983  16.162   3.865 -0.1298  0.0678 -0.0343
13154W        W31358   2.032   7.057  10.981  0.1252  0.0500 -0.2842
13155W        W31359  17.189  11.155   0.346  0.2656  0.4545  0.1439
13156W        W31360   7.966  11.153  13.703  0.3177  0.0330  0.1692
13157W        W31361  15.836   1.030   0.308  0.0657 -0.0286  0.1874
13158W        W31362   6.496  11.060   0.743  0.0342  0.1078  0.0564
13159W        W31363  16.372  12.347  15.442 -0.0974  0.1220  0.2056
13160W        W31364   2.808   1.231  12.638 -0.4351 -0.0470  0.4361
13161W        W31365  12.110   6.237  14.193  0.0838  0.0656  0.3115
13162W        W31366  11.180   7.406  12.600  0.1582  0.1579  0.2443
13163W        W31367   0.929  15.693  14.951 -0.3923  0.0717 -0.0570
13164W        W31368  17.829  14.025   3.767 -0.1409 -0.1343  0.0220
13165W        W31369   9.702   8.278  14.506  0.0596  0.2225 -0.0323
13166W        W31370  13.610   0.140  12.200  0.2889 -0.2449 -0.3702
13167W        W31371   5.206   5.970   1.233  0.0979  0.0255  0.1472
13168W        W31372  11.870   5.946  13.480  0.0566  0.2612  0.2591
13169W        W31373   2.896  12.979  11.007  0.0159 -0.2289 -0.0281
13170W        W31374   8.944  18.111  14.951  0.1362 -0.0574  0.0359
13171W        W31375   5.027   4.968   3.137 -0.1970  0.0502  0.0744
13172W        W31376  15.803   8.702   3.591 -0.1626  0.0142  0.1020
13173W        W31377   0.552  15.355   4.878 -0.2086 -0.2112  0.0087
13174W        W31378   8.857   7.441  11.279  0.2609 -0.1883  0.1244
13175W        W31379   8.173   2.765   1.204 -0.2235 -0.1734 -0.2049
13176W        W31380   0.299  15.837   0.596 -0.0452 -0.0074 -0.0295
13177W        W31381  15.730   1.334  15.216 -0.1139  0.0893  0.0862
13178W        W31382  14.482   3.255  14.758 -0.2460 -0.1491  0.0568
13179W        W31383   7.914  16.958   1.957  0.0858 -0.1913  0.1592
13180W        W31384   7.318  10.026  12.572 -0.1417  0.0806 -0.2049
13181W        W31385   9.634   7.915   1.108 -0.4550 -0.0932  0.1301
13182W        W31386  17.341   5.408   2.265 -0.2028 -0.0775 -0.0491
13183W        W31387  18.108   2.595   1.504 -0.0793  0.0002 -0.2206
13184W        W31388  17.629   2.564  11.481  0.2966  0.1281 -0.1686
13185W        W31389   3.976   6.102   0.778 -0.0363  0.1444 -0.1526
13186W        W31390   6.813   3.604  13.717  0.1267  0.0189 -0.0132
13187W        W31391   8.408  17.364  15.438 -0.0939 -0.2451  0.2657
13188W        W31392   1.585  12.087  12.338 -0.1764 -0.0931  0.0613
13189W        W31393  14.783  15.008  13.063 -0.1879  0.0700 -0.2391
13190W        W31394  15.084  10.309   3.412 -0.4126  0.1630 -0.2945
13191W        W31395   5.718   8.186   3.148 -0.0117  0.2663  0.3932
13192W        W31396   0.766   1.132   2.899  0.1204 -0.5196 -0.2338
13193W        W31397  17.518   7.927   3.843  0.2381  0.1643  0.0607
13194W        W31398   5.844   8.269   3.637  0.0649  0.0321 -0.1860
13195W        W31399   1.029   1.028   1.986 -0.1872  0.0689  0.1488
13196W        W31400   5.320   8.293   1.741 -0.1384 -0.1884  0.1246
13197W        W31401  16.155   9.248   0.469  0.0395 -0.1776  0.1266
13198W        W31402  16.643  14.514   2.201  0.2266 -0.0912 -0.0911
13199W        W31403  18.267   2.784  15.266 -0.2069  0.0647  0.1522
13200W        W31404  10.683   4.981   0.452  0.0019  0.2402 -0.0785
13201W        W31405   4.914  18.317  13.236  0.0742 -0.0525  0.1317
13202W        W31406   8.672   1.509  12.111 -0.0524  0.0440 -0.2456
13203W        W31407  15.206  12.163   1.252 -0.0675 -0.0049  0.0602
13204W        W31408  14.200   7.647   0.954 -0.1552  0.1248 -0.3186
13205W        W31409   8.361   6.672   1.689 -0.1768 -0.0851  0.0637
13206W        W31410  11.661  12.506  15.470  0.0291  0.1387 -0.1292
13207W        W31411   6.474   4.072   1.065 -0.0753  0.0087 -0.1616
13208W        W31412   3.529  14.204   1.171  0.1694  0.1916  0.3124
13209W        W31413   2.993   7.781   4.063  0.1242  0.0877  0.1222
13210W        W31414  12.697   8.546  12.555 -0.1381 -0.0573 -0.2499
13211W        W31415   8.317  13.795  14.614 -0.0146  0.1111 -0.0768
13212W        W31416  13.875  12.618   2.718  0.0691 -0.1226 -0.2688
13213W        W31417  14.756  16.186  11.060 -0.0340  0.1317 -0.3812
13214W        W31418   2.871   1.666   1.178 -0.1462 -0.2974 -0.0102
13215W        W31419   1.474   6.145  11.298  0.1977  0.1661 -0.2324
13216W        W31420  11.995   4.994  13.538 -0.0020 -0.2539 -0.0671
13217W        W31421   2.672   5.241   5.736 -0.0571 -0.0386 -0.0721
13218W        W31422   1.438  17.996   0.676 -0.4371 -0.1831 -0.2226
13219W        W31423   7.020  15.330   2.240  0.0814 -0.2816  0.2480
13220W        W31424  17.734   5.217   0.335 -0.1193 -0.0666  0.0593
13221W        W31425  17.851  16.634   0.157  0.2923  0.1825 -0.3357
13222W        W31426  14.910   6.669   5.992 -0.1187  0.0660 -0.0296
13223W        W31427   5.108   0.661   1.081 -0.2301 -0.2897  0.3708
13224W        W31428   2.616  16.189   9.891  0.2576  0.1496 -0.2947
13225W        W31429   4.367   1.966  11.336 -0.1493  0.0773 -0.2007
13226W        W31430   8.122   7.224   0.919 -0.0302  0.1321  0.3741
13227W        W31431   1.578  14.883  14.318  0.2405  0.0078  0.1110
13228W        W31432   7.956   8.867   4.046  0.0668 -0.0905 -0.0428
13229W        W31433  13.740  17.007   1.802  0.2866 -0.1840  0.1908
13230W        W31434  17.073  11.223  15.525 -0.0526  0.0474  0.0931
13231W        W31435   9.055   4.085  14.947 -0.0168 -0.0614 -0.0273
13232W        W31436  11.648   8.319   3.415  0.2548  0.2142  0.1235
13233W        W31437  17.041   3.865   0.606 -0.1040 -0.1591 -0.3310
13234W        W31438  13.539   5.694   4.689 -0.2165 -0.2971 -0.3118
13235W        W31439   4.131   5.550  11.311 -0.2352  0.1817  0.0013
13236W        W31440  10.034   1.753   0.697 -0.2050 -0.1269 -0.1022
13237W        W31441  13.672   1.368  14.919 -0.1845 -0.0731  0.0152
13238W        W31442   5.614  17.219  13.075 -0.1785  0.1505  0.2944
13239W        W31443   2.527  15.163  11.446  0.0587  0.0008 -0.4450
13240W        W31444  17.946  14.348   1.519  0.1191 -0.0241 -0.2875
13241W        W31445   1.978   1.042  12.548  0.1487 -0.0737  0.2327
13242W        W31446  14.086   8.700  13.948 -0.2104  0.3258  0.0740
13243W        W31447   4.906  17.619  15.172 -0.0200 -0.1737 -0.2212
13244W        W31448  14.628   4.062   3.195 -0.1797  0.0169 -0.2243
13245W        W31449  13.246   3.409   0.770  0.1470  0.0961 -0.1182
13246W        W31450  14.086  14.584   0.543 -0.1890 -0.0295  0.5363
13247W        W31451  18.202  18.222  14.163  0.0118  0.2999  0.1739
13248W        W31452   6.101  14.568  11.117 -0.0034  0.0051 -0.1290
13249W        W31453   4.549  15.443  11.503  0.1651  0.1661  0.2070
13250W        W31454   1.433   4.160  11.336  0.2665  0.2157  0.1166
13251W        W31455  18.190  15.541  14.600  0.0978  0.2707 -0.0938
13252W        W31456  16.590   8.399  15.102 -0.1802  0.0438  0.1459
13253W        W31457  15.896  11.673   2.999  0.2183  0.2015  0.1082
13254W        W31458   7.388   9.461  10.819 -0.0693 -0.0004  0.2262
13255W        W31459   6.300   3.911  11.027 -0.2495  0.2023 -0.0429
13256W        W31460  10.269   0.242   4.218 -0.0522 -0.0292  0.3121
13257W        W31461  12.063   6.267   4.311 -0.0812  0.0469 -0.2145
13258W        W31462   1.139  12.257   4.427  0.0747  0.2205  0.0238
13259W        W31463   9.341  16.626  13.330  0.0670  0.1674  0.0035
13260W        W31464   3.457  14.018   0.379  0.0510  0.4383 -0.1831
13261W        W31465   1.807  10.479   0.838  0.1452 -0.0597  0.0753
13262W        W31466  14.863   0.655  14.964 -0.0488  0.4072  0.1441
13263W        W31467  13.276   3.928  12.546 -0.1165  0.1285  0.3157
13264W        W31468   4.513  10.320   2.012  0.0512 -0.0440  0.0824
13265W        W31469  17.096  10.115  13.188 -0.0515  0.0841 -0.0420
13266W        W31470  11.909   5.307   0.597  0.1546  0.0607  0.0359
13267W        W31471  11.239   5.461   2.610  0.3033 -0.1781  0.0290
13268W        W31472   6.279  10.828   5.246  0.0256  0.0444 -0.0722
13269W        W31473  17.764   1.660  11.793 -0.2819  0.0527  0.0453
13270W        W31474   5.492   6.229  10.901 -0.1566 -0.1152  0.0784
13271W        W31475   4.159   0.942   0.587  0.2006 -0.0755  0.2129
13272W        W31476   7.231   9.869   4.730  0.0112 -0.0904 -0.1308
13273W        W31477  10.414   1.713   1.025  0.2700  0.0038  0.0466
13274W        W31478  10.868   4.824  13.801  0.0252 -0.1455  0.2379
13275W        W31479   3.044   4.034  11.671 -0.0064 -0.1610 -0.1047
13276W        W31480   1.902  12.787  11.237  0.2787 -0.1775 -0.2084
13277W        W31481   5.445  12.673   4.293 -0.1991 -0.1882  0.1613
13278W        W31482  15.789   2.974  15.615 -0.1677  0.0390 -0.0497
13279W        W31483  13.155  15.906  12.784  0.0479 -0.0766 -0.3419
13280W        W31484  15.028   9.832  13.700  0.2436  0.2196 -0.1963
13281W        W31485   4.410   0.470  14.650  0.1369 -0.0936  0.4115
13282W        W31486  14.735   9.803   1.484  0.3092 -0.2173 -0.2169
13283W        W31487  17.368   0.751   4.102 -0.1930 -0.3392 -0.2198
13284W        W31488   6.666  18.073   0.563  0.1381 -0.2474 -0.0246
13285W        W31489  11.123  13.556   3.869  0.3730  0.1029  0.0225
13286W        W31490  10.444  11.079  13.501  0.0503 -0.0822 -0.2903
13287W        W31491  16.944   6.619   0.367  0.0230 -0.2394 -0.0779
13288W        W31492  12.191  11.302   4.332 -0.4072  0.2290 -0.0981
13289W        W31493  15.421  14.642   0.863  0.2982 -0.0025  0.0029
13290W        W31494  16.957  17.312  13.999 -0.2886 -0.2782  0.0100
13291W        W31495   5.279   9.268  11.781 -0.0163  0.1674  0.2391
13292W        W31496   0.355  12.264  12.262 -0.0720 -0.3745  0.2736
13293W        W31497  17.455  17.723   3.377 -0.1814 -0.2711 -0.1235
13294W        W31498   7.302   0.394   4.235 -0.0808  0.4301 -0.0859
13295W        W31499  11.400   6.466   2.768  0.0682 -0.1314 -0.1056
13296W        W31500  13.642   3.974  12.208  0.0595  0.0817 -0.2194
13297W        W31501  10.526  12.936  15.688  0.0551 -0.1632  0.0639
13298W        W31502   2.915   7.142   0.393 -0.1183  0.2987 -0.1543
13299W        W31503  13.159  13.244   4.854  0.0598  0.3350  0.1887
13300W        W31504  10.974   9.019  12.033 -0.1287 -0.0711 -0.0935
13301W        W31505  15.854  14.060   3.979  0.1875 -0.1165  0.0365
13302W        W31506   9.074  16.768   0.272  0.2788  0.0939  0.0479
13303W        W31507   3.580   7.456  13.257  0.4261 -0.1388 -0.0073
13304W        W31508  10.278  12.615  12.720 -0.2081 -0.3588 -0.2389
13305W        W31509  14.127  11.398   2.914 -0.2744 -0.1025  0.1360
13306W        W31510  11.118   6.097  15.073  0.0150 -0.4259 -0.0633
13307W        W31511   8.756  15.135   1.351  0.1537  0.1978  0.0025
13308W        W31512   6.063   0.028   2.837 -0.0946 -0.0550 -0.0565
13309W        W31513   4.172  11.085  14.304  0.3145  0.0317  0.2020
13310W        W31514  17.848   6.496  12.150 -0.1666 -0.4009 -0.0121
13311W        W31515  15.572   0.685  13.444  0.0028  0.1345  0.3301
13312W        W31516   2.905  13.675   0.597  0.2084  0.0297  0.0043
13313W        W31517  10.758   1.071   3.228  0.1565 -0.0251 -0.0037
13314W        W31518   8.381   8.366  15.224 -0.0891 -0.0005  0.0392
13315W        W31519   1.995   3.315  14.404 -0.0516 -0.2018  0.1516
13316W        W31520  11.756   4.261   3.455  0.0957  0.0608 -0.2645
13317W        W31521  10.983   0.718   1.634 -0.1166  0.1900 -0.0756
13318W        W31522   8.929  17.956   2.194 -0.0869 -0.1365  0.3087
13319W        W31523   8.263   6.985   1.358 -0.1914  0.1721  0.0819
13320W        W31524  10.825  11.215  11.328  0.1126 -0.4341 -0.1003
13321W        W31525  10.101   9.211   3.050  0.1610  0.2580 -0.0571
13322W        W31526  14.599   4.223  12.230  0.5052 -0.0854  0.0381
13323W        W31527   3.672  13.483  10.224  0.0154  0.0599 -0.2506
13324W        W31528  15.254  16.167  15.490  0.1993  0.3203  0.2979
13325W        W31529   0.616   5.368  11.920 -0.1199  0.4447  0.0841
13326W        W31530   6.290  12.133  14.517  0.0614  0.2528 -0.2315
13327W        W31531  17.208   6.392  15.711 -0.0056 -0.0512 -0.1104
13328W        W31532  13.107   6.692   2.661  0.1844  0.1278 -0.1555
13329W        W31533  15.127  10.251  14.498  0.4765  0.0387  0.1784
13330W        W31534  11.274   6.433   3.663  0.0392 -0.3548  0.1196
13331W        W31535   4.591  17.295  13.742 -0.1562  0.0939 -0.1220
13332W        W31536   7.336   2.296   3.032  0.1309 -0.0668  0.1661
13333W        W31537   2.915   3.715  13.383 -0.0462 -0.0629  0.0463
13334W        W31538  16.611   2.021  13.942 -0.1356  0.1743 -0.0155
13335W        W31539  10.122  18.373  15.472  0.1866 -0.0622  0.2098
13336W        W31540   6.820   5.087   4.503 -0.2430 -0.0990 -0.2000
13337W        W31541   2.771  18.060  15.614 -0.1150 -0.3615  0.2772
13338W        W31542   6.385   3.707  12.224 -0.1767 -0.4029  0.1357
13339W        W31543  12.619   4.618   1.018 -0.3207 -0.1352 -0.1279
13340W        W31544   4.623   2.104  13.789 -0.1957  0.1333 -0.0845
13341W        W31545   8.689   1.331  15.306  0.1155 -0.2815 -0.1209
13342W        W31546   6.691   4.754  14.638 -0.0900  0.1419  0.0675
13343W        W31547   6.925  16.198   4.268 -0.0568 -0.4190 -0.1357
13344W        W31548   1.127   1.389   0.856 -0.0284  0.2410 -0.1452
13345W        W31549   6.678  11.853  13.628  0.0669 -0.0400  0.0417
13346W        W31550   9.352  16.142   9.984 -0.4439  0.0748  0.2326
13347W        W31551   5.007  12.340  14.697 -0.1198  0.2264 -0.1832
13348W        W31552  18.034   4.260  11.528 -0.0622  0.0129 -0.0454
13349W        W31553  17.505  14.967   3.482  0.0560  0.1099  0.0333
13350W        W31554  13.712   1.035  12.787  0.0658 -0.1029 -0.0240
13351W        W31555   0.242  14.420   3.935 -0.2032  0.0492  0.0681
13352W        W31556  15.981  17.487  14.679 -0.1429  0.0165  0.1010
13353W        W31557   8.420  15.648  12.220  0.0092 -0.0197 -0.0889
13354W        W31558   6.929   6.592   1.065  0.2979 -0.2222 -0.2604
13355W        W31559   8.985  15.116   2.282  0.1185 -0.1534  0.1232
13356W        W31560   0.089   9.328  14.449 -0.2361  0.5490 -0.3351
13357W        W31561   0.855  17.842   4.131  0.1419 -0.1292  0.1389
13358W        W31562   7.136   3.669   3.694  0.3648  0.0115 -0.2996
13359W        W31563   8.771  10.448   4.177  0.0322  0.0610 -0.2653
13360W        W31564   3.201   8.228   4.263  0.0937  0.0645 -0.0804
13361W        W31565   5.751   8.364  12.799 -0.1152  0.0272 -0.1575
13362W        W31566  14.397  17.769  11.968  0.0432  0.0472 -0.0409
13363W        W31567   9.851   2.220   2.240 -0.1440 -0.3623  0.1501
13364W        W31568  15.898   7.854   4.297  0.3939 -0.0757  0.1092
13365W        W31569   3.261  10.390  12.392  0.1663 -0.1288  0.0900
13366W        W31570  11.878  18.269   3.248 -0.0640 -0.1947  0.0500
13367W        W31571   7.956   5.973  11.471  0.0973  0.0977 -0.0593
13368W        W31572   9.427  13.025   3.249  0.0749  0.2658  0.3707
13369W        W31573  10.322   5.490   1.527  0.5461  0.3208 -0.2970
13370W        W31574   9.702  15.474   1.692 -0.0429 -0.3019  0.2804
13371W        W31575  16.270   6.490   1.018  0.0566  0.1309  0.4444
13372W        W31576   6.594   9.599   2.384 -0.1479  0.2534  0.0824
13373W        W31577  10.250   3.135  13.339  0.1719 -0.0877  0.1285
13374W        W31578   0.485  17.807   4.539 -0.0827  0.2970  0.0431
13375W        W31579  16.428  11.646  10.994 -0.1785 -0.0886 -0.1423
13376W        W31580   6.662   0.670   4.801 -0.2457  0.2981 -0.1358
13377W        W31581   0.181   0.004   0.009  0.0923 -0.2767  0.1176
13378W        W31582   2.130  12.958  15.081  0.1831 -0.2583 -0.2072
13379W        W31583   6.794  16.192  11.096 -0.2807  0.0462  0.1925
13380W        W31584  11.662  12.280  12.099 -0.3691  0.0704  0.1263
13381W        W31585   8.590  15.540   1.110 -0.2359  0.1558  0.1501
13382W        W31586   3.269   9.094  10.606 -0.0187  0.2201 -0.0046
13383W        W31587  13.446  17.218   0.398  0.1786  0.1517  0.3552
13384W        W31588  13.316   5.769  15.245 -0.0933 -0.2247  0.6650
13385W        W31589   0.390  11.211   0.794 -0.2651  0.0001 -0.1882
13386W        W31590  12.488   4.006  12.049 -0.2626 -0.1445 -0.2074
13387W        W31591  16.045   9.019  12.229  0.0722  0.0602  0.0785
13388W        W31592  13.963  17.614   1.241 -0.2083 -0.1672 -0.2853
13389W        W31593   4.279  10.650   1.748 -0.3074  0.0915 -0.1678
13390W        W31594  17.112  12.599   3.952 -0.0873 -0.1223 -0.1455
13391W        W31595   8.675   2.925  14.472  0.1100 -0.4321 -0.0534
13392W        W31596  16.694  12.771  15.439 -0.0094  0.0404  0.2000
13393W        W31597   5.772  18.081  11.021 -0.0978  0.0427 -0.1579
13394W        W31598   8.408   9.158   0.015 -0.1421  0.0161  0.0426
13395W        W31599   9.591   9.370   3.034 -0.0928  0.1889  0.1128
13396W        W31600  13.639   7.764   3.173  0.3414  0.2470  0.2861
13397W        W31601  17.537   0.865   2.241 -0.1954 -0.0652  0.1849
13398W        W31602  13.943   7.545  11.541 -0.1302  0.0502 -0.2941
13399W        W31603  16.356  17.555   1.093  0.0651 -0.1574 -0.1017
13400W        W31604  12.841   0.319  13.103 -0.2621 -0.1439 -0.0745
13401W        W31605   4.976  11.573  12.527  0.2639 -0.1440  0.1214
13402W        W31606  10.318  15.874   5.665 -0.3388 -0.3960 -0.2798
13403W        W31607  18.202   8.541  11.420  0.0515 -0.0725  0.0237
13404W        W31608   3.905   9.370  11.201 -0.4041  0.2496 -0.0973
13405W        W31609  12.877   0.405  13.959 -0.1715 -0.2371 -0.0290
13406W        W31610  16.380  12.041  14.199 -0.1009  0.0324 -0.3177
13407W        W31611  13.939  18.293  10.010  0.0913  0.2497 -0.1755
13408W        W31612  15.649   2.486   0.600 -0.1888  0.0868  0.1677
13409W        W31613  14.761   5.051   1.633  0.0402 -0.1968 -0.2289
13410W        W31614   2.526  18.333  13.547 -0.0741  0.3524  0.0530
13411W        W31615   3.202   1.358  13.842  0.0803 -0.0897  0.0474
13412W        W31616  14.261  16.998   4.956 -0.0514 -0.1966  0.1373
13413W        W31617  17.675  15.568  12.116 -0.0071  0.1199  0.2428
13414W        W31618  14.401   4.874  14.069 -0.4640  0.1624  0.1272
13415W        W31619   2.233   0.621   0.067 -0.1158  0.2146 -0.1960
13416W        W31620   8.625  16.491   4.409  0.1842  0.1993  0.0950
13417W        W31621  10.511   9.137   4.914 -0.2396  0.0381  0.2772
13418W        W31622   3.999   8.895   1.393 -0.0605 -0.1038 -0.0263
13419W        W31623   3.712   9.576  14.949  0.0928 -0.0737  0.0910
13420W        W31624   5.452   8.819   1.716 -0.2414 -0.1974  0.3276
13421W        W31625  11.460  17.905  15.381 -0.0281 -0.0248 -0.2344
13422W        W31626   5.957  13.824   2.716  0.1263  0.0840 -0.0247
13423W        W31627   9.056   0.186  11.021 -0.1233 -0.0371  0.1345
13424W        W31628   9.116  10.201   5.156 -0.1350  0.1127  0.0907
13425W        W31629  14.193   5.607   1.060  0.1663 -0.4177 -0.0165
13426W        W31630   7.950  10.966  14.768  0.1636 -0.0300  0.1134
13427W        W31631  18.041   4.596  10.258  0.0519  0.2452 -0.0600
13428W        W31632  10.600   6.175   1.505  0.0686  0.1043 -0.1822
13429W        W31633   6.129  15.112  14.684 -0.3159  0.0500  0.0450
13430W        W31634   3.532  15.317   0.178  0.2856 -0.0945 -0.2205
13431W        W31635   1.538   3.075  14.505 -0.1992 -0.5446  0.0957
13432W        W31636   1.160  11.724  14.088 -0.0349 -0.1543 -0.1615
13433W        W31637   3.023  11.905   1.829  0.1345  0.2178  0.2292
13434W        W31638   1.363  17.716   3.982 -0.0871  0.0479 -0.0725
13435W        W31639   0.094  16.090  12.186 -0.3165 -0.0065 -0.0988
13436W        W31640   8.771  10.496   3.619  0.2210  0.3121  0.2057
13437W        W31641   2.180  13.714  11.599  0.0398  0.1548  0.2639
13438W        W31642  16.913   2.513  12.535  0.2816 -0.0163  0.0698
13439W        W31643   7.328   5.016   1.945  0.1173  0.0532 -0.0555
13440W        W31644  13.119   7.421   4.017 -0.0199 -0.0421  0.2556
13441W        W31645  16.259  13.772   0.383 -0.0994  0.1754 -0.1037
13442W        W31646   2.708   0.253   2.513 -0.0127  0.0786 -0.3142
13443W        W31647  12.302   5.627  12.769  0.0487 -0.0927 -0.0622
13444W        W31648  11.598  15.074   3.477  0.1928 -0.4193 -0.1103
13445W        W31649   5.394   4.824   4.360 -0.4338  0.1763 -0.1052
13446W        W31650  16.659   2.169   1.829  0.0089  0.3717 -0.0199
13447W        W31651  13.842  14.819   1.795  0.2746  0.0389  0.4505
13448W        W31652   5.275  13.755   1.241  0.0690 -0.0588  0.0052
13449W        W31653  17.398   6.698  14.465 -0.1932  0.1808  0.1731
13450W        W31654   4.226  16.924  15.658  0.0182  0.1140  0.1942
13451W        W31655  15.900   8.151  13.861 -0.0034  0.0057  0.2336
13452W        W31656   3.583   1.656  14.731 -0.3597 -0.0573  0.2060
13453W        W31657   9.858  14.563  12.465 -0.0496 -0.0079 -0.2848
13454W        W31658   9.825  12.648   2.023  0.1348 -0.1161 -0.1069
13455W        W31659   8.393  10.851   2.806  0.1107  0.2978  0.0176
13456W        W31660   9.161   0.971  15.091  0.0489 -0.2703 -0.2736
13457W        W31661   2.080   2.330   3.178  0.1439 -0.2632  0.0178
13458W        W31662  13.094   3.155   3.460  0.1243 -0.0853  0.0360
13459W        W31663   2.495   5.726   0.269  0.2053 -0.0929  0.0515
13460W        W31664   8.375   5.581  14.410  0.1087  0.0141  0.0124
13461W        W31665  16.900   2.704  12.101  0.0446  0.0088 -0.1338
13462W        W31666   6.751   8.521  11.402 -0.0445  0.0132  0.1681
13463W        W31667   8.633   0.435   1.541 -0.1883  0.0945 -0.4215
13464W        W31668   3.464   1.984  12.679 -0.0947 -0.0260 -0.0998
13465W        W31669  17.970  12.513   3.693  0.1287  0.0214  0.0216
13466W        W31670   3.725  13.806  13.882  0.1161 -0.3042  0.0910
13467W        W31671   4.138  13.797  15.072  0.1154  0.0505  0.0099
13468W        W31672  13.278   3.005   2.960 -0.0584 -0.0772 -0.2636
13469W        W31673  14.962  14.553  13.075  0.2457  0.0081 -0.0668
13470W        W31674  12.659  11.689  12.192  0.2097 -0.4677  0.0392
13471W        W31675  15.626   5.072  11.808 -0.2203 -0.1686  0.2173
13472W        W31676  17.823  16.274   2.324 -0.0812 -0.0641  0.1331
13473W        W31677   9.770  15.168  11.979  0.0077 -0.1410 -0.0362
13474W        W31678   7.679  14.362  11.128  0.1785  0.0581  0.2163
13475W        W31679   4.327   1.161   3.068 -0.1320 -0.1359 -0.1241
13476W        W31680   8.153   2.802  13.851 -0.2374  0.5008  0.2832
13477W        W31681  13.955  13.172  12.803  0.0821 -0.1467  0.1401
13478W        W31682   1.722   2.645  14.840  0.1929 -0.2013 -0.1481
13479W        W31683  17.224   8.222   0.335 -0.0798 -0.0490  0.2010
13480W        W31684   9.066   6.582   3.947 -0.2156 -0.0373 -0.0151
13481W        W31685  16.409   2.789  12.306 -0.1226 -0.3182 -0.0986
13482W        W31686  11.584   4.955   0.664  0.2386  0.0133  0.0239
13483W        W31687   6.753   9.524   1.677 -0.5432 -0.2182 -0.1676
13484W        W31688  16.711  10.022   4.552 -0.0570 -0.0693  0.1148
13485W        W31689   3.328   8.855  15.485 -0.1093 -0.0668 -0.0741
13486W        W31690   1.914   6.598  11.449  0.2472 -0.1369  0.0666
13487W        W31691  15.595  12.611  14.208  0.0123 -0.2412 -0.0178
13488W        W31692  17.320  14.900   1.099 -0.0370 -0.1603 -0.2603
13489W        W31693   4.360  13.928  12.816 -0.0366  0.1057  0.0664
13490W        W31694   6.484  12.472   0.410  0.3456  0.1922  0.0887
13491W        W31695   4.393  13.021  12.378 -0.2810 -0.1401  0.2009
13492W        W31696   7.193   2.906   0.463  0.0298  0.0637 -0.1582
13493W        W31697  13.444  15.003   1.543  0.0398  0.1029  0.3814
13494W        W31698  14.668   0.409   4.525  0.1415  0.0898 -0.0625
13495W        W31699   6.621   4.668   4.853  0.1199 -0.1003  0.2169
13496W        W31700   6.358   1.891   2.608  0.1407  0.1303  0.0954
13497W        W31701   5.773   5.151   2.565 -0.1274  0.2539  0.1349
13498W        W31702  17.051   9.342  11.784 -0.4744  0.1056 -0.2326
13499W        W31703  11.447  16.230  13.710  0.1156 -0.4502  0.1947
13500W        W31704   2.861   7.415   1.606  0.0975  0.0715 -0.0923
13501W        W31705   2.080   6.724   0.605  0.0305  0.0369  0.1018
13502W        W31706  11.762  14.855  14.459 -0.0522  0.0562  0.1420
13503W        W31707   0.339   8.472   2.881  0.0845  0.0845 -0.3273
13504W        W31708  16.437   5.187  11.657 -0.1908  0.2515 -0.0131
13505W        W31709  17.550  12.421   3.064 -0.0643  0.1283  0.0659
13506W        W31710   7.457   6.163  12.624 -0.1298 -0.1601 -0.2532
13507W        W31711  16.587   2.674   0.386  0.0782 -0.2070  0.1620
13508W        W31712   8.500   7.902   2.155 -0.1218 -0.0918 -0.1828
13509W        W31713  16.016   9.540  10.794 -0.0557 -0.1835 -0.1796
13510W        W31714  16.940   1.681   4.996  0.1734  0.1165  0.0301
13511W        W31715   1.186   1.183  14.295 -0.0824  0.1250  0.1956
13512W        W31716   0.147  17.135  11.997  0.0067 -0.0351  0.2475
13513W        W31717   6.009   4.860   1.001 -0.1629  0.0380 -0.1195
13514W        W31718   0.826   8.138  15.034  0.0309 -0.0193  0.0823
13515W        W31719   4.228   5.811  12.670 -0.0678  0.0137 -0.3517
13516W        W31720   6.144   1.111  15.487 -0.1258  0.1637  0.4157
13517W        W31721   1.946   0.910   0.966 -0.1542  0.0923 -0.0867
13518W        W31722   0.413   2.900  15.055  0.0144 -0.2004  0.2122
13519W        W31723  11.039   3.740   2.676 -0.0173 -0.1199  0.0831
13520W        W31724  16.708   4.809  14.646  0.2293  0.1148 -0.0050
13521W        W31725  11.256  13.012  14.655 -0.1344  0.0145  0.2151
13522W        W31726  10.015   0.691   3.430  0.1258 -0.1733  0.2384
13523W        W31727   3.331   1.803   1.949  0.0846 -0.0146  0.1247
13524W        W31728  17.918   8.548  13.683 -0.2179 -0.1178  0.1538
13525W        W31729   6.844   9.295  11.132 -0.2759  0.1063  0.0419
13526W        W31730   1.068   9.572  12.502  0.1710 -0.0186 -0.1293
13527W        W31731   1.620  12.194  14.300 -0.0764  0.2086  0.1765
13528W        W31732   2.024  17.112   4.491 -0.0030 -0.4549 -0.2023
13529W        W31733   5.153  17.839   0.901 -0.0378  0.1718  0.0579
13530W        W31734  15.693   8.904  11.463  0.2153  0.1214 -0.0195
13531W        W31735   4.146  14.986   1.564 -0.0121 -0.0997 -0.0411
13532W        W31736  11.328   7.865   0.924  0.3630 -0.0370  0.1317
13533W        W31737   1.680   2.944  15.362  0.0184  0.3335  0.0670
13534W        W31738  15.416   2.907   1.812  0.0917  0.0869 -0.0180
13535W        W31739   3.870  18.097  14.008 -0.1235  0.0893  0.0999
13536W        W31740   4.849   5.944  12.489  0.1945 -0.0664 -0.1048
13537W        W31741  15.801  12.278  11.581 -0.0171  0.2399  0.3054
13538W        W31742  15.085   7.137  13.956  0.0380 -0.0668  0.1440
13539W        W31743   2.908  15.062   1.302  0.0745 -0.0163  0.3824
13540W        W31744   6.151   7.381  11.277  0.1734 -0.0474  0.2528
13541W        W31745   4.533   8.059   2.939 -0.0705 -0.2434 -0.0408
13542W        W31746   7.956   6.316   5.058 -0.0507  0.1169 -0.0629
13543W        W31747  13.675   2.431   0.876  0.0276 -0.1443 -0.1736
13544W        W31748  10.279  17.148  14.947 -0.0228 -0.1216 -0.1607
13545W        W31749   0.247  18.276   1.103  0.1172 -0.1709 -0.1934
13546W        W31750  17.918   6.848   0.610 -0.4405  0.2531 -0.0795
13547W        W31751   1.008  14.590   0.466  0.2553 -0.0078 -0.1580
13548W        W31752   2.889  13.334   2.689  0.0883  0.0569  0.3574
13549W        W31753  14.493   6.701  13.359  0.1371  0.2184 -0.2501
13550W        W31754  10.564  16.361  12.192 -0.2476  0.0325 -0.1592
13551W        W31755  13.465  17.871  14.585 -0.0867 -0.1009 -0.0445
13552W        W31756   0.414   7.309  12.926  0.0548 -0.0587  0.0013
13553W        W31757   8.256   3.814   0.672  0.3612 -0.0118  0.1009
13554W        W31758   3.530   3.805   3.939  0.1215 -0.2428 -0.0688
13555W        W31759  15.143   5.117  11.147 -0.0416  0.1339 -0.2568
13556W        W31760   2.164  12.750  12.546 -0.1305 -0.3539 -0.3466
13557W        W31761  12.307  10.758   4.321  0.0943  0.0058 -0.1212
13558W        W31762  14.444  14.552  13.167 -0.1464 -0.0346 -0.2263
13559W        W31763  13.845  15.441   0.618 -0.2202  0.0154 -0.3377
13560W        W31764   2.159   0.577  12.894 -0.1410  0.0496 -0.1773
13561W        W31765  11.532   7.689  13.173 -0.0838 -0.3576  0.2673
13562W        W31766   3.461  10.510  14.248  0.3714  0.2194  0.0021
13563W        W31767   6.075   5.512   4.712 -0.2420  0.0484 -0.1408
13564W        W31768   7.205  13.378  13.702 -0.0960  0.0007  0.3116
13565W        W31769   1.197  17.480  12.573 -0.2322 -0.0690 -0.0987
13566W        W31770   3.024  13.941  14.342  0.4043 -0.2599 -0.2055
13567W        W31771   6.215   2.047  11.084 -0.0268 -0.1490 -0.0201
13568W        W31772   9.441   8.046   2.396  0.0341  0.0334 -0.2684
13569W        W31773   3.027   0.031  15.382  0.0329  0.0041  0.1183
13570W        W31774   1.967   1.504  12.207 -0.2750  0.1090  0.2347
13571W        W31775  14.627   8.975  12.072 -0.1925  0.0889 -0.3256
13572W        W31776   4.935   0.647  10.789  0.0054  0.1566 -0.0580
13573W        W31777   4.631   3.541   2.654 -0.0343  0.0431 -0.2274
13574W        W31778   1.566   6.445   2.331 -0.1778  0.0437  0.1990
13575W        W31779  12.987  11.005   2.525 -0.0747 -0.0938  0.0600
13576W        W31780   1.145   8.715   0.945  0.0946  0.4543 -0.1031
13577W        W31781  15.470   4.857   1.160  0.0379  0.2366 -0.3185
13578W        W31782   9.444   3.930  12.516  0.1482  0.0781 -0.3826
13579W        W31783  17.649   2.935  12.102  0.2679  0.0608  0.2367
13580W        W31784   5.773  11.158  13.674 -0.2938  0.2219 -0.0958
13581W        W31785  15.395   5.789   3.814  0.1176 -0.0291  0.1939
13582W        W31786  14.101   3.720  12.445  0.1658  0.0425 -0.0921
13583W        W31787  13.120   8.824   2.588  0.1291 -0.1885  0.0190
13584W        W31788   5.969  13.388  14.702  0.0024 -0.4438 -0.3108
13585W        W31789   5.996  15.547  12.654  0.0504  0.3089 -0.3103
13586W        W31790  17.719   1.098   5.478  0.1592  0.2571  0.1330
13587W        W31791  14.762  13.662  14.012  0.0710  0.1511  0.0108
13588W        W31792   9.480  17.745   5.471  0.1639 -0.1488 -0.2057
13589W        W31793   9.103   1.388  11.762 -0.0920  0.0951 -0.1541
13590W        W31794   9.471  14.125  15.709 -0.0247  0.1011  0.2344
13591W        W31795  15.072   5.635   0.228  0.3394 -0.0298 -0.1872
13592W        W31796   9.686   8.775  12.659  0.1281  0.1031  0.0341
13593W        W31797  12.242   1.062   1.122 -0.0434  0.2878 -0.3709
13594W        W31798  15.375   0.509   1.811 -0.3294 -0.1512  0.1343
13595W        W31799  12.597   6.431   3.620  0.0866  0.3221  0.1686
13596W        W31800   7.287  13.380   3.780  0.1397 -0.1858  0.0660
13597W        W31801   2.161   1.991  11.356 -0.1018 -0.2726  0.0221
13598W        W31802  14.114  17.298  13.160 -0.1072 -0.6077 -0.0660
13599W        W31803   4.717   3.494   4.489  0.1978 -0.0738 -0.0274
13600W        W31804   1.137   7.495  12.339 -0.1091 -0.0763  0.1904
13601W        W31805   8.522  17.157  14.958  0.0716 -0.2751  0.2661
13602W        W31806  16.733   7.596   3.827  0.0785 -0.0518  0.0184
13603W        W31807   1.635   4.420  13.853 -0.0230 -0.0474 -0.2465
13604W        W31808  10.014   7.261  14.487 -0.0290 -0.4517  0.2737
13605W        W31809  15.318  18.259   4.335 -0.4700  0.2416 -0.3684
13606W        W31810  10.753  11.469   3.135  0.0218  0.0381 -0.0324
13607W        W31811  15.536  16.029  11.811  0.3908  0.2865 -0.0936
13608W        W31812   5.663   3.003   3.604 -0.3907 -0.3235  0.0694
13609W        W31813   6.911   4.961   2.271  0.2519  0.1395 -0.0753
13610W        W31814  14.706  13.649   5.613 -0.1799  0.1246  0.1695
13611W        W31815   7.311  10.581   1.324 -0.1765  0.0034  0.0885
13612W        W31816  12.810  17.428  13.581  0.1540 -0.1821 -0.0009
13613W        W31817  10.414  12.793   5.127  0.0498 -0.0013  0.0507
13614W        W31818   2.349   5.153  12.197 -0.2258 -0.0120  0.1876
13615W        W31819   2.345   5.882  15.513 -0.0888  0.0708 -0.2506
13616W        W31820  17.522  18.366   1.907  0.1631  0.0510  0.0528
13617W        W31821  12.148   8.724  11.673  0.0431 -0.1384 -0.1791
13618W        W31822   6.975   0.410   1.353  0.1616 -0.2455  0.2187
13619W        W31823   0.584   1.623   3.607  0.0047  0.1079 -0.1229
13620W        W31824   4.784   7.302  13.881 -0.2108  0.1366 -0.1037
13621W        W31825   1.787  11.993  15.197 -0.0861 -0.0554 -0.0064
13622W        W31826   5.924  14.293  14.938  0.0774  0.2411 -0.2693
13623W        W31827  10.904  15.621   0.884  0.4024  0.1287  0.2732
13624W        W31828   0.740  12.015   1.982  0.0531 -0.3478  0.0374
13625W        W31829  18.345   4.309  12.522 -0.1804 -0.0101 -0.0024
13626W        W31830   9.064   9.944   2.361 -0.1396  0.0531 -0.3645
13627W        W31831  11.946  10.060   4.165  0.0340 -0.1002 -0.0681
13628W        W31832   0.289   9.691  13.617 -0.2879 -0.0100 -0.1214
13629W        W31833   1.232   9.318   1.195  0.2555  0.2422  0.2115
13630W        W31834   3.391   3.089  11.599 -0.2477 -0.0109  0.1016
13631W        W31835   8.957  13.608   1.252  0.1931  0.2772 -0.0769
13632W        W31836  14.825   8.253   2.918 -0.0830  0.1092  0.1416
13633W        W31837  13.772  16.181  13.861 -0.0209  0.0635 -0.0371
13634W        W31838  12.085   8.698   5.184  0.0570 -0.0218  0.1103
13635W        W31839   6.461   4.021   0.178 -0.1702 -0.3709  0.1311
13636W        W31840   7.752   1.011   0.682  0.4642  0.0235  0.0051
13637W        W31841  15.372  13.931   3.828 -0.1352  0.0246 -0.1145
13638W        W31842   7.039   7.597   4.571 -0.0588  0.1301  0.1933
13639W        W31843   2.183   1.682   1.278  0.1384 -0.0157  0.0405
13640W        W31844   5.677   4.614   2.574  0.0895  0.3808  0.4151
13641W        W31845  11.992  10.329  13.139  0.4058  0.0640 -0.0925
13642W        W31846  16.075   0.032  13.620  0.1595  0.2881  0.0782
13643W        W31847   0.590  10.675  11.974 -0.0550  0.1854 -0.2504
13644W        W31848  16.912  13.727  14.333  0.0759 -0.0705 -0.2742
13645W        W31849  12.181   6.019  14.671  0.2138 -0.1904  0.0242
13646W        W31850   7.542  10.157   4.180  0.2124  0.1597  0.1110
13647W        W31851  16.250  13.710  11.296  0.1042 -0.1795  0.0475
13648W        W31852   2.732  13.085  11.860  0.1541  0.0240  0.2009
13649W        W31853   0.533  13.569   4.480  0.1836  0.0197 -0.0557
13650W        W31854   3.638   1.701  13.936  0.1951 -0.1387 -0.0549
13651W        W31855   1.097  13.024  13.530 -0.1178  0.3721 -0.2303
13652W        W31856   1.904   4.591   0.400  0.1301  0.0589  0.2242
13653W        W31857  11.814  17.146   4.519  0.1876 -0.0335 -0.0378
13654W        W31858  15.613   1.842  15.222  0.2059  0.2133 -0.4371
13655W        W31859   9.637  12.070  13.427 -0.2884 -0.2581  0.2367
13656W        W31860   4.600   4.891   1.886 -0.3159 -0.5022  0.1053
13657W        W31861   8.232  18.217   0.294  0.4162 -0.2340 -0.0770
13658W        W31862   9.765   9.245  12.347 -0.1019 -0.0824 -0.0011
13659W        W31863   3.311  10.954  14.374  0.3513 -0.3611 -0.1641
13660W        W31864  12.693  10.535   0.492 -0.0846 -0.2101  0.0798
13661W        W31865   2.695  17.195  14.404 -0.1901 -0.2218  0.0790
13662W        W31866  11.962  13.776   4.796  0.0202  0.1467 -0.0807
13663W        W31867   6.116   8.116   1.595  0.0936  0.0283 -0.0415
13664W        W31868  16.087   8.594  13.888 -0.0901 -0.3108  0.0979
13665W        W31869   6.089   4.432  15.117  0.2329  0.4420  0.0277
13666W        W31870   9.537   1.824  15.503  0.1061 -0.0494 -0.0395
13667W        W31871  18.347  17.507  14.188  0.2686 -0.0225  0.0355
13668W        W31872   9.742   5.643  15.367 -0.3135 -0.1487  0.0966
13669W        W31873  14.366   7.632   1.916 -0.1237  0.1500 -0.0119
13670W        W31874   0.591  11.702   0.280 -0.1563 -0.1831 -0.0800
13671W        W31875  11.963  11.846  14.706  0.1442  0.1011 -0.0021
13672W        W31876  13.292   2.251  15.289  0.1464 -0.0825 -0.0053
13673W        W31877  14.598   9.461  12.213  0.3086  0.1066 -0.0654
13674W        W31878   7.044   5.891  10.939 -0.0923 -0.2288 -0.0082
13675W        W31879  10.970  12.353  14.165  0.3237  0.3381  0.1802
13676W        W31880  15.530  16.025  13.311 -0.1851  0.1813 -0.2868
13677W        W31881   8.833   8.965   1.232 -0.0394 -0.0258 -0.0698
13678W        W31882   5.535   0.068  12.429  0.1880  0.1302  0.0485
13679W        W31883  13.229  11.693  15.710 -0.0799  0.2942 -0.0683
13680W        W31884  11.058   8.038  15.293 -0.1791 -0.1885  0.1972
13681W        W31885  12.832   9.655   0.721 -0.0161  0.0327  0.0412
13682W        W31886  16.944  12.097   4.101 -0.2052 -0.0636  0.0160
13683W        W31887  11.003  14.937  13.143 -0.0102  0.0804  0.0651
13684W        W31888  10.300   5.119   3.971 -0.2366 -0.3704 -0.2139
13685W        W31889  18.046  14.816  13.351  0.3247 -0.2101  0.0767
13686W        W31890   4.865  14.279   1.106 -0.1905 -0.1430  0.2581
13687W        W31891   0.838   6.473  14.922  0.4012  0.1028 -0.2468
13688W        W31892   8.544   0.955  14.702 -0.3223 -0.0670 -0.1457
13689W        W31893  17.815   2.020  14.674  0.1043 -0.1731 -0.0865
13690W        W31894   5.706   2.697   1.455  0.0577 -0.2052  0.2158
13691W        W31895  13.747  15.705  11.480  0.3181  0.0519 -0.0062
13692W        W31896   1.558   1.124   1.863 -0.0220  0.2226  0.1253
13693W        W31897  13.664  15.825   0.050  0.0370  0.0161  0.2112
13694W        W31898   3.991   3.166  12.890  0.1134  0.0817  0.0287
13695W        W31899   9.188   1.469   2.350  0.1874 -0.2683 -0.0827
13696W        W31900   2.319   6.863   2.729 -0.0325  0.0476 -0.1444
13697W        W31901   4.089   3.308   0.506  0.2345 -0.2015  0.2476
13698W        W31902   8.232   9.164  13.559  0.1980 -0.2072 -0.2528
13699W        W31903   4.701   9.064   4.725 -0.0258 -0.1371  0.4534
13700W        W31904  12.504  17.484   4.110 -0.2872  0.4943 -0.1869
13701W        W31905   9.870   5.179   2.995 -0.1073 -0.1111  0.1601
13702W        W31906  10.490  14.097   4.229 -0.0819  0.1879  0.1312
13703W        W31907  13.459   1.770  15.169  0.1450 -0.0782  0.1079
13704W        W31908   8.223   9.007   0.509  0.4851  0.1708  0.1787
13705W        W31909   9.558   2.590   1.989  0.0446  0.1670 -0.1350
13706W        W31910  17.042  12.374   4.466  0.0398 -0.0455  0.1212
13707W        W31911  13.278  14.288   0.109 -0.0754  0.1101  0.1175
13708W        W31912  14.751  12.613   2.906  0.2435 -0.2518 -0.1409
13709W        W31913   6.640  11.043   4.479 -0.1414  0.3008 -0.1642
13710W        W31914  12.210  10.804  14.317  0.1308 -0.0416 -0.3202
13711W        W31915  18.128   4.611   0.826  0.3668 -0.0798  0.1814
13712W        W31916   4.644  13.209   2.902 -0.0233 -0.3412 -0.0864
13713W        W31917  15.671  11.092   4.009  0.0104  0.0729 -0.2131
13714W        W31918   1.204   4.213   3.494 -0.0441 -0.3265 -0.1501
13715W        W31919   8.518  11.923  11.632  0.2916 -0.3341 -0.1401
13716W        W31920   4.124   6.606  14.752  0.4741 -0.0627  0.0746
13717W        W31921   6.344  14.043   3.016  0.2629  0.5714 -0.1937
13718W        W31922   0.587   1.311  12.384  0.1486 -0.2526  0.2830
13719W        W31923   3.821   8.174  11.772  0.0578  0.0308  0.0126
13720W        W31924   6.729  10.056   3.180 -0.1337  0.0590  0.4378
13721W        W31925  15.144  13.199  12.680 -0.1961  0.0756  0.2963
13722W        W31926   9.440   7.101   0.311 -0.0729 -0.1262  0.0209
13723W        W31927  15.788  14.272   2.003 -0.1368 -0.2421 -0.2367
13724W        W31928   3.860   9.116   0.847  0.0742 -0.1079 -0.0051
13725W        W31929  15.056   6.020   3.519  0.2875  0.1668 -0.1915
13726W        W31930   5.496   9.529   1.565 -0.4492  0.0870  0.3762
13727W        W31931   5.987   1.540  12.742  0.1245 -0.1170 -0.2117
13728W        W31932  14.983  18.192   2.810  0.0297  0.1615 -0.0023
13729W        W31933   5.265   1.596   0.882  0.3156  0.1792  0.2052
13730W        W31934   8.061   0.690  13.593 -0.4536  0.0322 -0.3094
13731W        W31935  16.786   8.031   0.690 -0.0260 -0.2399  0.1916
13732W        W31936   5.252  12.875  14.903  0.0837  0.0876  0.1208
13733W        W31937  12.477  13.684   3.602 -0.1661 -0.0303  0.1639
13734W        W31938   4.418   8.045   1.387  0.0335  0.4030  0.0975
13735W        W31939   0.862   0.999   1.109 -0.1365 -0.2902  0.0606
13736W        W31940  15.722   9.252   0.832  0.2444  0.1113 -0.2120
13737W        W31941  14.111   7.664  13.226 -0.1885 -0.0897  0.0416
13738W        W31942   6.779   0.577   2.601 -0.1294 -0.0740 -0.0714
13739W        W31943  17.899  10.954  12.610 -0.0989  0.0700 -0.1196
13740W        W31944  14.568   2.313   2.956 -0.0239  0.1632  0.2094
13741W        W31945   3.737  11.344  15.223  0.0673 -0.2118  0.0158
13742W        W31946   8.447   2.305   0.144  0.0946  0.1453  0.2709
13743W        W31947  10.453   6.056  14.156  0.1745 -0.1223 -0.3879
13744W        W31948   8.712   9.550  11.493 -0.0855 -0.0507  0.4886
13745W        W31949   8.152  16.146   4.225 -0.0401 -0.0538  0.0982
13746W        W31950   3.362  13.331  13.327 -0.0515 -0.3799 -0.2988
13747W        W31951   5.075   7.501  13.575  0.0514 -0.2042  0.2076
13748W        W31952  15.706   5.721  12.902 -0.0506 -0.2906  0.1561
13749W        W31953  10.753  11.942  14.290  0.2117 -0.3099 -0.3899
13750W        W31954   2.765  15.713  14.111  0.1305  0.2122  0.0721
13751W        W31955   8.572  12.413   1.472 -0.0721 -0.1575  0.0226
13752W        W31956   0.081  16.190   0.199  0.1460  0.1115 -0.1312
13753W        W31957   8.925   4.182   3.246 -0.0180 -0.1326 -0.0089
13754W        W31958  16.956   9.563  13.401 -0.1373  0.2123 -0.1647
13755W        W31959   5.493  11.216  14.576 -0.0452  0.2524 -0.0241
13756W        W31960   2.784   9.467  14.563 -0.0718 -0.0991 -0.0814
13757W        W31961   8.562   9.531   3.601  0.1062  0.0655  0.0507
13758W        W31962   7.706   0.932   2.060 -0.0005  0.0023 -0.1525
13759W        W31963  12.354   3.873  13.813 -0.0317 -0.1003 -0.1547
13760W        W31964   5.285   1.700  13.502 -0.1298  0.2357  0.0218
13761W        W31965   8.459   9.663  14.862 -0.0160  0.1024  0.1808
13762W        W31966   4.164   5.709   2.011 -0.1361  0.2384  0.1279
13763W        W31967   8.566  15.861  11.340 -0.0519 -0.0050  0.0426
13764W        W31968   5.700   0.954   2.788 -0.0402 -0.1716  0.0849
13765W        W31969  10.394   0.755   1.674  0.1555  0.0309  0.2493
13766W        W31970   8.075  17.360   1.200  0.3497  0.1551  0.0604
13767W        W31971  12.940  16.540   4.173 -0.1333 -0.1765 -0.0333
13768W        W31972   2.102  13.318  12.449  0.0555 -0.0576  0.2180
13769W        W31973   8.047  13.665  11.958 -0.1604 -0.0985 -0.4093
13770W        W31974  16.046  17.351  13.511 -0.2237  0.1790 -0.0729
13771W        W31975   4.036  12.555  14.752 -0.0789 -0.1211  0.0084
13772W        W31976   7.785   6.310   4.615 -0.1567 -0.0660 -0.0840
13773W        W31977   6.356   5.338   4.336 -0.2993  0.3263  0.1581
13774W        W31978   2.048   8.108   4.440 -0.0836  0.0425  0.0723
13775W        W31979   3.744   7.919  13.395  0.0358 -0.0944  0.1131
13776W        W31980  10.846   6.249   2.819  0.0722 -0.0242 -0.2517
13777W        W31981  16.642   9.565   4.306 -0.1901 -0.1001  0.0729
13778W        W31982   3.390   0.394   2.948  0.0280 -0.2172  0.0131
13779W        W31983   7.992  12.569  15.093  0.1357  0.0346  0.2735
13780W        W31984   1.007   1.636   2.649 -0.0093  0.1682  0.1283
13781W        W31985  13.060  17.000   3.925  0.1909 -0.1097  0.0180
13782W        W31986   4.164  17.064   1.847  0.1595 -0.0996 -0.1134
13783W        W31987  11.590  16.221  12.357 -0.0054  0.0937 -0.2185
13784W        W31988   4.148   7.218  12.551  0.2361 -0.0029  0.0794
13785W        W31989  14.164   1.838   2.269 -0.2467 -0.2440  0.0081
13786W        W31990   3.452  10.790   3.678  0.0336 -0.1115  0.2623
13787W        W31991   3.922  11.234   2.976 -0.0528  0.1623  0.0110
13788W        W31992   1.582  15.284   3.955  0.2654 -0.1717 -0.3091
13789W        W31993   3.466  16.038  14.267  0.0015 -0.1760  0.0585
13790W        W31994  18.371   5.317   4.385 -0.0454 -0.0481  0.0048
13791W        W31995  10.173   7.321  11.161 -0.1569 -0.1105 -0.0696
13792W        W31996   3.316   8.026  11.870 -0.2527  0.3289 -0.0496
13793W        W31997   6.302  17.448   1.643  0.2649 -0.2236  0.1908
13794W        W31998  12.031  10.824   3.451  0.3014  0.0777 -0.0744
13795W        W31999   5.192   5.724  15.022 -0.2686 -0.1237  0.1116
13796W        W32000   4.870   2.101  14.317 -0.1691 -0.1823 -0.0559
13797W        W32001  18.318   1.276   2.916 -0.0915 -0.1559  0.1269
13798W        W32002  13.039   4.903  10.611  0.2581  0.0749 -0.0422
13799W        W32003   4.896   8.497  15.195 -0.0839  0.1996  0.0410
13800W        W32004   2.843  15.236  15.564 -0.2478 -0.0313  0.2104
13801W        W32005   6.170  12.605  15.724  0.1830 -0.0333  0.1600
13802W        W32006   0.107   0.003   5.405  0.0761 -0.2910  0.1891
13803W        W32007  16.015   1.697   2.238 -0.2806  0.2392  0.2426
13804W        W32008   7.018  12.636   3.682  0.0709 -0.1727  0.1546
13805W        W32009  11.668  14.333   1.669  0.0532 -0.1048 -0.0412
13806W        W32010   0.770   3.285   1.242  0.0489 -0.2332 -0.2350
13807W        W32011   6.646  17.361  11.636 -0.1234  0.1174  0.1160
13808W        W32012   9.011  13.245   1.940  0.0429 -0.1687  0.1834
13809W        W32013   2.214  17.331  12.621  0.0763  0.2277 -0.0023
13810W        W32014  17.014   4.188  13.980 -0.1098  0.0061  0.0294
13811W        W32015   7.791   0.625   0.336  0.1753  0.0084 -0.0609
13812W        W32016  12.137   8.233  10.597 -0.1764  0.1272 -0.4581
13813W        W32017  17.979   0.058  12.864 -0.0495 -0.0186 -0.0817
13814W        W32018   4.097   9.692  11.629  0.2751  0.1578  0.1150
13815W        W32019  13.365  13.349   2.725  0.0267 -0.1695  0.1417
13816W        W32020   8.344  13.563   4.278  0.3990 -0.1755 -0.1337
13817W        W32021  13.370  14.972  15.577 -0.1445  0.2904  0.0749
13818W        W32022  13.459  13.770  13.580  0.1599  0.3056  0.0973
13819W        W32023  10.002  15.738   4.640  0.0504 -0.3009  0.1265
13820W        W32024  13.643  15.546  12.494  0.0051 -0.0082  0.1746
13821W        W32025   7.056   5.672   4.641 -0.0353 -0.0479  0.1569
13822W        W32026  15.223   5.783   5.144 -0.0483 -0.0027 -0.0362
13823W        W32027  11.711   8.748   2.680  0.1751  0.0067  0.0070
13824W        W32028   9.707  11.077  10.367  0.0209 -0.2014  0.1113
13825W        W32029   6.216  14.704  11.606  0.0381 -0.1851 -0.0409
13826W        W32030   0.662  17.275  10.185 -0.0748  0.0123  0.0794
13827W        W32031  15.462   1.239  15.665 -0.1532 -0.0066 -0.2541
13828W        W32032  11.816   8.773   3.228 -0.0397  0.4846  0.1143
13829W        W32033  11.492  10.208   4.544 -0.0539 -0.0083 -0.1421
13830W        W32034  15.393   3.745  15.639  0.1523 -0.0920  0.1725
13831W        W32035  16.420  10.476   4.335  0.1589 -0.0742 -0.0811
13832W        W32036   5.757   7.750  11.199  0.1936  0.0254  0.0081
13833W        W32037   4.965   8.499  13.220 -0.0330 -0.0193  0.1224
13834W        W32038  15.586   5.235   2.927  0.1015 -0.0190 -0.0152
13835W        W32039   2.783  13.237   3.168 -0.0168  0.3049 -0.1619
13836W        W32040   9.279   2.792   4.204 -0.2944  0.0921  0.0207
13837W        W32041  17.839  13.311  14.035  0.1688  0.3047 -0.2615
13838W        W32042   8.942   8.071  14.054  0.2011 -0.1077 -0.0548
13839W        W32043  16.236  11.586   1.330 -0.1217  0.1941  0.2977
13840W        W32044  12.735   5.450   3.898  0.1595 -0.0149 -0.1169
13841W        W32045   9.575  14.525  14.662  0.0385 -0.1088 -0.1554
13842W        W32046   6.317  14.672  14.625 -0.0526  0.2220  0.1041
13843W        W32047   0.977  14.275  11.699  0.1130 -0.1774  0.3418
13844W        W32048  18.320  13.391  14.068  0.1072  0.1566 -0.0618
13845W        W32049   6.254  13.066  11.614  0.1409  0.0612 -0.0868
13846W        W32050   8.816  16.041   2.438  0.0143 -0.1290 -0.1006
13847W        W32051  10.265  13.277  12.734 -0.1172 -0.0199 -0.1142
13848W        W32052   5.649   5.485  14.515 -0.0648  0.2001 -0.1239
13849W        W32053   1.203  11.909   2.193 -0.0806 -0.5285  0.0879
13850W        W32054  15.349  12.906  14.947  0.1707 -0.0379  0.2116
13851W        W32055   7.517  12.370   5.411  0.1022 -0.1167  0.0653
13852W        W32056  18.021   6.032   2.274  0.0960  0.2789 -0.0105
13853W        W32057   9.453  17.385   0.965  0.3602  0.4144  0.2456
13854W        W32058   7.693  14.089  12.429  0.0176 -0.2017 -0.3262
13855W        W32059   3.469  10.320   1.749 -0.1158  0.1641 -0.1069
13856W        W32060  17.805   0.721   0.075 -0.0969 -0.1122  0.1331
13857W        W32061  12.205   2.350   3.386  0.0891 -0.0885  0.2379
13858W        W32062  15.949  13.556  14.213  0.2982 -0.0473 -0.1497
13859W        W32063  12.320  13.492   5.031 -0.2733  0.1213  0.0748
13860W        W32064   4.926  16.121  13.528  0.0012 -0.0405 -0.0861
13861W        W32065   4.863   2.594   2.556  0.3938  0.2153  0.0013
13862W        W32066   9.565   5.651  14.508 -0.0625  0.0737 -0.0428
13863W        W32067   2.357  10.856  13.453 -0.4515 -0.5015 -0.1652
13864W        W32068  11.970   6.738  13.400 -0.0092  0.3162 -0.1511
13865W        W32069  17.117  14.016  11.605 -0.0105  0.1609  0.0426
13866W        W32070  15.751  11.381   0.317  0.1064  0.0425  0.0947
13867W        W32071   3.979  12.828   0.571 -0.2626 -0.0941 -0.1386
13868W        W32072   4.768   3.976   4.521  0.1489 -0.0832 -0.2295
13869W        W32073   1.645  13.992  14.557  0.0778  0.1488 -0.2497
13870W        W32074  17.709  14.911  15.143 -0.0490  0.1094 -0.3077
13871W        W32075   6.184   6.158  15.490 -0.2031 -0.1677  0.1998
13872W        W32076  15.438  15.032   1.221  0.1777 -0.0165 -0.2369
13873W        W32077   8.092  11.227   2.811 -0.1638  0.0479  0.0534
13874W        W32078  12.354  10.451   3.609 -0.0558 -0.3350  0.0579
13875W        W32079  17.042   3.258   1.676  0.0551  0.2535 -0.0353
13876W        W32080   7.072  16.000   3.341  0.4241  0.0484 -0.0100
13877W        W32081  10.203   8.151   1.709 -0.2711  0.0816  0.1281
13878W        W32082   7.080  17.244  15.034 -0.0688 -0.1235  0.0184
13879W        W32083   4.628  10.388  10.003 -0.1603 -0.1178 -0.1536
13880W        W32084  14.512   0.716  15.387  0.1276  0.0264  0.0628
13881W        W32085  13.732   2.386  15.028 -0.2042  0.0364  0.0103
13882W        W32086   5.222   3.592  14.148 -0.0626 -0.0186  0.1015
13883W        W32087   8.184  10.693   0.121 -0.2583 -0.1183  0.0381
13884W        W32088   9.069  12.239   3.824 -0.0210 -0.1868 -0.0553
13885W        W32089  17.843   3.605   2.008 -0.0620 -0.0538 -0.4767
13886W        W32090  12.892  10.897  11.406 -0.1654  0.0089 -0.0118
13887W        W32091   2.004   1.681   0.794 -0.2498  0.1124  0.3787
13888W        W32092   7.692   8.294   4.733 -0.0820 -0.2053 -0.1073
13889W        W32093   4.118  15.972  10.853 -0.2750  0.0093 -0.1916
13890W        W32094  15.087   6.698   1.264  0.1891  0.4279 -0.0762
13891W        W32095   0.298   6.666   1.122  0.4283  0.0231 -0.3238
13892W        W32096   1.293   1.379   4.533  0.0371 -0.1108 -0.1525
13893W        W32097   1.713  18.376  14.180 -0.5201  0.3468  0.1667
13894W        W32098  16.438   3.970   1.754 -0.1015  0.1287 -0.1165
13895W        W32099   3.316  11.391   1.950 -0.0238  0.2017 -0.0865
13896W        W32100   6.907   7.945  14.971  0.0143  0.0633  0.1323
13897W        W32101   1.813  17.848   0.935  0.0977 -0.0758  0.0679
13898W        W32102  13.810   5.431   0.829  0.0523  0.0427  0.1651
13899W        W32103  12.218   1.962   4.011 -0.2070  0.2394  0.1173
13900W        W32104  12.615  10.403   4.548 -0.2370  0.0298  0.1452
13901W        W32105   7.971   0.238  14.967 -0.2575  0.1868 -0.0083
13902W        W32106   7.726  18.052   9.968 -0.2969 -0.0221  0.2536
13903W        W32107   2.433   5.032   2.442  0.1899 -0.1458 -0.2055
13904W        W32108   5.521   1.565   1.692  0.1488 -0.1189 -0.1591
13905W        W32109   6.482  11.918  10.916  0.0174  0.1144 -0.1450
13906W        W32110   4.209   6.829   5.639  0.1729 -0.2084 -0.0584
13907W        W32111  14.991  10.025  15.028 -0.1407  0.1307  0.2720
13908W        W32112  16.785  13.362   4.167  0.0358  0.2189  0.2139
13909W        W32113  16.900   8.900  12.102  0.0055  0.0024 -0.0179
13910W        W32114  14.772   7.961   1.631  0.1624 -0.0238  0.1835
13911W        W32115   1.299   2.876   2.186  0.1433 -0.1891  0.1349
13912W        W32116   4.058   4.831  14.546 -0.1263  0.1328  0.1085
13913W        W32117  10.780   0.389  14.356  0.5109  0.2307 -0.0189
13914W        W32118   2.354  10.895  12.203 -0.1218  0.0934 -0.0438
13915W        W32119   6.280  13.898  10.562  0.1549 -0.1262 -0.1465
13916W        W32120  13.648   5.250   2.907 -0.0451  0.0990  0.2832
13917W        W32121   7.209  14.792  15.112 -0.0875 -0.1148  0.1260
13918W        W32122  15.932  16.280  11.924 -0.0456 -0.2384 -0.2539
13919W        W32123  11.491  17.718   3.953 -0.0008  0.2703  0.3154
13920W        W32124  14.161   7.568  14.174  0.0886 -0.0582 -0.1467
13921W        W32125  10.487  15.188   2.151  0.0615  0.0270  0.5258
13922W        W32126  10.353  10.036  13.568  0.0847  0.1705  0.2777
13923W        W32127  16.821  13.140   2.602 -0.0721  0.0501 -0.3287
13924W        W32128   6.037   8.224  11.185  0.0449  0.1695 -0.1012
13925W        W32129   5.764  11.001  10.179 -0.0760 -0.2882 -0.2786
13926W        W32130  15.980   0.292   3.772  0.2079 -0.2737 -0.2035
13927W        W32131  14.761   2.471   2.050  0.1908 -0.1425  0.3242
13928W        W32132  10.102   8.725   3.207  0.0403  0.0157  0.0052
13929W        W32133  12.567  17.407  15.027  0.0562  0.0246 -0.1238
13930W        W32134  12.044   9.147   0.921  0.2699  0.3463  0.1192
13931W        W32135  12.449  15.334   4.248  0.3878 -0.2097 -0.1597
13932W        W32136   8.366   5.146  15.521  0.2540 -0.1363  0.0111
13933W        W32137  17.528  11.756  13.460 -0.2076  0.0281 -0.0611
13934W        W32138  15.115  17.311   0.274 -0.0699  0.1135  0.2358
13935W        W32139  12.381   7.884  11.569  0.0969 -0.2599  0.3354
13936W        W32140   0.978  17.836   0.926 -0.2715 -0.0760 -0.0701
13937W        W32141   5.310  13.074   3.868  0.1895 -0.0121 -0.2025
13938W        W32142   0.084  10.807   2.531  0.1079  0.1402  0.0888
13939W        W32143   8.984   9.097   4.364 -0.0436  0.0906 -0.1654
13940W        W32144   6.442   4.567  11.334  0.1184  0.3540  0.0253
13941W        W32145   2.165  13.580   0.716 -0.2308 -0.1129 -0.2697
13942W        W32146  11.684   2.034   2.700 -0.1205 -0.2406  0.2025
13943W        W32147  16.374  13.579   4.315  0.2097  0.0793  0.2264
13944W        W32148   0.065  10.311  12.952 -0.1531 -0.0793  0.1713
13945W        W32149  10.752  16.430  15.195  0.1815 -0.1494 -0.0090
13946W        W32150   1.514   6.894  15.645  0.1440 -0.4263  0.0480
13947W        W32151  14.253  14.266  12.694  0.0289  0.0493 -0.0182
13948W        W32152  16.859   7.519  11.199  0.1543  0.0641 -0.0080
13949W        W32153  12.848   7.732   3.714  0.0207  0.2630 -0.0270
13950W        W32154   6.869  10.146  15.074 -0.1244 -0.3286  0.0391
13951W        W32155  18.322   0.357   2.999 -0.0401 -0.1188  0.1624
13952W        W32156  15.916  16.254   3.708 -0.1995  0.1026 -0.0946
13953W        W32157   8.304  17.211   3.651 -0.1957  0.1482  0.0462
13954W        W32158  11.599  17.897   1.440  0.1819 -0.2619 -0.0003
13955W        W32159   4.779   7.120  14.743  0.0391 -0.1422  0.0966
13956W        W32160   3.383  10.787  15.597  0.2109 -0.0309 -0.1446
13957W        W32161  11.540  12.985   5.424 -0.0627  0.0579 -0.1665
13958W        W32162  10.484  16.451  15.630  0.1629  0.0413 -0.0197
13959W        W32163   9.833  17.758   0.619 -0.1640 -0.2442 -0.3490
13960W        W32164  10.846   2.440  11.288  0.0617  0.0410 -0.0436
13961W        W32165  14.474   9.163  12.562  0.1375 -0.0174  0.0707
13962W        W32166   6.383  10.840  10.770 -0.1287 -0.3483 -0.3871
13963W        W32167   0.494  17.114  14.567 -0.0534  0.2654 -0.2185
13964W        W32168  10.786  17.492   0.553  0.1937  0.0524 -0.1800
13965W        W32169  13.875   1.149   1.671  0.1909  0.1141  0.1703
13966W        W32170  15.571   1.753   3.742 -0.0639 -0.1666 -0.1166
13967W        W32171   0.753  14.732  14.093 -0.0069 -0.2917 -0.1270
13968W        W32172  12.087   7.005   0.062 -0.2396 -0.0033  0.0421
13969W        W32173   6.525   8.188   0.342 -0.0890  0.2697 -0.0982
13970W        W32174   3.341  17.583   0.285 -0.0426  0.1734  0.2430
13971W        W32175  15.925  15.121   0.336  0.3628 -0.0785  0.2049
13972W        W32176   1.850  15.617  12.409 -0.0708  0.0119 -0.0483
13973W        W32177   0.909   6.470  11.677  0.3383 -0.0589  0.0669
13974W        W32178   8.638   9.602  11.953  0.0446  0.0867  0.0347
13975W        W32179   4.776   1.550   0.202 -0.1334 -0.3951  0.2427
13976W        W32180  17.349  14.669   1.550 -0.3077  0.1447 -0.1976
13977W        W32181   1.843   2.308  12.176 -0.0261 -0.1790  0.0517
13978W        W32182  17.019  15.631   0.610  0.1236 -0.1195  0.0686
13979W        W32183   3.222  14.580  12.943  0.0184 -0.0071  0.3341
13980W        W32184   3.667  10.631   0.465  0.0131  0.0402 -0.1448
13981W        W32185  16.883   2.872  14.040  0.1403  0.0312  0.0436
13982W        W32186   6.788  10.164   2.294 -0.2658 -0.2448  0.0809
13983W        W32187  11.604   0.909  11.766  0.2476  0.0294  0.0445
13984W        W32188   2.738   4.391   0.406 -0.0609 -0.0066 -0.0681
13985W        W32189   5.706  16.130   0.479  0.1017  0.2106 -0.0077
13986W        W32190  14.822   0.157   3.368  0.0463  0.2302  0.0372
13987W        W32191   1.624   8.225  11.784 -0.1731  0.0838  0.2665
13988W        W32192   9.589  11.935  12.913 -0.0039 -0.0328  0.0766
13989W        W32193   2.675  16.588   1.557  0.3575 -0.0930 -0.1704
13990W        W32194   9.886   1.184  13.063 -0.1592  0.2886  0.0353
13991W        W32195  15.324   1.879  13.518 -0.0945 -0.2999 -0.2889
13992W        W32196  11.354  18.306  13.959 -0.2289  0.0298  0.1054
13993W        W32197   7.892  17.329   0.769  0.1478  0.3521 -0.1410
13994W        W32198   5.795  12.430   1.615  0.0295 -0.0212  0.0290
13995W        W32199  10.533   4.087  14.136 -0.1147 -0.1684 -0.1251
13996W        W32200   7.683  18.281   5.805  0.1230 -0.5114 -0.1644
13997W        W32201   5.099   5.867  15.541 -0.1356  0.0562  0.0888
13998W        W32202  15.839  10.398  15.694 -0.2177 -0.3550 -0.4869
13999W        W32203  10.527  11.756  14.855 -0.1901 -0.3358 -0.1447
14000W        W32204   6.164  11.129  14.017  0.0663 -0.0259  0.0040
14001W        W32205  12.386  12.280   3.435 -0.4892 -0.0244 -0.5678
14002W        W32206   9.510  16.681  15.479  0.0190 -0.0756  0.1646
14003W        W32207  18.230  11.580   4.045 -0.1671 -0.3947 -0.1824
14004W        W32208   8.704   0.789  15.162  0.1954 -0.3651  0.0175
14005W        W32209   0.263  16.424   1.244  0.1015 -0.0771  0.0416
14006W        W32210  17.402   6.746   1.893 -0.0780 -0.2597 -0.2725
14007W        W32211  15.524   1.476   3.327  0.0987  0.2346 -0.1933
14008W        W32212   8.391  10.444   3.222  0.2237 -0.2128 -0.0527
14009W        W32213  10.232  10.034   2.523 -0.0794  0.1048  0.0456
14010W        W32214   2.884   0.661  14.219 -0.1093 -0.0353  0.0103
14011W        W32215  17.289  12.028   0.738 -0.1905 -0.4884 -0.0704
14012W        W32216   8.590   5.707  11.338  0.0226 -0.1544 -0.0694
14013W        W32217   1.633   9.961   0.890  0.1788  0.0743  0.0442
14014W        W32218  14.465   7.599   3.802  0.2498 -0.0168  0.0252
14015W        W32219  11.778   4.606   1.704 -0.0149  0.1088 -0.1302
14016W        W32220   2.567  13.950   0.830  0.1021  0.1791  0.1480
14017W        W32221  13.870  16.990  11.645 -0.0767  0.0216 -0.3700
14018W        W32222   8.696  16.446  12.801  0.0270 -0.0860 -0.0848
14019W        W32223   7.653  14.060   4.803 -0.2489 -0.1699  0.1515
14020W        W32224  16.050   9.371   1.671  0.0374  0.3766 -0.1989
14021W        W32225  12.031   4.512  13.416 -0.0187  0.0165 -0.0817
14022W        W32226  12.809   0.594   5.513  0.0583  0.0570  0.4284
14023W        W32227   1.094  13.455   2.277  0.0688 -0.2043 -0.1788
14024W        W32228   0.104  14.268   0.054  0.1778 -0.1225 -0.0017
14025W        W32229   4.529  11.284  14.739 -0.0124 -0.1701 -0.1595
14026W        W32230  14.410  16.761  10.810 -0.0706  0.1776 -0.0449
14027W        W32231   3.575   8.438   4.488 -0.1011  0.2155 -0.1792
14028W        W32232   1.989  13.143   0.515 -0.1610 -0.1346  0.0353
14029W        W32233  12.621   8.749  11.663 -0.1467  0.1756 -0.3789
14030W        W32234  10.564  11.309  13.944  0.0421  0.0544  0.0231
14031W        W32235  15.674  12.613  12.010 -0.2221  0.1631  0.0171
14032W        W32236  12.293   5.074  14.505  0.0678  0.0925  0.2892
14033W        W32237  12.544   2.060  12.030  0.0668 -0.3120  0.2921
14034W        W32238   1.489  10.498   0.426 -0.2195  0.1183 -0.3019
14035W        W32239   0.785   2.475   2.847 -0.2393  0.0035  0.0271
14036W        W32240   8.177   1.418  14.049 -0.0581 -0.0833 -0.1038
14037W        W32241  14.252  16.908   0.662 -0.3126 -0.1056  0.1474
14038W        W32242  11.980   5.414  15.531  0.2173 -0.2126  0.0511
14039W        W32243  11.567  12.982  11.333 -0.1345 -0.2093 -0.1742
14040W        W32244  15.951   9.946   1.787  0.2357 -0.0832  0.0524
14041W        W32245   2.731  11.697   4.020  0.4820  0.2289 -0.0910
14042W        W32246   1.437  14.119   4.593 -0.1222  0.2442 -0.0553
14043W        W32247  14.454  13.571  15.627  0.2468 -0.1091  0.0084
14044W        W32248  18.368   0.795  14.151 -0.0304 -0.0302  0.0088
14045W        W32249  12.934  14.465   4.219 -0.1988  0.1131 -0.0795
14046W        W32250  14.836   1.500  12.584  0.3003 -0.2028 -0.1269
14047W        W32251   7.494  11.677  14.259  0.0492  0.1416  0.1195
14048W        W32252  14.380  12.594   3.700 -0.2995  0.0263 -0.4423
14049W        W32253   0.422   4.288   0.184 -0.1771 -0.2789  0.3722
14050W        W32254   9.742   7.799   0.570  0.3079 -0.1566 -0.0163
14051W        W32255   4.232   2.528   1.347  0.1680 -0.2805  0.0746
14052W        W32256  11.546   5.570   4.347  0.0305  0.1390 -0.0383
14053W        W32257  16.666   1.512  13.883 -0.1215 -0.0473 -0.1149
14054W        W32258   2.198  11.300   5.264  0.0791  0.4996  0.2136
14055W        W32259  11.273   9.973   2.050  0.4532  0.2475  0.1230
14056W        W32260  13.716  12.713   1.459 -0.0870  0.1194  0.1837
14057W        W32261   8.454  14.449   1.792 -0.0927 -0.1024  0.1733
14058W        W32262   0.197   2.657   1.363 -0.0619 -0.2613  0.0899
14059W        W32263  12.485   3.152  14.146  0.1133 -0.0143 -0.2226
14060W        W32264   6.527  12.294   1.259  0.0568 -0.3561  0.1184
14061W        W32265   4.396  11.821   2.260 -0.0484 -0.4092  0.2178
14062W        W32266  15.333   5.716  12.226  0.2222 -0.2828  0.0722
14063W        W32267   4.056  17.511   1.752  0.0523 -0.0349  0.0997
14064W        W32268  10.063  15.058   0.311 -0.1743  0.1664  0.1856
14065W        W32269   4.766   6.009   2.452 -0.1158 -0.2189 -0.0918
14066W        W32270   4.623   2.977  13.953 -0.0655 -0.0852  0.0055
14067W        W32271  12.738  18.357   2.069  0.1906 -0.1649  0.0778
14068W        W32272   3.163  12.493  12.873  0.2774  0.2025 -0.1282
14069W        W32273  17.648  17.681  15.285 -0.1988 -0.0558  0.1345
14070W        W32274   2.616   8.818  12.884  0.1833 -0.0152 -0.1509
14071W        W32275   4.915   4.585   4.416 -0.0979  0.2143  0.2487
14072W        W32276   8.582  17.031   4.876  0.0945  0.3375 -0.2820
14073W        W32277   1.872  10.285   2.629  0.2495  0.2498 -0.2163
14074W        W32278  13.065  15.622   4.206  0.0258  0.0581 -0.0747
14075W        W32279  16.236  13.121  14.521 -0.3761  0.0011  0.0206
14076W        W32280  13.070   1.858  13.109  0.0705 -0.0008  0.0147
14077W        W32281   6.163   2.792   3.938  0.1252  0.0036  0.3804
14078W        W32282   4.380   6.726  12.606 -0.0649  0.4617  0.4328
14079W        W32283   4.425   5.245   1.041 -0.1574  0.0507  0.1818
14080W        W32284  17.164   7.212   1.841 -0.0117 -0.3065 -0.2326
14081W        W32285  16.683  15.595  14.597  0.0415 -0.4422  0.1974
14082W        W32286  10.480   6.476   2.582  0.2076 -0.0115  0.2659
14083W        W32287  16.803  13.750  14.831 -0.1994  0.1445 -0.2761
14084W        W32288   8.417  13.977   1.983 -0.0239 -0.1225 -0.3453
14085W        W32289   7.577   3.344  14.446  0.0738  0.0267 -0.1627
14086W        W32290  12.521   9.757   2.461  0.0991 -0.0908 -0.1063
14087W        W32291  14.492  12.776   4.378 -0.1619  0.0667  0.4835
14088W        W32292  18.162   4.105  10.289 -0.7242 -0.1242 -0.0254
14089W        W32293   7.010  13.253  14.675  0.2970  0.2830 -0.2854
14090W        W32294   8.188   5.359  12.632 -0.1695 -0.2310 -0.2242
14091W        W32295   0.605   6.769  11.425  0.1005  0.2064  0.1715
14092W        W32296   3.778   1.099  13.027 -0.0228 -0.2124  0.3092
14093W        W32297   4.656  11.128  12.522 -0.4062 -0.2657  0.1515
14094W        W32298  17.958   1.304   4.511 -0.0662 -0.1263  0.2195
14095W        W32299   3.554  15.156  15.403  0.1733  0.0663 -0.1580
14096W        W32300   7.197  17.442   1.525  0.0824  0.2635  0.2585
14097W        W32301   8.863  10.909   2.591  0.3169 -0.0149 -0.0930
14098W        W32302  10.668   1.685   1.511 -0.1011 -0.0656 -0.1274
14099W        W32303   8.875  12.911  12.776  0.0435 -0.1270 -0.2191
14100W        W32304  12.513  12.862  12.809  0.2444 -0.1104  0.1146
14101W        W32305   3.077   4.618  11.796  0.1176 -0.0254  0.1911
14102W        W32306   3.767   5.765   0.457  0.0102  0.1708  0.0573
14103W        W32307   3.826  13.539  13.398  0.0671 -0.1174 -0.0122
14104W        W32308   3.089  12.175  14.803 -0.1630 -0.0284  0.0140
14105W        W32309   6.114  17.273   3.090  0.0872 -0.2577  0.1417
14106W        W32310   2.373   1.784  14.260 -0.0156  0.0930  0.2436
14107W        W32311   2.724   6.072  13.853 -0.4005 -0.3359 -0.0118
14108W        W32312   7.033   4.647   4.561 -0.2241 -0.2005 -0.1245
14109W        W32313  10.805   0.689  13.953  0.0591 -0.4000 -0.0356
14110W        W32314  11.635  14.739   2.679  0.0358 -0.0228  0.3312
14111W        W32315   5.100  16.132   1.428  0.0915  0.0043  0.1305
14112W        W32316  13.043   7.045  14.551 -0.0020 -0.0494  0.1938
14113W        W32317   1.524  13.424  10.387 -0.1951  0.0748 -0.2666
14114W        W32318   9.167   9.209   5.163  0.0477 -0.1655 -0.0332
14115W        W32319   8.598   6.429   1.239  0.3083 -0.1693 -0.1953
14116W        W32320  14.188  14.385  12.217 -0.1188 -0.0445 -0.0078
14117W        W32321  15.362  11.214  15.627  0.1920  0.1167  0.0279
14118W        W32322  13.011   6.574  11.092 -0.3144  0.0056  0.2103
14119W        W32323   2.793   9.855  14.177 -0.1472 -0.0287 -0.1468
14120W        W32324  11.520  16.294   0.147  0.2250 -0.0703  0.1267
14121W        W32325   1.911  17.540   4.210  0.0380 -0.1912  0.0007
14122W        W32326  13.456  11.562  12.975  0.2868  0.0265  0.5447
14123W        W32327   7.597   7.414  14.152  0.1638 -0.1405 -0.0416
14124W        W32328   0.486   0.572   2.623  0.1272  0.1868  0.1160
14125W        W32329  13.359   6.719  12.259  0.1690  0.2484 -0.2322
14126W        W32330  18.294   5.660   3.530  0.0068 -0.0276 -0.1543
14127W        W32331   7.677   5.089  10.311  0.0893 -0.0986  0.3843
14128W        W32332  13.846  11.919   0.073  0.3522  0.1194 -0.0677
14129W        W32333   0.976  15.238   3.318  0.1723  0.0562 -0.0957
14130W        W32334   4.435   1.617  12.492 -0.0925  0.1560 -0.1896
14131W        W32335   0.825  13.937  15.287  0.1502 -0.0335  0.1822
14132W        W32336   1.526   3.842  13.918 -0.1611  0.3507 -0.0123
14133W        W32337  11.671  11.692  11.822  0.0599  0.0147  0.0172
14134W        W32338   9.314  16.667   4.283  0.3362 -0.0360 -0.1081
14135W        W32339  10.661  14.712   2.102  0.0964  0.0887 -0.3930
14136W        W32340   9.011   8.247   6.115  0.3721  0.0095  0.1404
14137W        W32341   6.528  17.022   2.838  0.2288 -0.1163 -0.1124
14138W        W32342  17.774  11.784  15.149 -0.1349  0.3160 -0.2581
14139W        W32343   2.755   4.286   1.951  0.2758  0.0630 -0.2462
14140W        W32344   9.394  15.063   5.087  0.2195 -0.0920 -0.0717
14141W        W32345   2.648  15.023   2.516 -0.2379  0.3411 -0.1194
14142W        W32346   6.397  15.265   3.679 -0.1010 -0.1420 -0.0629
14143W        W32347  16.210  11.934  12.291  0.0593  0.0485 -0.0041
14144W        W32348  14.129  12.502   0.648 -0.1197  0.2002  0.3406
14145W        W32349  11.011  17.465   4.114  0.0952 -0.2230  0.1135
14146W        W32350  12.121   4.222   3.784 -0.1194  0.1513  0.0690
14147W        W32351   4.909   3.099   2.405  0.1400  0.1324 -0.3670
14148W        W32352  12.659  12.393  15.254 -0.1013 -0.0081 -0.1683
14149W        W32353  11.535  11.374   0.313  0.1478 -0.0069  0.0145
14150W        W32354   7.739  13.866   2.977  0.0725  0.0635 -0.1243
14151W        W32355  16.337  18.037   1.241 -0.1091 -0.0835 -0.0623
14152W        W32356   7.290  17.047  11.443 -0.2093 -0.0569  0.0102
14153W        W32357   9.458  15.480   4.791  0.2298 -0.2300  0.4000
14154W        W32358   1.609  10.530   3.588  0.0370  0.2819 -0.2516
14155W        W32359   6.632  15.185   9.888  0.1201 -0.0278  0.1653
14156W        W32360   4.985   7.862  11.630 -0.0437  0.2293  0.0217
14157W        W32361  15.067   5.340  12.354  0.1236  0.1913 -0.2123
14158W        W32362   7.697  15.223   0.180 -0.0024 -0.0338 -0.2028
14159W        W32363   2.465  10.390  13.244  0.3208 -0.0469 -0.4142
14160W        W32364  11.687  14.067   3.300  0.1985  0.0048 -0.0403
14161W        W32365  13.522  14.621   3.601 -0.0089 -0.1677  0.0717
14162W        W32366   0.468   2.570  14.025 -0.3008  0.0104  0.0281
14163W        W32367  14.960   8.676   0.187 -0.0528 -0.1422  0.1967
14164W        W32368  13.287  17.526  12.017 -0.4196 -0.0575 -0.0633
14165W        W32369   6.687  15.534  11.749 -0.2010 -0.1518  0.2497
14166W        W32370  18.220  11.951  14.263  0.0667  0.0415 -0.3618
14167W        W32371   2.349  16.445   2.513 -0.0692 -0.2151 -0.2249
14168W        W32372   7.967   7.832   4.615 -0.1258  0.0183 -0.0907
14169W        W32373   4.708   9.126  11.655 -0.1586 -0.3066 -0.3275
14170W        W32374  10.594   1.772   4.264  0.2373  0.0742 -0.1418
14171W        W32375  14.058   3.165  11.041  0.0043  0.0502 -0.1666
14172W        W32376  15.667  16.348  14.822 -0.4173  0.1805 -0.0137
14173W        W32377   1.686  13.300   4.104  0.2025 -0.0602  0.0461
14174W        W32378   6.659   9.162  14.596  0.0063 -0.3907 -0.1074
14175W        W32379  11.701   2.994  13.584  0.2785  0.0031 -0.0327
14176W        W32380  15.828  10.443   1.334 -0.0164 -0.2042 -0.2071
14177W        W32381   9.086  12.802   0.781  0.1474  0.1300 -0.1049
14178W        W32382  17.458   9.999   3.518  0.3586 -0.0893 -0.3820
14179W        W32383  14.893   5.880  15.560 -0.2396  0.0457 -0.0513
14180W        W32384  17.281   9.144  13.336  0.0297 -0.0205  0.1396
14181W        W32385   8.479  12.830  12.331 -0.0313 -0.0910  0.1796
14182W        W32386  11.227   8.095   4.044  0.0211 -0.0165  0.1537
14183W        W32387  13.556   5.892   3.453 -0.0957  0.1375  0.1240
14184W        W32388   5.663  13.493   1.069 -0.0297 -0.3929  0.2075
14185W        W32389   6.244   2.998  12.788  0.0877 -0.2746  0.1453
14186W        W32390   5.808  16.250   3.426  0.2287 -0.2502  0.0351
14187W        W32391   2.251  12.732   0.515 -0.1278 -0.2711  0.0783
14188W        W32392  13.355   5.513   3.201  0.1811  0.2409 -0.0453
14189W        W32393   8.585   9.905  13.853 -0.0432 -0.2993  0.0219
14190W        W32394   8.888  14.491  14.121  0.1520 -0.3221  0.0598
14191W        W32395   0.820  10.451   4.793  0.1997  0.2328  0.0793
14192W        W32396   1.277   3.353   0.110 -0.0071 -0.0965 -0.0240
14193W        W32397  13.824   9.857   1.626 -0.3038  0.1685  0.1072
14194W        W32398   3.244   4.072  15.489 -0.0463 -0.0244 -0.2833
14195W        W32399  12.036   9.033   0.300 -0.0862 -0.0675  0.1602
14196W        W32400   3.765  16.092   2.609 -0.2155 -0.0692  0.1345
14197W        W32401  11.379   0.108  11.438  0.0915  0.3057  0.1069
14198W        W32402   2.359  10.567   2.486 -0.0464  0.0028 -0.2348
14199W        W32403  13.223  16.815  13.747  0.1797 -0.0418 -0.0558
14200W        W32404  11.101   0.411  15.281  0.3625 -0.1175 -0.0505
14201W        W32405   5.891  14.647  10.253 -0.0460  0.0062  0.0248
14202W        W32406  18.375  11.964  12.035 -0.1187  0.1610  0.0183
14203W        W32407   7.125  18.091  12.666  0.4093  0.2597 -0.0798
14204W        W32408  10.787   2.912  13.923  0.0240 -0.1902  0.0407
14205W        W32409   7.924  11.152   4.586  0.1851 -0.0051  0.1058
14206W        W32410  14.614   5.047   3.502  0.3594  0.0766 -0.1533
14207W        W32411   4.090  18.216   3.121 -0.1483 -0.0347 -0.0714
14208W        W32412   8.228   8.233  12.131 -0.3797  0.1469  0.1242
14209W        W32413  16.370   0.897   4.490  0.1930 -0.2909  0.0428
14210W        W32414   1.392  17.909  14.410 -0.1686  0.0415  0.3378
14211W        W32415   6.799   1.742   0.712  0.1605  0.2747  0.1841
14212W        W32416   8.890  14.166   3.606  0.0947  0.0149 -0.2670
14213W        W32417   3.558   6.431   1.756 -0.1644  0.0823  0.0415
14214W        W32418  13.696  14.974  12.684 -0.2582  0.0697  0.1630
14215W        W32419  10.697  10.738  12.747  0.1366 -0.2862  0.0785
14216W        W32420  16.685  14.019   2.986  0.1055 -0.0905  0.0548
14217W        W32421   3.402  12.541  13.943 -0.0113 -0.2627  0.0287
14218W        W32422  15.284   9.589   1.409  0.0047 -0.1014  0.0247
14219W        W32423   8.009   2.674   0.297  0.0988 -0.0091  0.2459
14220W        W32424   9.584   6.967   5.015  0.1926 -0.0284  0.0755
14221W        W32425  12.550   7.752   2.948 -0.2193  0.1745  0.1836
14222W        W32426  10.437   4.249   1.095 -0.0668 -0.2063 -0.2171
14223W        W32427  15.207   6.943  15.141  0.1143 -0.2585 -0.1032
14224W        W32428   1.232   9.328  13.248  0.0064  0.0875 -0.1447
14225W        W32429  17.855   3.291  11.462  0.0113 -0.0353  0.0669
14226W        W32430   5.218   6.258   3.303  0.0342 -0.0791 -0.0053
14227W        W32431  17.923   1.034   1.923  0.0755  0.1898  0.0761
14228W        W32432   5.874   4.046   4.055 -0.0165  0.0069  0.0719
14229W        W32433   4.996  13.430  12.748  0.0718  0.1857 -0.0697
14230W        W32434  12.645  13.107   0.871  0.3285  0.1101  0.2191
14231W        W32435   9.617  10.020   5.093  0.1054 -0.0625 -0.0767
14232W        W32436  16.959   9.394  14.841 -0.1148 -0.1332  0.3564
14233W        W32437  12.663  14.912   2.581 -0.0646  0.3561 -0.1428
14234W        W32438   1.057   5.572   4.870 -0.3562  0.2482  0.1305
14235W        W32439  14.960   5.818  12.520 -0.0799 -0.1282 -0.3063
14236W        W32440   9.508  18.063  14.860 -0.1239 -0.0156  0.0985
14237W        W32441  12.777  11.353   5.055 -0.0481  0.1394  0.0691
14238W        W32442   5.421   6.733   9.844 -0.1143  0.0939 -0.0448
14239W        W32443  11.771   0.292  10.581  0.2471 -0.0994  0.0178
14240W        W32444  17.460  12.445  11.116  0.0627 -0.1917  0.1056
14241W        W32445   0.834  10.270  14.859 -0.3328 -0.0398 -0.0059
14242W        W32446  16.423   2.625   1.734 -0.2549  0.0943  0.0272
14243W        W32447  11.121   0.020  15.652  0.0060  0.0743  0.0265
14244W        W32448   2.350   2.461  12.228 -0.0718  0.0084 -0.0776
14245W        W32449   6.137  16.726  14.239 -0.0070  0.1058 -0.2711
14246W        W32450   4.081  10.204  12.408  0.0201  0.0081  0.0634
14247W        W32451   0.335   1.104   2.599 -0.2157  0.2061 -0.0421
14248W        W32452  13.898   9.478  15.383  0.2197 -0.0697  0.2082
14249W        W32453  10.018   7.706  13.141 -0.2069  0.0131 -0.3374
14250W        W32454  12.202   0.105   0.917  0.1875 -0.1789  0.0379
14251W        W32455  18.004   6.893   5.090 -0.3094 -0.0674  0.2926
14252W        W32456   1.016   5.068   3.756 -0.1762 -0.1015  0.0602
14253W        W32457   6.266  11.601   3.682  0.0021 -0.0002 -0.1481
14254W        W32458   7.977  14.802   1.746  0.0259 -0.0352  0.0712
14255W        W32459  17.955   8.085  13.705 -0.1056 -0.0159  0.1936
14256W        W32460   8.863   4.657  12.490 -0.1401  0.0524 -0.0327
14257W        W32461   1.888   6.064  11.581 -0.1957 -0.2101 -0.1927
14258W        W32462   7.506  11.020   0.610 -0.3266 -0.1642  0.1238
14259W        W32463  10.648   3.892  15.529 -0.0848 -0.1453  0.0582
14260W        W32464  18.052  11.708   1.047 -0.1241  0.0530  0.0068
14261W        W32465   7.597   4.520  11.413 -0.0502  0.1473 -0.1197
14262W        W32466  18.104  14.048   0.326  0.3682 -0.2444  0.5264
14263W        W32467   3.099  14.170   1.427  0.2855  0.0201 -0.1507
14264W        W32468  14.463  16.475   2.793  0.0431 -0.0341 -0.0964
14265W        W32469   0.393  10.820  12.966 -0.0603 -0.0012 -0.0844
14266W        W32470   4.966  15.724  11.256  0.3254 -0.0807 -0.2144
14267W        W32471   9.587   7.713  12.252 -0.2437  0.0173 -0.0821
14268W        W32472  16.522  12.738  13.207 -0.4907  0.1974  0.0371
14269W        W32473  10.900   7.697   4.202 -0.1767  0.0852  0.0843
14270W        W32474   6.691  10.395   2.774 -0.1720  0.1908 -0.2187
14271W        W32475  16.987   8.369   1.485  0.1995  0.0865 -0.1992
14272W        W32476   5.210  15.598  10.830  0.3072  0.2026 -0.1723
14273W        W32477  17.700   8.974  14.363 -0.2916  0.0707 -0.1927
14274W        W32478  12.517  13.584  12.459  0.0560 -0.1493  0.1030
14275W        W32479   0.034  12.178   3.018  0.2617  0.3561 -0.0880
14276W        W32480   5.583  15.338   1.142 -0.1627  0.0024 -0.1330
14277W        W32481   1.355  14.252   2.124  0.2692 -0.4145  0.2252
14278W        W32482  11.008  13.103  13.806 -0.4653 -0.0053 -0.0092
14279W        W32483  15.280  11.608  15.336  0.2282  0.1326 -0.0424
14280W        W32484   7.547   9.603  11.251 -0.3586 -0.0820 -0.0039
14281W        W32485  11.225  14.520   1.432 -0.4276 -0.0105  0.3127
14282W        W32486   9.556  11.181   2.886  0.0239  0.3005  0.1921
14283W        W32487  14.612   3.608  13.777 -0.0109 -0.4188 -0.0166
14284W        W32488  14.719  13.416   1.737  0.0604 -0.1221  0.3650
14285W        W32489   3.026  17.156  12.532  0.2426  0.1240 -0.1340
14286W        W32490  15.504  15.649  11.072  0.2569 -0.1444 -0.0478
14287W        W32491  14.920   7.000   4.534  0.0922  0.0116 -0.0297
14288W        W32492   2.878   6.916  12.224  0.0546 -0.1446  0.2965
14289W        W32493  10.109   0.135  12.325  0.0053 -0.0641  0.0593
14290W        W32494   2.454  16.307  14.065  0.1427  0.1844  0.1798
14291W        W32495   8.815  18.081  15.469 -0.0606 -0.1971 -0.2004
14292W        W32496  16.438   4.806  14.253  0.0502 -0.2320 -0.1388
14293W        W32497   5.826  14.370   4.244 -0.0787 -0.2239  0.1450
14294W        W32498   4.214   4.266   3.739 -0.0832 -0.0439  0.1327
14295W        W32499  11.365   0.208   9.762  0.1413 -0.0173  0.0151
14296W        W32500  15.342  15.902  14.452  0.1041 -0.1851  0.0308
14297W        W32501   4.855   9.508   4.135  0.1842  0.0765 -0.0041
14298W        W32502  12.826  17.045  13.260  0.0186 -0.0919  0.0894
14299W        W32503  17.583  14.183   2.334  0.1272 -0.1157  0.0836
14300W        W32504   4.088  18.106  13.550  0.1313  0.3879  0.3080
14301W        W32505   2.854  12.719   5.410 -0.3737 -0.1832  0.0151
14302W        W32506   3.530   6.273   1.283  0.2597  0.0462  0.2013
14303W        W32507  16.451   1.928   3.672  0.0422  0.1549 -0.0369
14304W        W32508   8.822   1.789   2.137 -0.0564  0.0379  0.1676
14305W        W32509   8.079  12.890  13.025  0.0419  0.0114 -0.1828
14306W        W32510  15.870   5.231   0.661 -0.0655  0.1329 -0.3642
14307W        W32511   2.839   2.743   0.161  0.0861  0.0321  0.1074
14308W        W32512  13.277  16.976  14.237  0.0649  0.3381 -0.0001
14309W        W32513   3.535  17.251   1.215 -0.1644 -0.2776 -0.1725
14310W        W32514   3.632  13.761  12.284 -0.0863 -0.2113 -0.2485
14311W        W32515   7.936   5.567  12.235 -0.3354 -0.1449  0.1461
14312W        W32516   0.573  12.213   0.036  0.0551  0.0530  0.1674
14313W        W32517   0.897  11.064   1.975  0.0625  0.1188 -0.2173
14314W        W32518   2.375   6.496   3.353 -0.5051  0.1677  0.1360
14315W        W32519   8.622   7.194  12.083 -0.1608  0.1997  0.0789
14316W        W32520  11.201   7.368   2.238 -0.1762 -0.0493 -0.4246
14317W        W32521  13.289  11.288   5.050  0.1891  0.0470  0.0454
14318W        W32522   4.329  13.113   5.657 -0.0093 -0.0389 -0.1083
14319W        W32523   3.379  10.011   0.850  0.0998  0.0358  0.2609
14320W        W32524   0.902  11.622  12.408 -0.0568 -0.0619 -0.0804
14321W        W32525  15.668  18.078  11.588 -0.2813 -0.2292 -0.4349
14322W        W32526   5.410  11.170   2.580  0.1527 -0.4460  0.0159
14323W        W32527  12.256  10.570  14.832  0.0224 -0.3061 -0.3160
14324W        W32528   2.916   3.519   0.730  0.0613 -0.0598  0.2369
14325W        W32529  15.279   3.641   4.252  0.0232  0.0834  0.3221
14326W        W32530  12.575   6.470   0.673 -0.0916  0.0260 -0.1003
14327W        W32531   2.773   4.275  12.481  0.1053  0.1540 -0.1480
14328W        W32532  14.047   5.527   4.441  0.0301  0.2860 -0.0788
14329W        W32533  10.383   7.179   5.773 -0.0675  0.0668  0.0946
14330W        W32534  14.261   6.629  12.396  0.2200  0.1416  0.2914
14331W        W32535  15.198  14.162   2.358  0.1007  0.0364 -0.1515
14332W        W32536  17.216   0.185   0.463 -0.0141 -0.2857  0.1210
14333W        W32537  12.730   8.712  15.134 -0.2044 -0.1091  0.1882
14334W        W32538  15.661  12.007   0.225  0.3441 -0.0617  0.0836
14335W        W32539  10.793  15.964   3.957  0.2649  0.2378 -0.1640
14336W        W32540  10.178   7.787  11.399 -0.2792 -0.0484 -0.1190
14337W        W32541  10.152  14.109  11.058 -0.0899 -0.0041 -0.3058
14338W        W32542   5.487  11.653   0.961  0.2906  0.1914  0.2555
14339W        W32543   8.278  16.589   2.924 -0.0064 -0.0394  0.0831
14340W        W32544  15.008   0.363   2.945 -0.0780  0.0994 -0.0069
14341W        W32545  16.375   7.525   2.331 -0.3318 -0.1313 -0.3007
14342W        W32546   5.194   2.530  13.267  0.1439 -0.0488 -0.1027
14343W        W32547   2.402  17.912   0.269  0.0900  0.1439 -0.5809
14344W        W32548   8.602   2.194  13.561 -0.3852 -0.3221 -0.0907
14345W        W32549   5.356   8.816  15.225 -0.0253  0.1001  0.0906
14346W        W32550   5.949  16.663  10.719 -0.2065  0.2479 -0.1756
14347W        W32551  18.245  16.148  13.017  0.4536 -0.3541  0.0434
14348W        W32552  16.262   4.094  12.052 -0.1653 -0.1030 -0.1638
14349W        W32553  16.244   5.920   2.618 -0.6129 -0.2792  0.1301
14350W        W32554   4.024   8.572   3.221  0.0136 -0.0763 -0.4038
14351W        W32555  15.689  15.999   2.983 -0.0804  0.0293  0.1770
14352W        W32556  16.258  16.367  14.121 -0.0909  0.2978  0.1490
14353W        W32557  12.503   6.872  10.321  0.1031 -0.3099  0.1181
14354W        W32558   8.969   7.760   3.608 -0.1722  0.3076 -0.0252
14355W        W32559   9.495  17.031  14.860  0.2166  0.0286  0.2796
14356W        W32560   7.009  15.714  11.294  0.0967  0.2646  0.3532
14357W        W32561  16.023   1.871  12.723 -0.0283  0.2458  0.1661
14358W        W32562  10.374   7.138   0.897 -0.1992 -0.0067  0.1039
14359W        W32563   4.119  13.452  12.899  0.2057  0.1483  0.1341
14360W        W32564  17.139   5.315   4.444  0.1585 -0.1172  0.1674
14361W        W32565  13.131  11.500   4.581 -0.0330  0.1902  0.1164
14362W        W32566  13.643   0.288  15.628 -0.0251  0.1275 -0.5600
14363W        W32567   8.770   4.810   0.059 -0.2375 -0.0201  0.2781
14364W        W32568  11.135   1.912   2.323  0.2705 -0.1009  0.0024
14365W        W32569   8.906  18.252   3.606 -0.1659  0.1816  0.0481
14366W        W32570   7.651  15.257   1.614 -0.0072  0.2877  0.1393
14367W        W32571   0.099  17.070  13.167  0.0867 -0.3855  0.4024
14368W        W32572   1.850   0.334   3.016 -0.3505  0.0425  0.3085
14369W        W32573  12.008   6.347   1.582  0.2363  0.0849 -0.0255
14370W        W32574   5.544  14.134   2.745  0.0623  0.2596 -0.0602
14371W        W32575  15.324   1.533  10.014  0.1900 -0.0164  0.0620
14372W        W32576   0.666   6.621  13.595  0.2566  0.0534  0.1660
14373W        W32577   5.411   0.565   2.975  0.0575 -0.2680  0.0715
14374W        W32578  15.490   9.294  12.358  0.1123 -0.2260  0.0825
14375W        W32579   9.307  10.590   1.997  0.1004  0.0077 -0.0583
14376W        W32580  17.478  15.234  13.759 -0.3647 -0.0966  0.1256
14377W        W32581   1.768   9.807  12.140 -0.1250 -0.3915  0.1473
14378W        W32582   5.607  16.938  13.515  0.0496  0.3529 -0.0577
14379W        W32583  17.574   4.781  14.953  0.0365 -0.0495 -0.1025
14380W        W32584   4.087   0.794   2.253 -0.2700 -0.1411  0.0875
14381W        W32585   6.218   7.873   0.086  0.2338  0.1589 -0.0443
14382W        W32586  12.698   6.471  11.503  0.2588  0.0641 -0.2690
14383W        W32587   6.119   5.624  14.397 -0.0323  0.0657  0.0023
14384W        W32588   9.411  17.075   0.047  0.5448 -0.2801  0.1026
14385W        W32589   0.003  13.414   0.937 -0.0170  0.1888 -0.2500
14386W        W32590  12.781  15.254   0.863  0.2185  0.0285 -0.0099
14387W        W32591   4.165  17.453   0.918 -0.0632 -0.1560 -0.2150
14388W        W32592  13.812   1.439  13.599  0.0310 -0.0536 -0.4339
14389W        W32593   7.459  15.300  15.237 -0.0048 -0.1763  0.0305
14390W        W32594   1.845   1.064  11.980  0.1563 -0.0126 -0.2321
14391W        W32595  12.046   5.065   1.689  0.2611  0.2296  0.0286
14392W        W32596   6.942  18.306   0.110  0.0899 -0.1608 -0.2882
14393W        W32597   4.578   8.148  11.246  0.1994  0.2387  0.3559
14394W        W32598   9.364   6.132  13.970  0.0914  0.1851  0.2175
14395W        W32599  11.724  17.833  11.599 -0.1595  0.2032 -0.0722
14396W        W32600   9.556   7.401  13.835 -0.0438  0.2379 -0.0370
14397W        W32601   3.141  13.219   0.674 -0.0251  0.0563  0.3106
14398W        W32602   8.282  16.798  13.232 -0.2330 -0.4813  0.2240
14399W        W32603   2.320   6.588  11.695 -0.2098 -0.1613 -0.0641
14400W        W32604  12.124  14.666  11.305  0.1608 -0.0160  0.1147
14401W        W32605  17.943  13.615  14.478 -0.0776  0.1629 -0.3013
14402W        W32606  15.759   5.300   1.946 -0.3164  0.0041 -0.0373
14403W        W32607   7.433  14.870   4.673 -0.0340 -0.0839  0.3959
14404W        W32608   0.567   9.507  13.953  0.0639  0.2264  0.1644
14405W        W32609   7.224   1.609  11.348 -0.0200 -0.0801 -0.1757
14406W        W32610   0.939   3.054   3.583 -0.0752 -0.0305 -0.0438
14407W        W32611  13.645   8.853  12.297 -0.0958 -0.1562 -0.1499
14408W        W32612  14.990  17.637  15.600  0.2916  0.0404  0.0127
14409W        W32613   4.547  16.922  14.082 -0.0191 -0.0752 -0.1565
14410W        W32614  11.380  11.390   3.755  0.0028 -0.3037  0.0258
14411W        W32615  13.276  12.364  13.774  0.0536  0.0438 -0.0099
14412W        W32616  17.122   5.861   2.481  0.0116 -0.0452  0.1946
14413W        W32617   7.733   2.375  15.726 -0.3678  0.1781 -0.0385
14414W        W32618   6.424  15.191  11.478  0.2123  0.2689 -0.1485
14415W        W32619   2.044   3.310   1.037 -0.0614  0.1723 -0.2060
14416W        W32620  16.048   2.688   1.379 -0.3173  0.0466  0.1550
14417W        W32621  10.469   8.043   4.980 -0.2753 -0.0588  0.0079
14418W        W32622  15.818  15.140   1.989  0.3405  0.1570 -0.2338
14419W        W32623  17.853   8.391  11.813 -0.2869 -0.1718  0.0997
14420W        W32624   5.184   7.067  11.830  0.0624 -0.1078 -0.2090
14421W        W32625   6.438  16.549  13.335 -0.1981  0.1530  0.1789
14422W        W32626   2.257  14.505   1.223  0.0866  0.0656 -0.2224
14423W        W32627  18.250  15.292   4.290 -0.0306  0.1142 -0.0945
14424W        W32628   6.040   9.810  12.951 -0.2748 -0.1677  0.0946
14425W        W32629   9.166  12.366   0.580 -0.0032  0.3244 -0.1841
14426W        W32630   9.097  15.870   3.739 -0.1165  0.1037  0.2925
14427W        W32631   5.419   8.024   3.858  0.1042  0.1769 -0.4283
14428W        W32632  13.020  11.143  12.301  0.1862  0.2189  0.1243
14429W        W32633   8.350  14.691   4.999 -0.1394 -0.4365  0.3092
14430W        W32634  15.110  10.299   2.778  0.1502  0.0981 -0.1926
14431W        W32635  16.977  15.284   4.875  0.0085  0.0827 -0.4814
14432W        W32636   7.740   4.394  12.895  0.0669  0.0770  0.0170
14433W        W32637  14.253   2.185  13.102 -0.1198 -0.3187  0.0508
14434W        W32638   3.030  18.017  12.754  0.3731  0.0341 -0.1481
14435W        W32639  18.186   7.197   4.034  0.1157  0.1401  0.1820
14436W        W32640  14.399  15.542  13.643 -0.0360 -0.2394  0.1124
14437W        W32641   7.295   4.285  14.027  0.0822 -0.2705 -0.1745
14438W        W32642  14.704   5.012   2.158 -0.3297 -0.0758  0.2603
14439W        W32643  15.777   6.286  15.458 -0.1611 -0.1103  0.0372
14440W        W32644  12.459  13.963  12.048 -0.0755  0.2007 -0.0703
14441W        W32645   3.836  17.771   3.759 -0.0361 -0.2583 -0.1931
14442W        W32646  12.139  15.976  13.338  0.1396  0.0764 -0.0966
14443W        W32647  15.802  16.708  12.321  0.1213  0.0184  0.2668
14444W        W32648  18.251   8.773  15.556 -0.4886  0.0039  0.2739
14445W        W32649   3.871   3.792  12.517  0.0802 -0.0902 -0.0460
14446W        W32650   0.580  11.758   1.563  0.1094 -0.2343 -0.0992
14447W        W32651   6.779  12.048  14.855 -0.2167 -0.1270 -0.1562
14448W        W32652  13.684   3.341  12.861  0.1742 -0.2309 -0.1656
14449W        W32653   9.678   2.023   3.717 -0.1695  0.0833 -0.2118
14450W        W32654  17.659   0.822  13.054 -0.1905 -0.3164 -0.1497
14451W        W32655   8.663   7.001  15.229  0.2127 -0.0114 -0.2337
14452W        W32656   2.066   7.908   3.393 -0.0882 -0.1056 -0.0748
14453W        W32657   5.829   7.079   1.361 -0.3315 -0.0680  0.0031
14454W        W32658   4.855   7.336  11.543  0.0526  0.0470  0.1311
14455W        W32659   0.261  14.158  12.498 -0.1255 -0.1596  0.3341
14456W        W32660   8.873  16.522  15.481 -0.1294  0.0381 -0.2103
14457W        W32661  14.801   8.867  11.447 -0.2769  0.1505  0.0633
14458W        W32662  15.294  10.706   4.171  0.0670 -0.1519 -0.1432
14459W        W32663   2.506   8.075  11.765 -0.0443 -0.1242  0.1963
14460W        W32664   8.641  15.703   3.054 -0.1575  0.1276 -0.3469
14461W        W32665   4.906  14.713   2.625  0.1398 -0.1256  0.1323
14462W        W32666   6.890   0.285   0.472 -0.1664  0.1394 -0.0110
14463W        W32667   7.132   9.496   3.926 -0.2819  0.0141  0.1198
14464W        W32668   7.805  11.473  15.563  0.1906 -0.2433 -0.0179
14465W        W32669   2.306   6.017   1.359 -0.3991  0.1001 -0.4153
14466W        W32670   4.032   5.053  15.080 -0.2497 -0.0344  0.2334
14467W        W32671   4.530   4.423  12.339 -0.2819 -0.0945 -0.3326
14468W        W32672  15.842   3.329  13.802 -0.3023  0.3536 -0.1661
14469W        W32673   4.609   8.640   2.296  0.0721 -0.0335 -0.0375
14470W        W32674  17.232  10.363   2.406  0.0269  0.2256 -0.2236
14471W        W32675   6.659   4.158   2.886  0.0923  0.4280 -0.0105
14472W        W32676   0.679  11.494  14.431 -0.1860 -0.1689  0.0214
14473W        W32677   1.505  12.104  11.829  0.2619  0.1776 -0.0800
14474W        W32678   0.776   9.517  13.436  0.2367 -0.1963  0.2368
14475W        W32679  14.105  14.864   1.397 -0.2223  0.1008 -0.0376
14476W        W32680  13.533  10.050  13.282 -0.0368 -0.3073 -0.0288
14477W        W32681  10.575  18.208  10.940  0.3489  0.1080 -0.0556
14478W        W32682   4.521   2.009   3.192  0.0732 -0.1229  0.1447
14479W        W32683  17.542   3.516  11.759 -0.0178 -0.1402  0.1486
14480W        W32684   1.792  10.636  12.649 -0.0874  0.2652 -0.3301
14481W        W32685  15.124   2.155   0.226 -0.0296 -0.1141 -0.1824
14482W        W32686  13.656   5.900  12.725  0.2767 -0.1492  0.2162
14483W        W32687  18.263   5.825  12.819 -0.2763 -0.3136  0.1257
14484W        W32688  12.489  10.455   1.050  0.2911 -0.3866 -0.2421
14485W        W32689  10.744   0.981  14.373  0.0461  0.1327  0.1088
14486W        W32690  10.260   1.196   3.201 -0.2642  0.5706  0.0582
14487W        W32691  10.667   6.970   5.273  0.1263 -0.0893  0.1843
14488W        W32692  16.211   4.894  12.492  0.1229  0.3507 -0.0017
14489W        W32693   4.488   8.893   0.105  0.2585  0.1261 -0.0910
14490W        W32694   6.482   6.831   0.818 -0.3737 -0.0954  0.3275
14491W        W32695  12.714   9.208   1.733  0.1968 -0.0459  0.1389
14492W        W32696  10.857   7.539  14.008 -0.1044  0.0483 -0.1151
14493W        W32697   6.443  11.193   2.899  0.0063 -0.1169 -0.1264
14494W        W32698  14.587   2.236   0.967 -0.0834 -0.1489 -0.2907
14495W        W32699  17.487   2.918   1.590  0.1114  0.2757 -0.1482
14496W        W32700  12.174  11.244  13.487 -0.0097 -0.0568  0.1624
14497W        W32701  18.176   4.927  13.517 -0.2602 -0.1109 -0.0141
14498W        W32702  11.300   5.457  14.927 -0.2717 -0.0705  0.0270
14499W        W32703  12.465  15.071   4.965 -0.1473 -0.1781  0.3353
14500W        W32704   9.041  12.040  14.860 -0.2603 -0.3064 -0.0045
14501W        W32705   9.585   7.234   1.789  0.1478  0.3504  0.0146
14502W        W32706   4.398   7.052  13.014 -0.0748  0.0931  0.2597
14503W        W32707  12.068   4.303  11.289 -0.1086  0.1344  0.0725
14504W        W32708   2.209   3.622   4.184  0.2316  0.0007  0.4203
14505W        W32709   9.222   1.743   1.340 -0.2305  0.0785  0.0519
14506W        W32710   8.966  13.904  14.841  0.1153  0.1350  0.0425
14507W        W32711   2.247   4.114   3.968 -0.2605  0.0990  0.0613
14508W        W32712  11.297  14.793   2.282  0.1234 -0.1180  0.0416
14509W        W32713  16.449  17.496   3.828  0.0529  0.2223 -0.2135
14510W        W32714  16.723   5.789   0.583  0.3308 -0.1499 -0.2977
14511W        W32715  16.317   2.503   3.877  0.0538  0.1150  0.0320
14512W        W32716   1.059   7.193  14.001  0.1091  0.0792 -0.0897
14513W        W32717   4.529  12.901  15.551 -0.3665 -0.1628  0.5489
14514W        W32718  12.541   6.591  12.776 -0.2929  0.0781 -0.0357
14515W        W32719  10.576  17.086   3.453 -0.0162 -0.0329 -0.0034
14516W        W32720   8.083  11.046   1.765 -0.1141 -0.2791  0.0897
14517W        W32721  16.178  17.903  13.376 -0.4150  0.0944 -0.1623
14518W        W32722  10.487   0.636  15.187  0.0940 -0.4237  0.1886
14519W        W32723   4.728  12.086   1.392  0.0435 -0.0606  0.1308
14520W        W32724   8.835   0.241   3.206 -0.0699  0.1548 -0.3233
14521W        W32725  16.346  12.681   5.201 -0.0898  0.0220  0.1607
14522W        W32726  17.419   4.436  12.851 -0.2723 -0.1716  0.0429
14523W        W32727  16.106   6.642  13.176 -0.0150  0.4531 -0.1629
14524W        W32728   2.644   7.374  14.163  0.1073  0.0623  0.0776
14525W        W32729  17.885   5.573   2.554  0.2967 -0.1710 -0.0809
14526W        W32730   5.976  13.036   3.131 -0.0523  0.4086 -0.3637
14527W        W32731   8.174  16.164   1.823  0.1381  0.2286  0.3205
14528W        W32732  18.360  15.179   1.855  0.1242  0.1918 -0.0657
14529W        W32733  17.421  10.828   4.423  0.0181  0.0269  0.1769
14530W        W32734  17.532   1.833   2.691 -0.1195  0.1057  0.4755
14531W        W32735   9.745  17.385   3.057 -0.1705  0.3539  0.0514
14532W        W32736   1.839   7.612  13.845  0.1525  0.1888  0.0747
14533W        W32737  17.645  13.782   3.214 -0.1244  0.0295 -0.1765
14534W        W32738  10.529   6.993   3.657 -0.2677  0.2419 -0.1088
14535W        W32739   1.584   4.135  13.375  0.1287 -0.1803 -0.0563
14536W        W32740  16.208   9.027   0.934 -0.1858 -0.1045 -0.0517
14537W        W32741   0.948   2.464  12.020  0.1495 -0.0675  0.0460
14538W        W32742  11.467  15.237  14.599 -0.0208  0.0985 -0.1596
14539W        W32743   2.621  13.968   3.689 -0.1741 -0.2558  0.0571
14540W        W32744   7.940   1.912  13.422 -0.3474 -0.5359  0.1125
14541W        W32745   4.325  17.342   3.139  0.1540  0.0899 -0.1827
14542W        W32746   3.108  14.857  15.343  0.1586  0.2171  0.1262
14543W        W32747  12.448  10.082  11.786  0.1370  0.1465 -0.0753
14544W        W32748   5.028   8.241  14.770 -0.0558  0.2536 -0.1240
14545W        W32749   3.170  15.558   1.893 -0.4057  0.0038 -0.1016
14546W        W32750   3.883   6.997  13.398 -0.2647  0.3097  0.1764
14547W        W32751  15.925  11.323   4.399 -0.3246 -0.3598 -0.0534
14548W        W32752  15.437  12.402   3.493 -0.1606  0.2139 -0.1805
14549W        W32753  11.643   1.535   1.369 -0.0941  0.3803 -0.2075
14550W        W32754  16.340  15.555  11.511 -0.0385 -0.1807 -0.0284
14551W        W32755   9.653  12.074   5.832 -0.0169  0.1318  0.0323
14552W        W32756  15.907   1.881   1.710 -0.1216 -0.1300 -0.1358
14553W        W32757  13.439   8.978   1.300 -0.0902  0.1682  0.1305
14554W        W32758   4.640   7.963  13.086  0.0774 -0.0797 -0.1805
14555W        W32759   9.538  11.749  12.397 -0.0507  0.1090 -0.3581
14556W        W32760   1.719   2.346  15.320  0.0814 -0.1645  0.0829
14557W        W32761  14.074   7.748  12.179  0.0571  0.2141 -0.4419
14558W        W32762   1.701  15.020  15.688 -0.3238  0.3639 -0.1037
14559W        W32763  17.639  13.574   3.638 -0.0470 -0.0711  0.1562
14560W        W32764  11.587   7.114   1.931  0.0872  0.2275  0.2107
14561W        W32765   1.258   2.518   3.701 -0.1515  0.3074  0.1396
14562W        W32766  13.391   7.489   1.821 -0.2289  0.0073 -0.0877
14563W        W32767  18.253   5.697  12.309 -0.1914 -0.1336 -0.0621
14564W        W32768   8.689  16.671  15.012  0.3212  0.2845  0.0530
14565W        W32769  13.459   6.164   1.871 -0.0002 -0.0737  0.0148
14566W        W32770   8.409   0.126  11.467  0.2837  0.1289 -0.0526
14567W        W32771  14.062  12.214  14.753 -0.0288 -0.0492  0.3683
14568W        W32772  10.383   7.345  14.064 -0.1118 -0.0705  0.1302
14569W        W32773   3.657   2.878   2.122 -0.0491 -0.0515  0.0689
14570W        W32774  15.217  16.522  13.254  0.0520 -0.0845  0.0763
14571W        W32775  18.379   4.184  13.028 -0.1946  0.2595  0.2050
14572W        W32776   3.049  16.490  11.810  0.0829  0.0007 -0.0120
14573W        W32777   1.263  16.942  11.466  0.0954  0.2714 -0.2241
14574W        W32778   5.265   2.752   2.350 -0.1986  0.2800 -0.0938
14575W        W32779  13.235   4.588  15.018 -0.2631 -0.0735 -0.0658
14576W        W32780  10.208   4.315  12.867 -0.0955  0.1288 -0.0993
14577W        W32781  15.727  11.517   3.608 -0.0216  0.1794 -0.2507
14578W        W32782   7.709  16.231   3.002  0.4296 -0.1485 -0.3847
14579W        W32783   8.037   1.809   5.847 -0.1421  0.1329  0.2152
14580W        W32784   3.106   1.875   0.662 -0.0190  0.1514 -0.3748
14581W        W32785   7.815   1.619  14.412 -0.3272 -0.1908 -0.0885
14582W        W32786   0.781   2.190   0.007 -0.0087 -0.1433 -0.2736
14583W        W32787   0.201  13.423   4.138  0.1052  0.3163 -0.0395
14584W        W32788  17.655  11.788   4.695  0.0795  0.0838 -0.3217
14585W        W32789   3.787   3.681  11.468  0.1236 -0.1497  0.2531
14586W        W32790  15.753   4.724  12.757 -0.1284 -0.0736 -0.0416
14587W        W32791   6.571  17.527   4.311 -0.1584  0.3275 -0.3097
14588W        W32792  12.953   6.218  15.116 -0.0523 -0.1087  0.0261
14589W        W32793  14.135   4.168  12.011  0.2650 -0.0984  0.1740
14590W        W32794   5.818   2.751  14.012 -0.0097 -0.1703 -0.0897
14591W        W32795   4.544   1.042   3.843 -0.2492 -0.3056 -0.0483
14592W        W32796   6.580   5.928  15.269 -0.0947  0.1187  0.0172
14593W        W32797  16.172  16.370  12.467 -0.3122  0.1363  0.0588
14594W        W32798   9.687   0.228  15.238 -0.0810 -0.0085  0.0332
14595W        W32799   8.901   5.637  12.153  0.0367  0.0547  0.2120
14596W        W32800  16.103   5.870   3.548 -0.3851  0.2357  0.0337
14597W        W32801  11.151   6.626  12.434  0.0302  0.1731  0.3023
14598W        W32802  10.260  16.451   3.572  0.2917  0.0876  0.0926
14599W        W32803   7.855   4.129  11.833 -0.0808 -0.0221 -0.0118
14600W        W32804   5.117   6.342  12.256 -0.0248  0.2130  0.2568
14601W        W32805   6.101   7.682  15.313 -0.2921 -0.1890 -0.3610
14602W        W32806   2.814   4.316  14.686  0.2244 -0.3755 -0.0300
14603W        W32807   5.641   2.050  15.682  0.0852 -0.1150 -0.1051
14604W        W32808  14.063   7.917   0.571  0.1018 -0.0739  0.0783
14605W        W32809  10.547   4.306  14.610  0.1272  0.0643 -0.2595
14606W        W32810   9.676  11.292  14.495 -0.0927  0.1678  0.2713
14607W        W32811   3.486   6.203  11.383  0.1230  0.1492  0.0720
14608W        W32812   9.051   0.757   1.618 -0.2093  0.1928 -0.0511
14609W        W32813  11.402   0.556  13.936  0.1069 -0.0610  0.0771
14610W        W32814   1.593  17.317   1.504 -0.0146 -0.0338  0.0966
14611W        W32815   8.120   1.208  15.235 -0.1307  0.0826  0.1656
14612W        W32816   4.267  11.196   0.340 -0.1142  0.0593 -0.1438
14613W        W32817  12.309   1.136   0.094  0.0863  0.2967  0.0056
14614W        W32818   8.181   8.060   5.887  0.1220 -0.0868  0.3116
14615W        W32819  13.149   8.995  13.182 -0.1054 -0.2887 -0.1705
14616W        W32820  17.543  14.464  10.553 -0.3239 -0.0552 -0.1304
14617W        W32821  10.527  12.292   2.552  0.3243 -0.0924 -0.2174
14618W        W32822  12.225  10.057   4.570  0.1107 -0.1261 -0.2477
14619W        W32823   8.517   8.730  15.502  0.0607 -0.1953  0.2046
14620W        W32824   4.716  12.243   2.310  0.0581 -0.0865  0.0491
14621W        W32825  15.533  15.328   0.011 -0.4183  0.0277 -0.2654
14622W        W32826  12.042   2.208   1.556 -0.1403  0.1053 -0.1360
14623W        W32827   9.404  15.230   2.054 -0.2946 -0.0681 -0.1471
14624W        W32828  13.842  15.325   2.931 -0.3845 -0.0304 -0.2758
14625W        W32829   7.638   7.408  15.483 -0.1719 -0.0513  0.3775
14626W        W32830   3.357   2.111   3.435  0.0300  0.1006  0.4322
14627W        W32831   2.569  12.663  12.139 -0.3553  0.1526  0.1488
14628W        W32832   3.383  10.076  14.835  0.1423 -0.1975 -0.0631
14629W        W32833  12.051  18.234  14.246 -0.0237  0.0984  0.1312
14630W        W32834  13.180  18.346  13.808  0.2099  0.0365  0.0868
14631W        W32835  10.274   4.380   3.460 -0.2493 -0.0170 -0.2099
14632W        W32836  10.736   6.673   0.663  0.2186 -0.0845 -0.1246
14633W        W32837  10.291  18.165   1.411  0.0288 -0.1438 -0.0943
14634W        W32838  12.822  11.906   2.171 -0.2189  0.0070  0.0002
14635W        W32839   9.529   9.704   2.483  0.1169  0.0345 -0.0564
14636W        W32840   9.583  12.958  13.074  0.3629  0.1756 -0.0348
14637W        W32841   3.501   2.148  11.805  0.1033 -0.1570  0.1911
14638W        W32842   6.305   4.749  14.148  0.0504 -0.1024  0.0796
14639W        W32843  16.442  15.044  11.406 -0.2259  0.1659  0.0750
14640W        W32844  16.057   3.922  13.113  0.2176  0.1218 -0.3913
14641W        W32845   6.840   3.146   4.410  0.0188 -0.2161  0.1361
14642W        W32846   8.402   6.156   1.636  0.0197 -0.0148  0.3164
14643W        W32847   3.065  13.806   0.128  0.1617 -0.0791 -0.0563
14644W        W32848  10.263  12.627  13.723 -0.3398 -0.2902 -0.0875
14645W        W32849   5.706  10.504   1.616 -0.0860  0.0150 -0.0439
14646W        W32850  10.584   7.949  14.069 -0.0576 -0.0262 -0.2554
14647W        W32851   9.325  12.502  13.601  0.0147 -0.2712 -0.2169
14648W        W32852   0.823   7.922  12.216  0.0553 -0.0101  0.0316
14649W        W32853   8.947   3.214   0.865  0.0576  0.0251  0.0984
14650W        W32854   0.997  14.606  15.687 -0.2023  0.0811  0.2203
14651W        W32855   9.695   8.910   1.163 -0.3214  0.2908  0.2511
14652W        W32856  10.661  16.879  12.143  0.0047 -0.1011 -0.1110
14653W        W32857  15.438   4.231   4.139  0.0794  0.2873 -0.0069
14654W        W32858  11.369   5.164   3.538  0.2349 -0.1099 -0.3437
14655W        W32859  17.398  17.484   1.215 -0.1818 -0.2330 -0.1165
14656W        W32860  13.788   4.971   0.633 -0.2120  0.4741 -0.0036
14657W        W32861   2.824  14.258  11.402  0.2109  0.0326  0.1205
14658W        W32862   8.706   8.618   3.622  0.0270 -0.1183 -0.1980
14659W        W32863  11.139   1.738   1.304 -0.0197 -0.1661  0.1980
14660W        W32864   4.399   6.346   2.480 -0.0893  0.0406 -0.1717
14661W        W32865   7.639   3.554   2.811 -0.0912 -0.0096 -0.0343
14662W        W32866  14.630   1.240   1.728  0.1409  0.1596  0.1376
14663W        W32867   1.110  17.521   0.109  0.0702  0.1674 -0.4125
14664W        W32868   0.014  11.578  13.965  0.0148 -0.0981 -0.0548
14665W        W32869  12.169  11.369   0.982 -0.1806 -0.1974 -0.0930
14666W        W32870  11.052  15.638  10.226 -0.0068  0.2160  0.3237
14667W        W32871  14.139   0.185   0.988 -0.1815 -0.0988 -0.0033
14668W        W32872   7.138   5.206  11.220 -0.0533 -0.2686 -0.0741
14669W        W32873  12.547  18.330   4.926 -0.1394 -0.0327 -0.0454
14670W        W32874  11.639  14.496  13.610 -0.3903  0.2364  0.2617
14671W        W32875   2.172  10.398  11.220  0.1759  0.1851 -0.3646
14672W        W32876   2.605  12.330  15.044 -0.2412 -0.0948 -0.0306
14673W        W32877  15.090   4.555  15.538  0.0646 -0.1032  0.3292
14674W        W32878  13.324  10.020   2.821  0.4381  0.0294 -0.0875
14675W        W32879  14.401   9.703   2.284  0.2390  0.0449  0.1092
14676W        W32880  16.117   2.930   3.647  0.2079 -0.0718 -0.0347
14677W        W32881  16.593   1.175   1.614  0.3663  0.0915 -0.2035
14678W        W32882  13.065   7.365   2.791  0.0840  0.3240  0.1070
14679W        W32883  14.776   3.651   3.661  0.0930  0.1732 -0.0972
14680W        W32884   6.741   8.875  12.697 -0.0768  0.1127 -0.2214
14681W        W32885   5.980   4.189  15.572  0.0740 -0.0812  0.2063
14682W        W32886   5.482   5.332  12.401 -0.0559 -0.1449  0.2581
14683W        W32887   2.997  16.950  15.256  0.0412  0.0538  0.1177
14684W        W32888   0.064  17.893   4.216 -0.1544  0.4206 -0.1761
14685W        W32889   2.279  13.551  14.228 -0.0171 -0.1590 -0.1060
14686W        W32890  10.055  10.792  14.613  0.1067 -0.0507  0.0410
14687W        W32891   3.996   2.795  15.635 -0.1564  0.0116 -0.1476
14688W        W32892   5.191  10.221  14.561 -0.0547  0.3256  0.1879
14689W        W32893   8.399  13.400   4.728  0.0766  0.0898  0.0181
14690W        W32894  13.961   1.957   0.129  0.0749 -0.2559 -0.1696
14691W        W32895  16.994  14.982  12.443  0.1563 -0.0503 -0.0605
14692W        W32896   9.782  17.724   3.440 -0.0474  0.2315 -0.0853
14693W        W32897   6.138   6.412   0.738  0.0010  0.2025  0.1315
14694W        W32898   7.479   8.040  14.054 -0.1320  0.2482 -0.3682
14695W        W32899   1.765  11.039   3.047  0.0411 -0.2576 -0.0710
14696W        W32900   6.751  16.922  11.840 -0.0860  0.3782  0.1952
14697W        W32901  10.327   4.957   4.774 -0.0376  0.3428 -0.1670
14698W        W32902   1.924   3.230  13.511 -0.1169 -0.1363  0.2311
14699W        W32903   3.408  10.496  10.829  0.3360  0.1488 -0.0618
14700W        W32904  13.463  13.910   4.002 -0.0240  0.0082 -0.2176
14701W        W32905   3.684  17.307  12.233  0.0090 -0.0250 -0.0118
14702W        W32906   1.264   0.114  10.638  0.2088  0.1662 -0.0059
14703W        W32907   4.702  11.064   5.623  0.0175  0.2158 -0.0255
14704W        W32908  13.677   4.467   3.886  0.3023  0.2028 -0.1430
14705W        W32909   5.931   8.898   1.469 -0.0016  0.0549  0.2803
14706W        W32910   1.513   8.295   2.228 -0.2343  0.2493 -0.1903
14707W        W32911   9.625  14.424   2.021 -0.0033 -0.2532 -0.0760
14708W        W32912   4.600   6.306  12.689 -0.3561 -0.0847 -0.1415
14709W        W32913  18.106   1.614  13.437  0.3679 -0.2037  0.0455
14710W        W32914   2.048   5.468   2.666 -0.1097  0.1199  0.0269
14711W        W32915   9.127   3.164  12.882 -0.1190  0.1765  0.2225
14712W        W32916  12.447   3.155  14.940 -0.0472 -0.4758 -0.0617
14713W        W32917  15.622   2.300  14.204  0.3525 -0.5284 -0.5331
14714W        W32918  12.732  17.452   3.657 -0.0092 -0.1543  0.0212
14715W        W32919   7.932   1.255   5.219  0.0162  0.0107 -0.0530
14716W        W32920   5.733   6.970  15.394 -0.0647 -0.1419  0.0221
14717W        W32921  12.807   1.080   0.356  0.1363  0.0721  0.0211
14718W        W32922   3.230  15.464  11.131 -0.0259 -0.1153 -0.1137
14719W        W32923  14.824  16.879   5.906  0.1600 -0.4307  0.0718
14720W        W32924  14.768  17.735   0.418  0.0285  0.0282 -0.0201
14721W        W32925   1.794   6.276   4.805  0.0866 -0.2851 -0.0668
14722W        W32926   7.548  16.376  13.350 -0.1096 -0.0187  0.0304
14723W        W32927   9.623  15.988   1.824 -0.1148  0.0662  0.2793
14724W        W32928   7.086   9.014  10.528  0.4467 -0.2607  0.0265
14725W        W32929   1.312  16.424   3.112 -0.0749  0.2214  0.1097
14726W        W32930  11.206   3.201  13.744  0.0018 -0.0354 -0.0426
14727W        W32931  12.337   2.335  13.045  0.1799  0.0670  0.3152
14728W        W32932  16.961  11.157  14.930 -0.0091  0.0732  0.0959
14729W        W32933   4.838  13.472   3.344 -0.3288  0.1119  0.1474
14730W        W32934   6.453  10.134   0.507 -0.1398 -0.3646  0.0187
14731W        W32935  16.033  16.197   1.931  0.1135  0.0043 -0.1615
14732W        W32936  10.223   5.110   2.670  0.0303  0.0701  0.0215
14733W        W32937   3.938   3.874  14.443  0.1812  0.2683 -0.4195
14734W        W32938  14.862   7.353  14.876 -0.0724  0.0435  0.0948
14735W        W32939   1.621  18.052  13.339 -0.2015 -0.1494  0.4508
14736W        W32940   4.148   5.155   1.925  0.0881 -0.0101  0.0166
14737W        W32941  12.151   9.365   2.088  0.0211  0.2754 -0.2914
14738W        W32942  12.752  17.541   0.415  0.0480 -0.0706 -0.0745
14739W        W32943  17.855   7.935  15.217 -0.2366  0.0692  0.2960
14740W        W32944   8.710  16.013  15.574 -0.2264  0.1371  0.1285
14741W        W32945   2.479   8.238  14.892 -0.0103 -0.0470  0.0692
14742W        W32946  15.262   6.614   4.327  0.2685 -0.0601 -0.0570
14743W        W32947  17.131  14.671   3.643 -0.2801 -0.0193  0.2507
14744W        W32948   0.836  12.268  14.830 -0.1008 -0.1138 -0.2898
14745W        W32949  15.126  10.113   1.280 -0.0493  0.3420 -0.1694
14746W        W32950   1.833   2.029   1.184 -0.1099 -0.4059  0.1237
14747W        W32951  11.741  17.687  10.720 -0.1031 -0.1112 -0.0862
14748W        W32952  11.512  10.870   3.639 -0.0165 -0.0029 -0.1366
14749W        W32953   0.503  10.646   3.593  0.0771 -0.1580 -0.0408
14750W        W32954   5.858  15.566   1.561  0.2717  0.0289 -0.1976
14751W        W32955  11.848   3.235  13.186  0.1479  0.0444 -0.1126
14752W        W32956   7.680   6.136  13.831 -0.3297 -0.0677 -0.3089
14753W        W32957  13.927  15.237  14.129 -0.1796  0.0084 -0.0224
14754W        W32958   2.463   9.654   3.899  0.2277  0.2790  0.1183
14755W        W32959   5.640  16.725  14.010 -0.0775  0.3145 -0.2013
14756W        W32960   2.825   5.312  11.244  0.0735  0.0027 -0.0210
14757W        W32961   8.134   2.285  13.679  0.0686  0.0684  0.0452
14758W        W32962   8.340   3.848   5.932 -0.0255  0.1853  0.2473
14759W        W32963  15.685   1.473   1.868 -0.0474 -0.1935 -0.0587
14760W        W32964  16.523   4.475  15.014 -0.0751  0.1622 -0.0357
14761W        W32965   1.325   3.937  12.107 -0.5606 -0.2268 -0.0098
14762W        W32966   9.319  13.239  15.271  0.0234  0.0659  0.0589
14763W        W32967   0.484   5.136   0.374 -0.1189 -0.0737 -0.1903
14764W        W32968   8.926   1.916  10.616  0.2019 -0.1416 -0.0534
14765W        W32969   9.145   0.119  11.987  0.1342  0.1034 -0.0713
14766W        W32970   8.170  17.826   4.578  0.0948  0.0501  0.0907
14767W        W32971   1.712   6.459   0.842  0.3470 -0.0024 -0.0377
14768W        W32972   3.740  15.977   0.613  0.2208 -0.1685 -0.2056
14769W        W32973   1.935   0.050   2.074  0.2393  0.0690  0.2015
14770W        W32974   1.185  17.248  15.210 -0.0460  0.3187 -0.0005
14771W        W32975  18.019   4.019  12.309  0.0291  0.0185  0.0616
14772W        W32976  17.328   4.482   2.179 -0.2799  0.1258  0.0025
14773W        W32977  10.461   9.463   0.413 -0.0954 -0.1245  0.0722
14774W        W32978   1.027  12.913   1.152 -0.1632  0.0445  0.3105
14775W        W32979  11.804   8.383  13.711  0.2149 -0.2557  0.0258
14776W        W32980   4.323   4.454  11.186 -0.1304  0.0192  0.0688
14777W        W32981   2.831   7.049   1.194 -0.1066 -0.2279 -0.1223
14778W        W32982  14.826   6.048   1.265  0.1548 -0.2498  0.0404
14779W        W32983   8.128  15.495  12.564  0.1686  0.0413 -0.0938
14780W        W32984  14.550   2.654  13.374  0.1435  0.0101  0.2186
14781W        W32985   1.087  12.855   1.637  0.0233  0.0781 -0.3044
14782W        W32986   1.758  10.833  13.627  0.0954 -0.2063 -0.1087
14783W        W32987  10.177  11.184  12.152  0.0474 -0.1259  0.3667
14784W        W32988  17.270  12.951  14.872 -0.0479  0.0739 -0.2076
14785W        W32989  16.599   8.291   4.585  0.0614  0.1932  0.2141
14786W        W32990  16.779   3.592  11.272  0.2149 -0.1462  0.0117
14787W        W32991   5.592   7.065   4.731 -0.0196 -0.0532  0.1454
14788W        W32992   0.739   7.055   3.407 -0.1998  0.1449  0.1449
14789W        W32993  11.024  13.692  13.767 -0.0223  0.0745  0.2551
14790W        W32994  17.626   9.206   4.003 -0.4544 -0.0567 -0.1984
14791W        W32995   4.098  16.957  15.013 -0.2413  0.0044 -0.0733
14792W        W32996   2.979  11.565  13.044 -0.3270  0.2673  0.1531
14793W        W32997   9.597   5.188   5.070  0.0702 -0.1316 -0.2917
14794W        W32998  16.182  16.073  13.457  0.0169 -0.0421 -0.2926
14795W        W32999  12.984  15.467  13.747 -0.1915  0.0790 -0.2148
14796W        W33000   3.216   8.694   2.611 -0.0109 -0.0092 -0.1489
14797W        W33001   1.304   8.587  12.439 -0.1125  0.1322  0.1795
14798W        W33002   1.983   3.969  14.068  0.0556 -0.3966  0.0800
14799W        W33003  10.581   3.476  13.084  0.5220 -0.0791  0.0834
14800W        W33004   8.347   5.462   2.748 -0.2754 -0.2887 -0.0270
14801W        W33005  18.278  12.410  12.323 -0.1213  0.2648  0.0967
14802W        W33006   0.117   1.343  11.470  0.2142  0.2863  0.0397
14803W        W33007   4.506   7.581  12.323 -0.3349 -0.0643  0.0315
14804W        W33008   0.946  14.999   1.541  0.2655  0.0841 -0.3449
14805W        W33009  11.677   1.535  10.981 -0.0894 -0.3142 -0.0168
14806W        W33010   8.009   6.026  11.991  0.0591 -0.0345 -0.0046
14807W        W33011  10.763   8.166  11.713 -0.0712 -0.3211  0.1292
14808W        W33012  15.076  11.971  12.257  0.1717  0.0315 -0.1075
14809W        W33013   5.409  10.404  12.243 -0.0085  0.1266  0.0123
14810W        W33014   0.205  16.856   3.314 -0.2355 -0.0949 -0.1201
14811W        W33015  14.467  14.383   0.298 -0.3254  0.1281  0.1029
14812W        W33016  14.404   2.745   0.423  0.3177  0.2777 -0.2275
14813W        W33017   7.082   5.991  13.742 -0.1611  0.1937 -0.0837
14814W        W33018   2.297  13.054  15.663  0.1969 -0.1217 -0.0764
14815W        W33019   3.129  15.240  14.097  0.1799  0.0186  0.2990
14816W        W33020  12.216   0.964  13.764 -0.0604  0.0895 -0.0284
14817W        W33021   3.267   0.987   0.152  0.0028  0.2569 -0.3340
14818W        W33022   7.224  16.735   2.350 -0.0169 -0.0482  0.1405
14819W        W33023  10.184   0.605   1.136  0.2553  0.0098 -0.2911
14820W        W33024   7.467   9.107   2.754 -0.1582 -0.1910 -0.0882
14821W        W33025   2.566  11.009  13.889 -0.0179 -0.1523 -0.0443
14822W        W33026  17.586  13.201  14.546 -0.1762 -0.0627  0.1337
14823W        W33027  17.617   2.100  15.654 -0.1608  0.1360 -0.1707
14824W        W33028  12.603   8.460  14.341  0.1234 -0.0929  0.1109
14825W        W33029   5.788   6.144   0.101 -0.3023 -0.2487  0.0274
14826W        W33030  14.843  10.882   3.288  0.0208  0.0936  0.0789
14827W        W33031   5.336   9.730   0.542 -0.0248 -0.0924  0.0513
14828W        W33032  13.546   1.395  12.288  0.2668  0.2755 -0.0518
14829W        W33033  15.953  11.882  11.866 -0.0926  0.1194  0.1663
14830W        W33034   9.265   1.280   4.141 -0.0038  0.0453  0.0699
14831W        W33035   8.349   1.705  13.685  0.0739 -0.1198  0.0524
14832W        W33036   1.971  16.182  14.691 -0.2334  0.1759 -0.1584
14833W        W33037   5.522   0.421  15.163 -0.0354 -0.4759  0.0550
14834W        W33038  13.325  15.920  14.698 -0.0764 -0.0539  0.2404
14835W        W33039  17.747   3.405   2.938 -0.0874 -0.1432  0.2613
14836W        W33040   6.806  18.375   1.596 -0.0231  0.0918 -0.3437
14837W        W33041  10.987  11.748   2.730  0.4223 -0.4635  0.1743
14838W        W33042  10.478   9.383  10.359 -0.0978  0.0339  0.0733
14839W        W33043  13.618   2.696  11.449 -0.1921  0.0516 -0.0835
14840W        W33044   1.661   6.972   0.831  0.1900 -0.1611 -0.0300
14841W        W33045   1.260   3.092  11.429 -0.0528 -0.1008  0.2559
14842W        W33046   6.802   9.608  10.673  0.0101 -0.1339  0.0122
14843W        W33047  10.274   9.076  13.477 -0.0192  0.0697  0.3979
14844W        W33048   5.462  12.942   2.912  0.1631 -0.0980  0.0503
14845W        W33049  15.546   3.923   3.766 -0.1030  0.0517  0.1798
14846W        W33050   2.061   7.353   1.465 -0.0997  0.1974 -0.0789
14847W        W33051   7.498   2.854  13.044 -0.0476  0.3913  0.0367
14848W        W33052  15.016  11.137  12.732  0.0892 -0.0940 -0.0978
14849W        W33053   5.221  13.125   0.619  0.0261  0.2195  0.1350
14850W        W33054   7.037  14.229   1.620  0.0492 -0.2257  0.2235
14851W        W33055   2.084  11.870  12.360 -0.3202 -0.5341 -0.1618
14852W        W33056  14.332   8.188  12.353 -0.1326  0.0398  0.1357
14853W        W33057   1.559  11.046  14.455 -0.3336 -0.1708 -0.0093
14854W        W33058   3.133   1.599   4.956 -0.0364 -0.1617  0.0744
14855W        W33059   5.580  15.609  15.550  0.0385  0.0112 -0.2028
14856W        W33060   8.658   3.196   5.229  0.0047  0.1480  0.1774
14857W        W33061   0.891  10.576   1.946 -0.0876  0.0200  0.0793
14858W        W33062  13.320   7.720   4.599 -0.1026  0.1624 -0.1505
14859W        W33063  11.321   7.211  13.116  0.0898 -0.3762  0.0146
14860W        W33064  10.898   9.679   0.630 -0.0248  0.2077  0.1405
14861W        W33065  13.157   2.756   3.883 -0.1874 -0.3522  0.1643
14862W        W33066   3.438  11.907   2.069  0.0199 -0.1313  0.1314
14863W        W33067  16.229  11.129  11.225  0.0721  0.1007 -0.0312
14864W        W33068   2.531  16.745  15.057 -0.2487 -0.1012  0.1242
14865W        W33069   5.915  13.859   1.785 -0.0518  0.1406 -0.1480
14866W        W33070  13.472   4.794  11.845  0.1697  0.1339  0.1721
14867W        W33071   5.146  11.118   3.721 -0.0208  0.0330  0.0250
14868W        W33072  11.377  16.815   1.783 -0.1365  0.1713 -0.0968
14869W        W33073  13.209  16.442   3.531  0.2586 -0.0800 -0.0484
14870W        W33074  12.224   8.579  14.073  0.3296  0.1058 -0.0797
14871W        W33075  15.857   8.018  12.002  0.1394 -0.0959  0.1913
14872W        W33076  17.647  16.001   3.874  0.0264  0.3155 -0.1667
14873W        W33077   7.224  10.386  13.530  0.0298 -0.2265 -0.1808
14874W        W33078  16.256   5.810   4.416 -0.0882 -0.0749  0.2463
14875W        W33079   7.113  10.682   3.836 -0.0284  0.0332  0.1320
14876W        W33080  16.380   9.143   2.830 -0.1475 -0.2143 -0.0115
14877W        W33081  12.511   4.523  14.438  0.3857 -0.0508  0.2164
14878W        W33082  16.169  15.468   1.406 -0.0189  0.0558 -0.1682
14879W        W33083  16.150   2.996  14.692  0.0550 -0.0914  0.0249
14880W        W33084   1.799  16.239   2.587 -0.2518 -0.1698  0.1188
14881W        W33085   3.246  15.967  11.002  0.0438  0.0356  0.0418
14882W        W33086  15.719   3.551   4.661 -0.3165 -0.2268 -0.0733
14883W        W33087  13.918   4.522   0.373  0.1633  0.1801 -0.1103
14884W        W33088  10.527   8.925   1.626  0.0771 -0.1354 -0.2708
14885W        W33089   9.340   5.417  15.585  0.0664  0.0687  0.0513
14886W        W33090   8.031  13.085  11.154  0.2798  0.1561  0.1452
14887W        W33091   0.912  12.962   0.680 -0.1664  0.0134 -0.1056
14888W        W33092   8.003   4.683   5.692  0.0601 -0.1531 -0.0992
14889W        W33093   9.111   7.269  15.146 -0.1265 -0.0297  0.0394
14890W        W33094  13.495   4.625   4.838 -0.0042 -0.1945  0.1078
14891W        W33095   0.581   1.404  13.252 -0.0355 -0.2965 -0.1156
14892W        W33096  14.890  10.224   3.914 -0.0362 -0.2429 -0.0950
14893W        W33097  10.449   0.250  10.695 -0.1447 -0.2560 -0.0994
14894W        W33098   3.956  10.058  14.983  0.0644  0.2863  0.1751
14895W        W33099   6.444   0.496   1.024 -0.1609  0.2815 -0.2018
14896W        W33100  16.553  16.563  13.592  0.2656 -0.0737  0.0485
14897W        W33101  12.566  11.469  12.641  0.4376  0.2085 -0.2373
14898W        W33102  15.786   5.178   4.176 -0.1664 -0.4240 -0.1426
14899W        W33103   9.977  14.566   1.533 -0.0227  0.3090 -0.2021
14900W        W33104   8.327   3.980  12.096  0.2118 -0.1189  0.1465
14901W        W33105   5.929  11.169   5.040 -0.2718 -0.0441 -0.1916
14902W        W33106   7.698   4.540   0.704 -0.1656 -0.1754  0.1912
14903W        W33107   0.384   4.421  12.037  0.0635 -0.1706 -0.2009
14904W        W33108   9.703  13.499  15.082  0.1071  0.1581  0.1500
14905W        W33109   1.198   7.417   4.584 -0.0999  0.0081  0.0632
14906W        W33110  14.631  14.172   4.816 -0.0526 -0.3866 -0.0792
14907W        W33111  11.487  12.784  13.150 -0.1404  0.2217  0.0400
14908W        W33112   2.829   9.120  13.336  0.1989 -0.1475  0.0394
14909W        W33113  17.403   4.518  14.211  0.0208  0.3161 -0.0768
14910W        W33114   4.407  12.387   3.167  0.0769  0.3485 -0.1443
14911W        W33115  12.241  16.462   2.704  0.0488  0.3298 -0.0445
14912W        W33116   4.865   1.824   5.328 -0.1487 -0.1576  0.2456
14913W        W33117  14.990   9.233  12.567  0.0484 -0.2220  0.0360
14914W        W33118  11.816   5.389   2.018 -0.1180 -0.0277  0.0403
14915W        W33119   3.323   3.529   1.863  0.3148 -0.0026  0.0833
14916W        W33120   6.333   5.265  13.997  0.0953  0.2330  0.1664
14917W        W33121   6.023  12.514   3.854 -0.2245 -0.1748  0.0435
14918W        W33122   7.056  11.778   3.569 -0.1377 -0.0354 -0.3471
14919W        W33123   2.857   6.062  12.223  0.0214 -0.1733  0.2192
14920W        W33124  12.850  15.711  12.236 -0.3719 -0.0284  0.0059
14921W        W33125   5.351   1.463  11.438  0.0029  0.2483  0.0529
14922W        W33126  13.340   6.255  14.810 -0.1247  0.0176 -0.0355
14923W        W33127   6.012   9.565   4.335  0.0601  0.2102 -0.1219
14924W        W33128   0.679   8.085  12.767 -0.0692  0.3048  0.1123
14925W        W33129   1.195   4.762   4.289  0.0009 -0.1029  0.0993
14926W        W33130  10.263   2.324   1.026 -0.0529  0.0811  0.1394
14927W        W33131  16.693  17.901  12.384  0.0718 -0.1674 -0.2401
14928W        W33132   5.897   9.248   1.007 -0.1416  0.0887  0.0938
14929W        W33133  14.902  18.276  10.939  0.1079 -0.1426  0.0542
14930W        W33134   8.802  16.992   2.006  0.1011 -0.3363  0.2299
14931W        W33135  10.343  16.007  14.338 -0.2854 -0.0170  0.2537
14932W        W33136   5.084   8.793  11.721 -0.0088 -0.0740  0.1164
14933W        W33137   7.588  10.638   0.084  0.1212 -0.0995 -0.4087
14934W        W33138   8.249  11.803   3.740  0.1567  0.2445 -0.1080
14935W        W33139   3.110  10.185  13.892 -0.2935  0.0572 -0.2440
14936W        W33140  13.269   3.815  11.835 -0.1120 -0.0516  0.0238
14937W        W33141  15.483  10.006  15.342 -0.1196 -0.0056 -0.0819
14938W        W33142   1.801  17.310  12.072  0.1016  0.1215 -0.1233
14939W        W33143   9.547   1.605  14.572 -0.0768 -0.2152  0.0990
14940W        W33144  17.257   0.942   3.610 -0.0657  0.1973  0.3301
14941W        W33145   6.808   1.194  13.481 -0.0955  0.0760 -0.0002
14942W        W33146  13.534  15.498   1.893  0.2389 -0.1485  0.1228
14943W        W33147   2.043   8.321  12.687 -0.0412 -0.3295  0.0925
14944W        W33148   9.709  16.509  15.028  0.0802 -0.1336  0.1099
14945W        W33149   8.681   1.810   1.325 -0.1323 -0.0401  0.0776
14946W        W33150  14.075   6.975  15.596  0.0689 -0.1614  0.1386
14947W        W33151   7.525   1.415  12.414  0.3608 -0.0587 -0.1572
14948W        W33152  12.888  11.072  12.824  0.1141  0.1710  0.4338
14949W        W33153  13.013  17.647   1.543  0.1663  0.1059  0.4017
14950W        W33154   0.014  17.901   0.212  0.1919  0.1606  0.1483
14951W        W33155   0.013   2.721   3.459 -0.0682  0.1839  0.0942
14952W        W33156   1.055  17.332   4.063 -0.1980 -0.0366  0.1455
14953W        W33157   7.863   7.794  14.274 -0.3615  0.1475 -0.0563
14954W        W33158  17.933   5.480   1.687  0.0098 -0.3036  0.1239
14955W        W33159   0.768  18.304   4.313  0.1639  0.1946 -0.1347
14956W        W33160  12.106  16.679  11.708  0.0424  0.0306 -0.0929
14957W        W33161  17.671   8.636  10.924  0.2865  0.1033  0.0397
14958W        W33162   4.075   1.118   4.392  0.1374 -0.1371  0.1250
14959W        W33163   1.305  13.723   1.518 -0.1537 -0.0521 -0.3574
14960W        W33164   0.553  17.857  13.047 -0.0093  0.0918 -0.1645
14961W        W33165   8.340  10.055   5.882 -0.0496  0.2704 -0.2856
14962W        W33166  15.314  10.196   0.029 -0.2272  0.0185 -0.0916
14963W        W33167   7.717   2.905  14.382  0.0654 -0.0612  0.1397
14964W        W33168   3.786   7.216  12.145  0.0847 -0.2597  0.0159
14965W        W33169  11.082   6.445   1.246 -0.2451 -0.4217 -0.0234
14966W        W33170  12.221   7.773  12.825 -0.0127  0.4236  0.0052
14967W        W33171   9.542   2.524  12.730  0.0628 -0.1214 -0.0163
14968W        W33172  11.905   4.822   2.148 -0.4508 -0.0488  0.1981
14969W        W33173  16.393   9.219   1.351 -0.0844  0.1694 -0.0368
14970W        W33174   5.368  17.473   2.568 -0.0164  0.0517  0.0803
14971W        W33175  14.521   0.489  11.970  0.1540  0.0664  0.0243
14972W        W33176   0.471   3.150  14.575  0.1471  0.0586 -0.2060
14973W        W33177  12.905  11.365  13.861 -0.1368  0.1528 -0.0412
14974W        W33178   0.216  11.641  11.660 -0.2375 -0.0039  0.1496
14975W        W33179   7.774  12.249   0.974  0.0889 -0.0509 -0.1533
14976W        W33180   5.654  11.532  11.894  0.0559 -0.0674  0.0989
14977W        W33181  11.026   2.653  12.966  0.0675 -0.2700 -0.0510
14978W        W33182   7.794   8.405  13.831  0.0885  0.0468 -0.1455
14979W        W33183   7.742   2.967   5.908 -0.2772 -0.1368  0.2906
14980W        W33184   8.653   8.444   3.133  0.2832 -0.2542  0.0575
14981W        W33185   8.908   9.094  14.191 -0.3215 -0.0541 -0.2886
14982W        W33186  18.265  11.893   2.636 -0.0432  0.1710 -0.1388
14983W        W33187  14.214   5.461  15.110 -0.0088  0.0289  0.2418
14984W        W33188  14.149  16.497   1.959 -0.2139 -0.0678  0.1609
14985W        W33189  17.143  14.218  15.424  0.1114 -0.5131  0.0840
14986W        W33190   4.770  13.325   0.109  0.0530  0.2089  0.0656
14987W        W33191   8.057  13.854  14.013 -0.1877 -0.0730 -0.1129
14988W        W33192   4.253   4.324  14.475  0.2781 -0.2054 -0.0967
14989W        W33193   1.792   7.406  11.744 -0.0239 -0.1331 -0.0483
14990W        W33194  17.923  15.955  11.893 -0.0250  0.1112  0.2295
14991W        W33195   2.057  17.976  14.787  0.0314 -0.1690 -0.1275
14992W        W33196  13.926  16.308  15.115  0.2609  0.0809  0.1919
14993W        W33197   0.190   4.382   0.625  0.4358 -0.4360  0.2035
14994W        W33198  11.832  16.524   3.894  0.0655  0.0210 -0.1685
14995W        W33199   8.469  15.263   2.084  0.0511 -0.1291 -0.0320
14996W        W33200   8.165   7.769   1.094  0.2532 -0.1220  0.2396
14997W        W33201  18.038  12.902  15.254  0.2323  0.0556 -0.2246
14998W        W33202  16.236   8.837   2.467  0.2461  0.0654 -0.0434
14999W        W33203  15.928  18.280   1.420  0.2920 -0.1318 -0.1664
15000W        W33204   7.767   9.857  14.019 -0.0746  0.2918 -0.0694
15001W        W33205  11.207   8.420   4.669 -0.0115  0.3301 -0.1475
15002W        W33206  15.594  17.055   0.237  0.1809  0.1400 -0.0768
15003W        W33207  17.090   8.490   1.957 -0.0905 -0.1279  0.0012
15004W        W33208   7.228   0.969  14.901 -0.0398 -0.0113 -0.0056
15005W        W33209   2.023   2.006  11.810  0.1606  0.1312  0.0427
15006W        W33210   2.665   0.840  15.709  0.0922  0.0455  0.2449
15007W        W33211   9.599   1.227  11.566 -0.3023 -0.0530  0.0393
15008W        W33212   0.983   9.971   1.690  0.2474 -0.0487 -0.0194
15009W        W33213   5.535  10.919   4.696 -0.0926  0.0013  0.0727
15010W        W33214   0.154   8.773   3.298  0.0990  0.4141 -0.0766
15011W        W33215   6.830   5.172  13.730 -0.3091  0.1216 -0.1849
15012W        W33216  14.230  17.558   1.799  0.1949 -0.1432  0.1529
15013W        W33217  13.801  12.881   4.937  0.1680  0.1776 -0.0962
15014W        W33218   2.483  13.620   3.094 -0.1964  0.3908  0.0828
15015W        W33219  13.018   1.915   4.345  0.0987  0.2613  0.1176
15016W        W33220   5.081  10.093   4.553 -0.1558 -0.0138 -0.0376
15017W        W33221   6.136   3.980   4.541  0.1354  0.0657 -0.0630
15018W        W33222   1.342  10.836   3.248  0.1449 -0.1320 -0.0070
15019W        W33223  14.858   8.442  13.090  0.0218  0.0165 -0.1674
15020W        W33224   3.464  18.059   4.182  0.1422  0.0203  0.1780
15021W        W33225   8.891  11.739  13.968 -0.1497  0.5274 -0.1887
15022W        W33226   3.988   7.935   1.685 -0.3522  0.0390  0.0833
15023W        W33227   6.041   4.109  10.178 -0.4027 -0.0227  0.3635
15024W        W33228   2.049   9.621   4.198 -0.1488  0.0731 -0.0482
15025W        W33229   9.120   6.060  13.465  0.0232 -0.1103  0.3083
15026W        W33230   7.725   6.776  14.782 -0.2694 -0.2885  0.0031
15027W        W33231   7.516  13.267  12.531 -0.1100  0.3071 -0.0945
15028W        W33232  10.675  14.581   3.084  0.0592 -0.2204 -0.0520
15029W        W33233   8.552  13.781  13.050  0.1802 -0.1846 -0.1815
15030W        W33234   4.796   3.564   0.158  0.0926  0.1395  0.0640
15031W        W33235  16.454  16.801  12.336  0.0566  0.0790 -0.6569
15032W        W33236  16.956  14.499  11.266  0.1460  0.2525 -0.1304
15033W        W33237  10.345  13.292   6.073 -0.4165  0.2874  0.1178
15034W        W33238  11.116  13.801   0.999  0.0231 -0.2630  0.0631
15035W        W33239   7.750   6.941   4.000 -0.1751  0.0887  0.0510
15036W        W33240   1.737   9.953  13.773 -0.2732  0.1868 -0.0684
15037W        W33241   1.957  14.161   4.528  0.0629  0.0365 -0.0461
15038W        W33242  18.365  13.792   2.163 -0.1862  0.4223 -0.1125
15039W        W33243   0.882  11.169   0.459  0.2747  0.0424 -0.0376
15040W        W33244   7.347  10.758  14.096 -0.4059 -0.3040  0.0674
15041W        W33245  17.582   9.715   3.920 -0.3693 -0.0195 -0.1078
15042W        W33246   1.849   1.024  14.849 -0.2148 -0.3877  0.0778
15043W        W33247   3.268   4.453   2.204  0.0390 -0.0023  0.2098
15044W        W33248   0.126   7.409  15.201  0.0953 -0.0106  0.0642
15045W        W33249  12.388   2.254   2.060  0.0372 -0.1144  0.3522
15046W        W33250  18.147   4.668  11.186 -0.2460  0.2966 -0.1859
15047W        W33251  12.818  11.823   4.865  0.0072  0.1446  0.2016
15048W        W33252   1.982  17.084   3.946 -0.3352 -0.0449 -0.2904
15049W        W33253   9.736  13.585   1.586 -0.1056  0.1853 -0.2449
15050W        W33254   5.482   4.965   0.874 -0.1307 -0.0334  0.0926
15051W        W33255  15.432  12.235   1.702  0.2999 -0.2138 -0.2620
15052W        W33256   9.365   8.165  11.700  0.0300 -0.3032  0.1625
15053W        W33257   2.811  13.213   4.039  0.1036  0.0358 -0.0771
15054W        W33258  17.237  11.614  12.283  0.1262  0.0818  0.2061
15055W        W33259   1.870  16.245  15.698  0.2231 -0.2181 -0.0685
15056W        W33260  11.008   7.557  15.373  0.0918 -0.1579  0.1798
15057W        W33261   9.276  17.864  14.045 -0.1055  0.2421 -0.1279
15058W        W33262   8.057  11.929  15.555  0.0086  0.0028  0.1361
15059W        W33263   6.973   1.695  13.227 -0.0594  0.2036  0.1959
15060W        W33264   2.805   8.719   0.084 -0.1803 -0.0106 -0.3623
15061W        W33265  10.023  13.257   3.853 -0.0134  0.2799 -0.1225
15062W        W33266  18.092   4.506  13.255  0.0214  0.1555  0.2517
15063W        W33267  10.858   2.390  13.777 -0.0843  0.0511 -0.0349
15064W        W33268  12.383   0.894   1.888  0.1753  0.4929 -0.0149
15065W        W33269   0.335  16.504  15.245 -0.2950 -0.0141  0.0540
15066W        W33270   9.732  16.407   0.112  0.1476 -0.1055  0.1262
15067W        W33271  17.655   1.709   3.228  0.0015 -0.0861  0.0404
15068W        W33272  12.418  13.509  15.018  0.0804  0.0866 -0.1127
15069W        W33273   5.505   5.442  15.380  0.3146  0.0621  0.1449
15070W        W33274   2.636  14.556  13.674  0.2850 -0.0909  0.1723
15071W        W33275   3.199   3.603   0.071  0.1876 -0.1321  0.3441
15072W        W33276   3.571  15.181   2.546 -0.0840 -0.0823 -0.0611
15073W        W33277   1.284   5.697   3.334  0.2144  0.0897 -0.0104
15074W        W33278   6.000  15.064  11.143 -0.1480 -0.1438 -0.1772
15075W        W33279   0.368  12.158   4.510 -0.0219 -0.1754 -0.0210
15076W        W33280  13.383   8.250   1.752  0.0611  0.0642  0.0062
15077W        W33281   3.120   7.160  14.308  0.2453  0.2876  0.1154
15078W        W33282  10.909  11.568   1.088 -0.0392  0.0502 -0.2681
15079W        W33283   6.798   1.294   4.245  0.0237  0.0917  0.2282
15080W        W33284  12.710   9.861  14.042  0.0087 -0.2813  0.0580
15081W        W33285  11.540  15.644   0.239 -0.1903 -0.1351  0.0854
15082W        W33286   9.517   6.607   0.035  0.1093  0.1424  0.1508
15083W        W33287   1.231   7.675   0.801 -0.2559  0.0119 -0.0626
15084W        W33288   5.594   4.204  12.381 -0.0826 -0.0681  0.1735
15085W        W33289   1.272   6.394  14.305 -0.0287  0.2941  0.0481
15086W        W33290   8.287   6.081   2.789  0.1524  0.0330 -0.2044
15087W        W33291   4.637  15.931  15.294 -0.0455  0.0669  0.2762
15088W        W33292   0.880  14.315  13.121  0.0299 -0.2440  0.1515
15089W        W33293  17.246  17.039  15.079  0.1111 -0.0560 -0.1215
15090W        W33294   2.788  13.450  14.438 -0.1998 -0.0982  0.2230
15091W        W33295   7.778   6.388   0.844 -0.3758 -0.2709  0.2054
15092W        W33296   6.618   5.168  11.631 -0.1250 -0.0687  0.0721
15093W        W33297   5.670   4.662   1.275 -0.1257  0.0175  0.0889
15094W        W33298   4.321  17.820   3.931  0.1342  0.3666 -0.0179
15095W        W33299  10.210   1.228  14.186  0.1066  0.1879 -0.0849
15096W        W33300   8.151  15.913   3.652 -0.1864 -0.2901 -0.1177
15097W        W33301   3.439   8.843   1.514  0.0780  0.0315  0.1452
15098W        W33302  14.908  13.733   5.132  0.3468  0.0641  0.0041
15099W        W33303  17.159  11.471   4.820  0.1788  0.0825 -0.0205
15100W        W33304  16.748   1.209   2.732  0.1302  0.3658 -0.0406
15101W        W33305  18.078  15.132  11.753 -0.0685  0.1055  0.1033
15102W        W33306   0.943   0.216  11.912  0.0042  0.1503 -0.0136
15103W        W33307  10.895   6.990   1.062  0.1346 -0.5301  0.0491
15104W        W33308  14.763   0.793  10.979 -0.1190 -0.1495 -0.1978
15105W        W33309   8.875   5.159   1.977  0.0232  0.1687 -0.1206
15106W        W33310   9.954  15.223   1.333  0.0238 -0.0041  0.2159
15107W        W33311   1.236  13.353   5.097 -0.1498  0.2162  0.1342
15108W        W33312  15.596  14.973  11.509 -0.1260  0.0886  0.1466
15109W        W33313  11.573   6.611   1.797 -0.0841 -0.4255  0.1807
15110W        W33314   3.419   0.142   1.212  0.2195 -0.2385  0.4516
15111W        W33315   1.210  13.844   4.987 -0.2760  0.1231 -0.3525
15112W        W33316   8.146  15.246   1.527  0.1106  0.1202 -0.2026
15113W        W33317   9.065   5.786   5.105  0.2555 -0.2914  0.2311
15114W        W33318  11.353  13.462  15.516 -0.0043  0.1949  0.0983
15115W        W33319   4.847  14.121   4.095  0.0475  0.0210 -0.1075
15116W        W33320   8.183  15.230   0.890  0.0482 -0.2058 -0.0506
15117W        W33321   0.169  16.199   2.719  0.2670  0.0855 -0.1603
15118W        W33322   0.301   0.394  14.894 -0.1884 -0.0708 -0.0218
15119W        W33323   4.987   0.554  15.313  0.1300  0.2023 -0.4132
15120W        W33324   1.997   8.254  13.589 -0.0001 -0.2423 -0.0089
15121W        W33325   1.824  11.314   2.623 -0.0674  0.0743  0.1415
15122W        W33326   6.280   9.889   2.104 -0.1168  0.0806 -0.1541
15123W        W33327  13.817   7.239   1.949  0.1108  0.4057  0.5188
15124W        W33328   2.551  13.219  13.908  0.2170  0.1624 -0.2721
15125W        W33329  12.117   7.939   3.153  0.2146  0.0957 -0.0889
15126W        W33330   2.096  14.926   1.595 -0.1946 -0.0390 -0.2781
15127W        W33331  14.085  13.375   0.207  0.1428  0.1444  0.4661
15128W        W33332   9.736   1.155  13.903 -0.1000  0.0235  0.1041
15129W        W33333   7.995   2.874  12.821  0.0868 -0.0691  0.2781
15130W        W33334   8.337   5.181   3.563 -0.0760  0.1691  0.2483
15131W        W33335   1.770  10.545  10.901  0.0023  0.1674 -0.2774
15132W        W33336   7.807   1.312   2.980  0.0661  0.1282 -0.0457
15133W        W33337   7.742   0.184   2.200 -0.0791  0.1625 -0.1090
15134W        W33338   9.255  17.871   3.501 -0.0473 -0.0968  0.0022
15135W        W33339   0.444  11.842  13.042 -0.0396  0.2266 -0.0158
15136W        W33340   2.581   9.359  12.910 -0.1248  0.2806 -0.0212
15137W        W33341  13.319   8.235  11.459 -0.0739 -0.1335 -0.3223
15138W        W33342  14.630  13.315  13.403  0.0190  0.0688  0.3010
15139W        W33343   2.465   6.912  14.165  0.1649 -0.1330  0.2546
15140W        W33344   1.660  16.923  14.442  0.2290 -0.1618  0.0380
15141W        W33345   2.846  16.513  10.249 -0.2374  0.2372  0.1530
15142W        W33346  16.559  12.617  14.427 -0.1171  0.0978 -0.1039
15143W        W33347  12.944  16.087   0.661  0.1517  0.1055  0.2459
15144W        W33348   2.467  11.468   4.403  0.0495  0.0629 -0.0554
15145W        W33349   2.731  16.680  14.344  0.0006  0.1373  0.0179
15146W        W33350   4.649  15.129  11.863  0.2632 -0.0974 -0.1290
15147W        W33351   7.975  12.248   5.554 -0.0906  0.2462 -0.0182
15148W        W33352  10.340   7.122   2.214  0.2299  0.1783 -0.1233
15149W        W33353  12.586   6.667   2.814  0.0678  0.1794  0.0549
15150W        W33354  17.518   9.269   0.758 -0.2224  0.0642  0.0040
15151W        W33355  14.476   8.436   0.423  0.2424 -0.1546 -0.1396
15152W        W33356  10.507  13.590   4.975 -0.2150 -0.0531  0.0373
15153W        W33357  12.724   7.572   0.266  0.2909  0.2664  0.0727
15154W        W33358  12.654  11.094   2.058  0.2701 -0.1348 -0.1230
15155W        W33359   3.405   9.150   1.892 -0.1477 -0.1020 -0.2399
15156W        W33360   8.463   2.937  12.534 -0.0292  0.0896 -0.1518
15157W        W33361  12.429   3.832   1.882  0.0146 -0.1867  0.2651
15158W        W33362  10.369  12.272  12.145 -0.0757  0.1094  0.3318
15159W        W33363  16.022  17.219   1.173  0.2379 -0.0333  0.1345
15160W        W33364  12.827   9.247  11.899 -0.2186  0.0709 -0.2885
15161W        W33365   0.498   0.277   4.172 -0.0572  0.1548 -0.0793
15162W        W33366  18.063  12.091   1.376 -0.2225 -0.2058 -0.2112
15163W        W33367  11.391   3.560   1.601  0.1106 -0.3264  0.0437
15164W        W33368   3.305  11.202  13.711  0.3407  0.0564  0.1461
15165W        W33369   9.769   5.679  13.066  0.0351  0.1318 -0.0277
15166W        W33370  13.086  13.572   2.405  0.1789 -0.1744  0.0260
15167W        W33371  14.631  16.386  13.825  0.1700 -0.0233 -0.1727
15168W        W33372   6.951   0.215  15.326  0.4023  0.1092  0.0127
15169W        W33373   9.639   5.159  14.283  0.0160  0.1475  0.2033
15170W        W33374   9.026  14.177   5.110 -0.3814  0.0436  0.2969
15171W        W33375   8.461   7.422   1.453 -0.1028  0.0931  0.1895
15172W        W33376  11.923   2.982  12.712 -0.1049  0.3143 -0.0482
15173W        W33377   0.997   4.682  15.399  0.2680  0.1709 -0.2355
15174W        W33378   1.934   5.742  12.407  0.3402 -0.0470  0.1307
15175W        W33379   9.635   7.395  11.441 -0.2841  0.0339 -0.0738
15176W        W33380   5.056   4.105  10.978 -0.0943 -0.0509  0.1516
15177W        W33381  13.434   7.259   3.080 -0.1647  0.1080 -0.1908
15178W        W33382   7.718   2.039  10.217 -0.0248  0.3524  0.1346
15179W        W33383   2.874  16.401  13.164  0.1207 -0.0248  0.2492
15180W        W33384   8.923   2.366   1.315 -0.2169  0.0049 -0.2075
15181W        W33385   1.667  12.904  13.940  0.0156 -0.1477 -0.1313
15182W        W33386   0.512   5.336  14.802  0.0886  0.0155  0.2631
15183W        W33387  17.835  10.710  15.416 -0.3631  0.0403  0.2881
15184W        W33388   2.232  13.233   1.654 -0.4269 -0.1000  0.1959
15185W        W33389   4.096  15.700  13.989 -0.0768  0.0072 -0.0026
15186W        W33390  17.591   3.811   3.329  0.0367  0.1759 -0.0273
15187W        W33391   1.565   4.242   3.143 -0.1378  0.0047 -0.2559
15188W        W33392  13.013  14.784   0.923 -0.2035 -0.1678  0.1273
15189W        W33393  11.565   6.778  13.002 -0.0913  0.0395  0.0139
15190W        W33394   2.204   1.149   1.316  0.1863 -0.1402 -0.1230
15191W        W33395  11.612  11.055  10.443  0.0633 -0.0543 -0.3378
15192W        W33396  13.387  13.543   0.659 -0.3742  0.0384  0.1173
15193W        W33397   7.778   1.553  15.458 -0.0005  0.0504  0.0452
15194W        W33398   2.947  18.110   4.370 -0.0888  0.4487  0.2347
15195W        W33399   7.976  13.686   2.543 -0.1213  0.0911 -0.1440
15196W        W33400  13.855   8.835  11.830 -0.1507 -0.1086 -0.0479
15197W        W33401  18.310  13.952  13.225 -0.1349  0.2720 -0.0723
15198W        W33402  11.180   7.140   2.871 -0.2159 -0.0295  0.0049
15199W        W33403  12.819   0.569   2.761 -0.0881  0.1319  0.1475
15200W        W33404   0.776   7.987   3.483  0.1985 -0.1320 -0.1113
15201W        W33405   4.597  12.178   0.190  0.2027  0.0287  0.3257
15202W        W33406   3.564   7.174   2.232  0.2975  0.2238  0.2076
15203W        W33407  13.126   7.445  11.201 -0.2170 -0.1573 -0.0332
15204W        W33408  16.797  14.339  15.040 -0.3124  0.0352 -0.1100
15205W        W33409   2.311   4.880   0.714 -0.1011  0.1084 -0.1291
15206W        W33410   3.198  12.373   1.952  0.1411  0.2264 -0.0340
15207W        W33411   1.972   9.136  11.227  0.3074 -0.0293  0.3004
15208W        W33412   1.870   2.596   2.825  0.1365  0.0334 -0.1829
15209W        W33413   6.424  16.074   0.753 -0.1025  0.3632 -0.0786
15210W        W33414  16.869  17.468  15.276  0.0640 -0.1227  0.3321
15211W        W33415   9.516  13.989  14.754  0.3212  0.1585 -0.0264
15212W        W33416   7.620   0.598  11.853 -0.1466 -0.2127  0.0137
15213W        W33417   5.931  15.256  15.314  0.0041 -0.1277  0.1201
15214W        W33418   4.880   3.537   4.000  0.2676  0.1183 -0.1472
15215W        W33419  13.283   5.277   3.626  0.0707  0.1707 -0.1878
15216W        W33420  12.187   7.894  13.663  0.0973  0.0592 -0.2143
15217W        W33421  16.014  10.777   2.914 -0.1253  0.3379  0.0881
15218W        W33422   6.666  12.941  15.133  0.0076 -0.1622  0.0906
15219W        W33423   3.486   2.032   5.545  0.1495  0.1449  0.0673
15220W        W33424   1.356  11.513   2.594 -0.2104  0.1551 -0.1072
15221W        W33425   3.004   3.398   1.245 -0.1318 -0.1313  0.0470
15222W        W33426   5.735   5.212   4.352 -0.0071 -0.3217  0.0354
15223W        W33427   3.729  14.292   2.703  0.1235 -0.2378  0.0450
15224W        W33428   5.495   6.351  12.539  0.3527  0.3776  0.0967
15225W        W33429   0.576   0.051   2.562  0.3835  0.0194 -0.3722
15226W        W33430   4.798   8.325   2.607  0.2072  0.0823 -0.0120
15227W        W33431  18.111  16.732  11.164  0.2120 -0.1387  0.0462
15228W        W33432  13.175   0.587   2.241 -0.1139  0.1133 -0.0129
15229W        W33433  16.558   7.827   2.917  0.2400 -0.0111  0.1955
15230W        W33434  10.646   0.536   3.746 -0.0122  0.0089 -0.0501
15231W        W33435  16.304   1.868   3.196 -0.0182  0.2350 -0.0972
15232W        W33436   7.892  17.196  15.424 -0.0070 -0.1129 -0.1360
15233W        W33437   6.433   0.067  14.842  0.1133 -0.1927  0.1016
15234W        W33438   5.060  16.481  13.016 -0.1758  0.0131  0.1801
15235W        W33439  16.594  12.809  12.653  0.0814 -0.1709  0.2222
15236W        W33440  17.493   2.554   4.662  0.1750 -0.0109  0.0407
15237W        W33441  14.066   0.969  13.533  0.2568  0.0432  0.1152
15238W        W33442   2.410  16.699   0.737 -0.2293  0.1626  0.1171
15239W        W33443   0.189   0.888  11.081 -0.4271 -0.2951  0.3152
15240W        W33444   5.299  10.939  11.851  0.0531  0.0004 -0.1383
15241W        W33445  17.479   1.978  14.269 -0.4790 -0.2910  0.2468
15242W        W33446   8.502   8.846  14.483 -0.0137 -0.1244  0.2378
15243W        W33447  11.587  15.672   0.755 -0.0306 -0.2345 -0.0981
15244W        W33448   2.046  13.260  11.324 -0.1250  0.1344  0.1335
15245W        W33449   0.639   3.050   1.707 -0.2174  0.0874  0.2017
15246W        W33450  12.311   6.765  11.197 -0.2954 -0.0568 -0.3168
15247W        W33451  12.667   2.061   1.459 -0.2286 -0.2056  0.1038
15248W        W33452  15.359  13.664   4.242 -0.3621 -0.0089  0.1325
15249W        W33453   0.262  11.597  13.490  0.0494  0.1379  0.0382
15250W        W33454  16.410   6.614   2.927  0.0609  0.0850  0.1542
15251W        W33455   5.383   4.531  12.666 -0.4187 -0.1112 -0.0437
15252W        W33456   3.856  13.545   3.387 -0.2646 -0.0634 -0.2637
15253W        W33457   6.565   5.417   2.180  0.0354 -0.1681  0.1497
15254W        W33458   0.154   5.103  11.106  0.0766  0.4134  0.0861
15255W        W33459  15.687   0.028   1.969 -0.1875  0.0533 -0.1950
15256W        W33460  11.868  15.881  15.680 -0.1948 -0.1238 -0.3643
15257W        W33461  16.929  11.724   5.209 -0.1304 -0.2652  0.3547
15258W        W33462  10.763   8.194   4.545  0.3028 -0.1335  0.1163
15259W        W33463   4.975  14.131  15.401 -0.1567  0.1416  0.3586
15260W        W33464   4.813   6.168   1.651  0.0745 -0.1623  0.0973
15261W        W33465  10.454  16.016  15.286  0.3739 -0.0982 -0.1906
15262W        W33466   4.413  17.487  14.282  0.0682  0.1468  0.0743
15263W        W33467  14.098   9.727   0.227  0.2621 -0.0341  0.2731
15264W        W33468  10.718   7.892  11.244  0.1690  0.0310 -0.1056
15265W        W33469   1.682  13.642   1.087 -0.2991  0.1269  0.0837
15266W        W33470  11.640   9.716  14.001 -0.1970  0.1439  0.0773
15267W        W33471   6.340  18.300  15.325 -0.1754  0.0130 -0.1975
15268W        W33472   1.908   7.649  13.081  0.1641  0.2375  0.0478
15269W        W33473   0.839  17.897   1.864  0.1449 -0.1459  0.3068
15270W        W33474   4.002   7.601   4.810 -0.2112  0.0400 -0.0427
15271W        W33475  10.893   5.679  14.794 -0.2865 -0.0648 -0.0577
15272W        W33476   5.650   7.299  14.148  0.2569 -0.0234  0.2114
15273W        W33477  14.781  18.249  12.380  0.1155 -0.0228 -0.0176
15274W        W33478  12.806   1.403   2.102  0.0025 -0.0937 -0.2710
15275W        W33479   5.695   1.645   1.127  0.0735 -0.4726 -0.0323
15276W        W33480   1.104  14.803  13.139  0.0674  0.0067  0.1114
15277W        W33481  10.652  16.950  12.916 -0.2886 -0.2379 -0.1346
15278W        W33482   1.513  16.353   1.372 -0.1530 -0.0246 -0.0201
15279W        W33483  17.302  13.860   1.633  0.2151 -0.1618  0.0122
15280W        W33484   7.202   9.296   0.800 -0.2098 -0.0317  0.2251
15281W        W33485  11.334   0.873   5.380  0.0348  0.2349 -0.1344
15282W        W33486   9.275   3.573  15.644  0.1559 -0.0619  0.0381
15283W        W33487  11.513  11.754   2.052 -0.1567  0.0291  0.2400
15284W        W33488  15.662   9.574   1.944  0.0629 -0.0745 -0.1242
15285W        W33489  10.304  12.602   3.446  0.0748  0.1454  0.0198
15286W        W33490  12.666  18.310   1.105 -0.2783 -0.1418 -0.0697
15287W        W33491   4.984  12.624   5.317  0.2225  0.0268 -0.1429
15288W        W33492   4.126  10.546   1.047 -0.3069 -0.0936 -0.0582
15289W        W33493   2.258  14.856  13.789  0.1887 -0.2178 -0.0189
15290W        W33494   0.248   4.427   3.938 -0.1262 -0.2997 -0.1251
15291W        W33495  11.766   1.670  14.368  0.0655 -0.1465 -0.3586
15292W        W33496  16.900  16.225   4.484 -0.1854 -0.1095  0.1720
15293W        W33497   8.624   0.837   1.169 -0.0405  0.2095 -0.2529
15294W        W33498  10.979   9.662   2.317 -0.0791 -0.1817 -0.0738
15295W        W33499   7.963  11.494   3.308  0.1913 -0.1911  0.0835
15296W        W33500   2.623   8.722  15.021 -0.1686 -0.0949 -0.0456
15297W        W33501   6.701  10.359  13.515  0.0506  0.0067  0.2569
15298W        W33502  14.322   9.773  11.038  0.0355 -0.0746 -0.0294
15299W        W33503  15.216   4.504  12.355 -0.2079  0.2458  0.1902
15300W        W33504   9.686  15.460  11.594  0.2613  0.0738 -0.1783
15301W        W33505   1.261  11.593  11.610  0.1440  0.1605 -0.0570
15302W        W33506   8.103  12.078  12.449 -0.0516 -0.0802  0.1497
15303W        W33507   3.940   2.462  11.865 -0.0119 -0.1567  0.2494
15304W        W33508   9.052   8.463  15.275 -0.3673  0.1363 -0.1727
15305W        W33509  14.914  10.777  13.990 -0.1497 -0.0978 -0.0772
15306W        W33510   7.538   0.205  11.553  0.0169  0.0484 -0.1508
15307W        W33511  17.668  10.870   1.155  0.0717 -0.3407  0.1826
15308W        W33512   5.002   0.324   2.853  0.3521  0.0842  0.1852
15309W        W33513  15.014  13.155   3.456 -0.1210  0.1901 -0.0815
15310W        W33514  16.418  14.247   2.674  0.0475 -0.0136  0.0923
15311W        W33515  10.334  14.594   0.188 -0.2055 -0.2101  0.0889
15312W        W33516   5.164   3.533  12.949  0.0947 -0.3985  0.2549
15313W        W33517  13.367   5.146   2.060  0.0317  0.0127 -0.1382
15314W        W33518   1.181  17.255   2.389  0.3143 -0.0456 -0.0133
15315W        W33519   9.904   3.444  10.796  0.0319 -0.1929  0.0445
15316W        W33520   1.826   3.894  11.164 -0.0149 -0.0116  0.0069
15317W        W33521   3.930   7.657  11.906  0.1004 -0.1927  0.1432
15318W        W33522  14.333   9.393   2.839  0.2120  0.3066  0.0412
15319W        W33523   6.847   4.941   3.003  0.0379 -0.0895  0.1045
15320W        W33524  15.368   4.221  13.658 -0.0787  0.1770 -0.2029
15321W        W33525  11.931  11.081   2.150  0.0140  0.1577  0.1051
15322W        W33526  14.679   2.043  14.771 -0.1007  0.1055  0.2182
15323W        W33527   0.458  11.113   3.738 -0.1865 -0.4328  0.2953
15324W        W33528  15.756  10.191  14.952  0.1965 -0.0225 -0.3664
15325W        W33529   2.118   5.808   2.274 -0.1882  0.4111 -0.1790
15326W        W33530   9.723   2.941   3.277 -0.2475 -0.0329  0.0091
15327W        W33531  16.229   6.904  13.583  0.1535 -0.0057  0.1726
15328W        W33532  15.901   3.504   2.502  0.1359  0.0112 -0.5695
15329W        W33533  13.806   6.937   2.979  0.2301 -0.3046 -0.1037
15330W        W33534  15.394  13.581   1.597 -0.0170 -0.0663  0.2841
15331W        W33535  11.243  17.057   1.349 -0.0808 -0.1787  0.4212
15332W        W33536   2.004  14.391   3.119  0.2236 -0.1029  0.0595
15333W        W33537   1.701   8.769   2.307  0.0345  0.1684  0.2227
15334W        W33538  13.815  13.642   2.719 -0.2583 -0.0640 -0.0995
15335W        W33539   5.413  12.487  12.963  0.0281 -0.0543 -0.2267
15336W        W33540  13.445   7.060   0.927  0.0447 -0.2189  0.1777
15337W        W33541  16.258  17.730  12.214  0.1939  0.0852 -0.2669
15338W        W33542   0.786   6.801  12.009 -0.0483 -0.0792  0.3935
15339W        W33543   3.105  16.920   2.950  0.0537 -0.2700 -0.0652
15340W        W33544  10.084  15.473   3.019 -0.1376 -0.1392  0.1669
15341W        W33545   8.024  17.615  15.588 -0.0891  0.0473 -0.0954
15342W        W33546   2.982   5.643  10.845 -0.1315  0.2410 -0.0108
15343W        W33547  18.367   0.068  15.196 -0.1518  0.1427  0.0534
15344W        W33548   8.410   5.013  14.793  0.0577  0.0231 -0.0579
15345W        W33549  10.323  12.789  15.107 -0.3626 -0.3383  0.0343
15346W        W33550   2.788   4.970   5.340 -0.1228 -0.0921 -0.0725
15347W        W33551   8.075  16.752  14.104 -0.1233 -0.0881 -0.0724
15348W        W33552  13.180  16.227   2.738  0.0944  0.1412  0.0601
15349W        W33553  17.244   8.392  15.027 -0.0967  0.2554 -0.1629
15350W        W33554   1.283  17.497   0.594 -0.2081 -0.1513 -0.2007
15351W        W33555   4.261   2.533  13.385 -0.1521  0.0766 -0.1080
15352W        W33556  16.600  18.316  11.128 -0.0226 -0.0943 -0.0207
15353W        W33557  16.213   6.186   1.419  0.3246 -0.1235 -0.0071
15354W        W33558   8.430   5.400  12.124  0.4944 -0.3507 -0.0989
15355W        W33559   5.802  10.605   4.986 -0.1531 -0.0059 -0.0782
15356W        W33560   9.475   3.413  14.147  0.2421 -0.2402  0.0237
15357W        W33561   4.312   6.155  13.126 -0.1294 -0.3274 -0.0707
15358W        W33562  17.324   4.967   1.473 -0.2921 -0.0687 -0.1174
15359W        W33563   5.288   4.513  13.239  0.0379 -0.0875 -0.0119
15360W        W33564  17.727  11.111  11.480  0.3539 -0.2356  0.2293
15361W        W33565  16.740   6.298   0.668  0.1956 -0.1283 -0.2383
15362W        W33566   1.184  17.556  13.897 -0.0953  0.0940  0.2376
15363W        W33567  14.235   5.935  13.878  0.2916 -0.0100  0.1232
15364W        W33568  16.965  15.602  15.002  0.3323  0.0452  0.2982
15365W        W33569  16.690   5.333   3.655 -0.0055  0.1074  0.1217
15366W        W33570   0.186   9.536   1.991  0.0084  0.0758 -0.0074
15367W        W33571   0.291  15.094   1.457  0.2391 -0.0467 -0.0711
15368W        W33572  15.484  16.372   0.821  0.0020  0.0275  0.3799
15369W        W33573  14.122   0.127   3.107  0.2195 -0.1856  0.1187
15370W        W33574  11.226   1.951   5.331  0.1328  0.0895 -0.2495
15371W        W33575   1.836   5.800   1.321  0.2584  0.1437 -0.0194
15372W        W33576   2.417  14.097  15.113 -0.1486 -0.0759  0.1094
15373W        W33577  11.270  13.254  13.162  0.1734  0.2129 -0.0906
15374W        W33578  12.394  10.824  13.754 -0.2890  0.2924 -0.2331
15375W        W33579   2.278  15.310   0.701 -0.1839  0.2155  0.0408
15376W        W33580  11.468   2.659  12.397 -0.1286 -0.2441 -0.1433
15377W        W33581  10.122   8.096   0.738 -0.0248 -0.3383  0.1768
15378W        W33582   9.302   2.158   2.103  0.0480  0.1263  0.0803
15379W        W33583  14.311  13.153   0.644  0.1352 -0.0388  0.4117
15380W        W33584  15.384   5.369   4.891 -0.1108  0.0074 -0.0860
15381W        W33585  15.375   4.938  14.803 -0.0352 -0.1846 -0.1875
15382W        W33586  16.498  11.626  15.304 -0.2316  0.0079  0.1101
15383W        W33587  18.008  12.952  11.714  0.2421  0.1566 -0.1901
15384W        W33588  17.470  15.515   1.089 -0.1698 -0.4812 -0.0096
15385W        W33589   9.502  13.164  11.730 -0.1473 -0.1749 -0.0536
15386W        W33590  11.183   0.933   1.181  0.4870  0.0305  0.0335
15387W        W33591   0.998   6.837  13.068  0.0132  0.1872  0.0873
15388W        W33592   6.166  10.896   1.072 -0.0436 -0.0571 -0.0885
15389W        W33593  11.512   5.314  11.931  0.0625 -0.2608 -0.0776
15390W        W33594  16.888  17.842  11.492 -0.0578 -0.2835 -0.1175
15391W        W33595   3.675   7.679   5.238  0.1527  0.2473 -0.0318
15392W        W33596   4.961  17.747   1.426  0.0695  0.0995  0.1083
15393W        W33597   6.348  16.491   1.698  0.1374 -0.0798 -0.1501
15394W        W33598   2.352   8.140   1.302 -0.0084  0.0753  0.1004
15395W        W33599  11.934   2.537  14.609 -0.0962  0.2411  0.1825
15396W        W33600  14.775   1.289  13.882 -0.0516 -0.0515  0.0374
15397W        W33601   7.269   0.306   0.844 -0.3540  0.1859  0.1858
15398W        W33602  17.294   8.084   2.254 -0.1365 -0.1981 -0.0356
15399W        W33603   6.193   4.912  10.923 -0.0382  0.0877 -0.1239
15400W        W33604   0.376  12.137  11.766 -0.2460 -0.3716  0.1494
15401W        W33605  10.834   9.477   4.748  0.2165  0.0266  0.1964
15402W        W33606   8.617  17.821   2.718  0.3178  0.0658  0.1628
15403W        W33607  13.477  15.029   4.814 -0.0549 -0.0355 -0.0829
15404W        W33608   9.540  12.901   1.723  0.2377  0.0015 -0.2176
15405W        W33609  17.098   4.242  13.206  0.0227  0.0804  0.0282
15406W        W33610   4.426   3.736   0.521  0.1022  0.2679 -0.0447
15407W        W33611   3.448   9.862   3.063  0.2369 -0.1845 -0.3018
15408W        W33612  13.129  17.622  14.349  0.2063 -0.1204 -0.2966
15409W        W33613  18.193   1.638  13.908  0.1523 -0.0909 -0.0400
15410W        W33614   1.392   5.671   1.112 -0.0092 -0.0502  0.0128
15411W        W33615   6.958   7.309  11.941 -0.1242  0.2166  0.2029
15412W        W33616   4.842  11.673  15.003  0.0948  0.0981  0.1590
15413W        W33617  12.854  17.633  12.768 -0.3967  0.1289 -0.3640
15414W        W33618  14.373   8.643  11.178 -0.0722  0.1643 -0.0621
15415W        W33619   7.789  13.273   0.041 -0.1033  0.0686 -0.1068
15416W        W33620  14.233  14.444  14.573 -0.1851 -0.2082 -0.1740
15417W        W33621   6.964   6.798   0.650  0.0087  0.0889 -0.0918
15418W        W33622  18.028  13.306  14.853  0.1661  0.2260  0.1050
15419W        W33623   0.805  18.082  11.724  0.5142  0.0453 -0.0947
15420W        W33624   6.766   8.472  15.665  0.0728 -0.0064 -0.1181
15421W        W33625  13.039   7.843   1.689 -0.0836 -0.0926  0.0099
15422W        W33626  13.671   8.957  15.163 -0.0896 -0.2219 -0.0251
15423W        W33627   2.149   4.631  15.462 -0.0931  0.0823  0.1844
15424W        W33628   9.787   7.719   1.623  0.2220  0.1544 -0.0198
15425W        W33629   9.676  10.995  11.401 -0.1096  0.1406 -0.1394
15426W        W33630   8.638   7.649   2.639  0.1771 -0.0576 -0.0465
15427W        W33631  13.200   7.934  15.069  0.0308 -0.2311  0.0690
15428W        W33632   3.504   9.492   0.547 -0.0559 -0.3323 -0.0483
15429W        W33633  13.392   2.114  14.712  0.0201 -0.2120 -0.1263
15430W        W33634  10.933   2.732   5.123 -0.1537  0.0921 -0.1222
15431W        W33635   0.385  16.974  12.724 -0.0399 -0.0879  0.0701
15432W        W33636   3.050   3.499   3.089  0.1000 -0.0694  0.0714
15433W        W33637   9.854  11.401   2.331 -0.5166  0.2648 -0.2872
15434W        W33638   7.744   7.672  13.247  0.2627 -0.1474 -0.0491
15435W        W33639   8.270   2.055   4.623 -0.0317  0.0575 -0.1235
15436W        W33640   2.526   5.087  14.466  0.0515 -0.3423 -0.0067
15437W        W33641   9.297   4.825   4.756 -0.0228 -0.4163 -0.1652
15438W        W33642  15.759   7.824   3.824 -0.2372 -0.4550  0.0962
15439W        W33643  15.711  14.081   3.478  0.1219  0.0794  0.1020
15440W        W33644   4.944  16.197  12.414 -0.0945  0.0208  0.1013
15441W        W33645  14.652  16.599   0.838  0.0614 -0.1427  0.2203
15442W        W33646  14.754   2.818   2.997  0.5295  0.1633  0.0177
15443W        W33647   7.106  16.926   4.876 -0.1518 -0.0154 -0.0058
15444W        W33648   2.909  14.942  13.461 -0.1540  0.0742  0.0608
15445W        W33649   1.496   8.661   1.844 -0.0469  0.0525  0.2668
15446W        W33650  16.205  15.807  15.418  0.2182  0.0010  0.1826
15447W        W33651  17.749  18.017  13.727  0.0400 -0.0312  0.2505
15448W        W33652  12.055  13.173  11.189  0.1482  0.1555 -0.0613
15449W        W33653  15.956  14.557   3.340  0.2437 -0.1579 -0.1484
15450W        W33654  10.986  18.309  11.163  0.2667  0.2093 -0.2149
15451W        W33655   5.199  16.887   3.282  0.1510 -0.0099  0.0479
15452W        W33656  17.759   1.841   0.376 -0.1140  0.0562  0.1320
15453W        W33657  17.739  15.796  14.500  0.0246 -0.1415 -0.0326
15454W        W33658   3.270  16.122  15.429  0.0602 -0.0609 -0.1927
15455W        W33659  10.525  13.007  13.516  0.0696  0.2008 -0.1381
15456W        W33660   2.649   9.237  11.938 -0.0918 -0.1751 -0.1335
15457W        W33661  10.592  12.097  13.115  0.0919  0.1696  0.0806
15458W        W33662   2.417  14.377  12.201 -0.0709 -0.2261  0.2253
15459W        W33663  12.104   3.354   0.544  0.0495  0.1814 -0.0518
15460W        W33664  14.573  10.236  11.243 -0.1452  0.0044 -0.2802
15461W        W33665   4.757   7.786   5.702 -0.4110  0.2272  0.2589
15462W        W33666   1.910   6.822   1.224 -0.1883  0.0858 -0.3689
15463W        W33667   0.332   5.208   2.335  0.3695  0.0700  0.0770
15464W        W33668   9.092  10.026   4.228 -0.1401 -0.0909  0.1509
15465W        W33669   9.611   6.059   3.410  0.1449 -0.3101  0.0934
15466W        W33670   5.646  18.057  12.780  0.1168 -0.0839 -0.3362
15467W        W33671   0.240  17.029   1.394 -0.1282 -0.2516 -0.0097
15468W        W33672  16.448   8.691  12.255 -0.0561 -0.0532  0.0822
15469W        W33673  15.896  10.440  11.015 -0.4251 -0.1635 -0.1998
15470W        W33674  14.849   8.935   1.814  0.3326 -0.0544  0.0381
15471W        W33675   9.714   7.410   4.693  0.0460  0.0499  0.0549
15472W        W33676   6.450  15.931   0.108  0.1251 -0.0866 -0.0343
15473W        W33677  10.635   3.650   4.956 -0.1905 -0.1875  0.0760
15474W        W33678   3.282  10.951  12.549  0.4696 -0.3175  0.0946
15475W        W33679   5.077  10.652  13.405 -0.3709 -0.1126 -0.1999
15476W        W33680  18.262  17.179   0.648 -0.0197  0.3267 -0.0067
15477W        W33681   8.672  10.901  11.721  0.0209 -0.1133  0.1843
15478W        W33682   1.104   8.301  12.819 -0.4364 -0.1087  0.3747
15479W        W33683   7.022   3.880  12.355  0.1610  0.0622 -0.0051
15480W        W33684   8.741  17.018   4.381 -0.0280  0.0617  0.1941
15481W        W33685   8.245  14.757   4.029  0.0898  0.5246  0.0075
15482W        W33686   8.666   5.238  11.708 -0.1190 -0.3086  0.1065
15483W        W33687  18.335   3.130   2.614  0.3107  0.0119 -0.1440
15484W        W33688   2.882   6.313   4.272 -0.0068 -0.1113 -0.3800
15485W        W33689   8.277   3.401   3.564  0.0195 -0.1880 -0.1053
15486W        W33690  17.495   8.826  13.026 -0.0289 -0.0417  0.3124
15487W        W33691  13.729   5.061   3.509 -0.1571 -0.0914 -0.2068
15488W        W33692   9.052  17.873   4.716 -0.2243  0.1333 -0.0048
15489W        W33693   6.103  10.423  14.900 -0.3016  0.2324 -0.1707
15490W        W33694   4.441   8.842  13.804  0.2312 -0.1636  0.0400
15491W        W33695   9.199   3.665   0.843 -0.0427  0.0962 -0.0118
15492W        W33696  17.454  15.676  15.109  0.1419  0.0817 -0.2302
15493W        W33697   4.692  15.583  15.672  0.3386 -0.0314 -0.0766
15494W        W33698   4.264  12.498   0.017  0.2382 -0.0713 -0.1192
15495W        W33699   6.713  13.164   2.002 -0.0246  0.1201 -0.0703
15496W        W33700   9.690   2.314  11.851  0.0045 -0.1855 -0.4628
15497W        W33701   7.490   5.681  13.862 -0.0013  0.3412  0.0629
15498W        W33702  18.279   7.148  11.492 -0.2995 -0.2100  0.1185
15499W        W33703   0.375  17.986   1.563  0.0392  0.2760  0.1383
15500W        W33704   3.062  12.096   3.267  0.1395  0.2017 -0.1610
15501W        W33705   1.235  17.419  11.164 -0.3494  0.1522 -0.2001
15502W        W33706  17.397  12.334   3.612  0.3817 -0.0535  0.4785
15503W        W33707   2.663   5.477   5.223 -0.2674  0.1964  0.1741
15504W        W33708   1.111   9.157  11.642 -0.0489  0.0152  0.0184
15505W        W33709   2.205  11.657   2.500 -0.0440 -0.3625  0.1019
15506W        W33710  15.832   5.516  14.356  0.1078 -0.1337  0.3232
15507W        W33711  15.193   8.945  14.376 -0.2012  0.0319 -0.0772
15508W        W33712  14.804  10.457   0.087 -0.0077  0.1767  0.0486
15509W        W33713   5.467   9.426  11.065 -0.1174 -0.0806  0.0331
15510W        W33714  15.101  15.353   2.135  0.0692  0.3748  0.1654
15511W        W33715   1.617   2.708   4.341  0.2023  0.2526  0.1293
15512W        W33716  16.657  12.673  11.121  0.1239  0.0192  0.0363
15513W        W33717  10.598   5.560  15.589 -0.0491  0.1423 -0.0434
15514W        W33718   7.636   2.881   3.260  0.0373 -0.0183 -0.0070
15515W        W33719   7.806  17.971  14.445 -0.1246  0.1092  0.1048
15516W        W33720   5.579   3.676   2.266 -0.2292  0.1329 -0.0413
15517W        W33721   1.235   6.434   0.102 -0.0529  0.0314  0.5178
15518W        W33722   9.218  17.410   3.264 -0.0968  0.2834 -0.1894
15519W        W33723  12.175   2.771   2.373  0.3916  0.0452  0.0007
15520W        W33724  12.044  15.578   2.246 -0.1055 -0.1997 -0.2517
15521W        W33725   2.547  15.575  11.771  0.0211  0.1225  0.1592
15522W        W33726   4.579   1.915   1.340 -0.3456  0.2362 -0.1255
15523W        W33727   1.894  13.232   4.560 -0.1239 -0.0574  0.0439
15524W        W33728  13.452   5.008   1.560 -0.1992  0.0446  0.0255
15525W        W33729   6.583   0.774   1.403  0.2695  0.1940 -0.2238
15526W        W33730   7.695   7.214  15.027  0.1459 -0.2010 -0.2340
15527W        W33731  13.905  12.108  11.201  0.1693  0.0781  0.0490
15528W        W33732  12.516  15.707   4.555 -0.4288  0.1827 -0.1634
15529W        W33733  17.712   8.185   0.417  0.0694 -0.0063 -0.0810
15530W        W33734   3.250  12.187  15.680  0.1429  0.0775 -0.1880
15531W        W33735  14.810  14.010   3.365  0.0971 -0.2100  0.0930
15532W        W33736   7.232   5.170   0.530  0.0044 -0.0792  0.0017
15533W        W33737  11.354   7.292  10.148  0.0859 -0.0716  0.2697
15534W        W33738   5.896  12.506   2.897 -0.1588  0.0248 -0.0823
15535W        W33739   1.038  16.275  11.384 -0.4639  0.2432  0.0963
15536W        W33740   3.736   7.514   1.504  0.2044  0.1677  0.0462
15537W        W33741  15.560   1.966  15.682  0.0163 -0.2431 -0.3667
15538W        W33742   3.261  13.601   4.349  0.3815 -0.3699 -0.1506
15539W        W33743  15.335  14.812   0.280 -0.2486 -0.0483  0.2928
15540W        W33744  17.143  15.155   3.775  0.1781  0.2728 -0.1540
15541W        W33745  14.372  15.167  12.711  0.1225  0.0233 -0.0334
15542W        W33746   4.744   2.354   0.497  0.0511  0.0560 -0.1180
15543W        W33747   6.105  18.131  14.851  0.0058 -0.1503  0.4522
15544W        W33748   8.241   2.601   4.107 -0.0281 -0.0183 -0.0194
15545W        W33749   9.803  14.918   3.181 -0.1523 -0.0791 -0.0575
15546W        W33750   1.754   4.873   0.814  0.2411  0.4240 -0.0806
15547W        W33751   3.018   8.478  14.239 -0.0988  0.0871 -0.1033
15548W        W33752   7.536   4.478   3.491  0.2942  0.2677  0.0558
15549W        W33753  13.473  11.322  12.432  0.3833  0.1302  0.1519
15550W        W33754   7.335   8.622  13.489  0.1741 -0.1257  0.1480
15551W        W33755   1.045  17.604  13.103  0.1078 -0.0138 -0.1718
15552W        W33756  14.149  10.781  13.781  0.1621 -0.2506 -0.0381
15553W        W33757   0.008  13.376  15.296  0.1150  0.0571  0.0832
15554W        W33758   1.783   3.196   0.061  0.1594  0.4062 -0.0063
15555W        W33759  13.312   4.744  11.002 -0.1758 -0.1651 -0.0146
15556W        W33760   5.902  15.689   2.560 -0.0346 -0.0969 -0.0759
15557W        W33761   4.130  15.037  12.639  0.1742  0.2429 -0.1353
15558W        W33762  17.406   6.754  12.984  0.0548 -0.0823  0.0704
15559W        W33763   2.576  13.543   0.050  0.0466  0.2109  0.2114
15560W        W33764  10.053  14.584   4.262  0.2206 -0.0552 -0.0808
15561W        W33765  13.596   3.451  14.018  0.0705 -0.0535 -0.0183
15562W        W33766  14.455   3.513  14.282  0.5554  0.0681 -0.4019
15563W        W33767   3.616   6.991  15.482 -0.0438 -0.2894 -0.2596
15564W        W33768   9.154   4.505   0.038 -0.1737 -0.1440 -0.1189
15565W        W33769  12.022   4.226  14.396  0.1806  0.0911  0.1191
15566W        W33770  13.491   8.272   3.197  0.0223  0.1282  0.1679
15567W        W33771  17.963   3.113   1.479  0.1571 -0.0809  0.1087
15568W        W33772   1.722  10.180  11.335 -0.2666  0.2395  0.0152
15569W        W33773   0.404  10.237  12.093  0.2388  0.3515 -0.1576
15570W        W33774   8.656  11.262   2.969  0.1527  0.3319 -0.1296
15571W        W33775   0.302  16.585  11.291 -0.1574 -0.0589  0.0869
15572W        W33776   2.136  18.299   3.971 -0.2704 -0.0671 -0.0669
15573W        W33777  15.845  17.820  12.511  0.0152 -0.2892  0.5204
15574W        W33778  16.129   1.657   2.735  0.0692 -0.0022  0.2251
15575W        W33779  11.819   0.293  11.126 -0.0875 -0.2717 -0.0504
15576W        W33780   0.968  14.198   3.417 -0.1756 -0.2361 -0.0525
15577W        W33781  11.135   8.839   2.092  0.2975 -0.2890  0.0622
15578W        W33782   5.379  16.757   2.413 -0.1480 -0.0802  0.1507
15579W        W33783  17.193   6.391   0.812 -0.0235  0.0299  0.1392
15580W        W33784  13.010   3.290   1.455 -0.1087  0.1121 -0.1236
15581W        W33785  17.784   8.726  12.157 -0.1551 -0.0238 -0.0931
15582W        W33786   4.469  11.000   2.702  0.0344 -0.1143  0.2989
15583W        W33787   4.466   6.814   1.937  0.0509 -0.3711 -0.0239
15584W        W33788   5.987   3.807   1.937  0.1116 -0.2247  0.1004
15585W        W33789   9.397  12.404  12.567 -0.0742  0.1528  0.4940
15586W        W33790  12.198  11.392  15.615 -0.3170 -0.1565  0.2428
15587W        W33791   0.795  12.461   0.856 -0.1850 -0.0597  0.1399
15588W        W33792   7.737  15.305  14.739 -0.0825  0.2026 -0.2556
15589W        W33793  16.240   9.366  13.136 -0.0380 -0.0002  0.0197
15590W        W33794   3.209   0.604   3.926  0.0511  0.1694  0.1723
15591W        W33795  17.860  16.479   3.879 -0.0411 -0.0510  0.2777
15592W        W33796   2.729   5.143   3.809  0.0256 -0.2579  0.0590
15593W        W33797  13.504   3.352   1.226  0.2093  0.1456  0.0139
15594W        W33798   3.323  13.292   3.035 -0.0696 -0.0609  0.3342
15595W        W33799  15.898  18.121   0.442 -0.0309 -0.1038  0.2137
15596W        W33800  17.716  11.344  12.356 -0.1763 -0.0471  0.1668
15597W        W33801   4.428   1.658   2.769  0.1586  0.1708  0.4062
15598W        W33802   4.133   9.645   4.006 -0.1103 -0.2358 -0.0276
15599W        W33803   5.759  13.706  12.199  0.2231 -0.1565 -0.1513
15600W        W33804   7.269   9.144  13.308  0.1242 -0.4391 -0.0321
15601W        W33805  16.794   1.633  14.356  0.1967  0.1479 -0.1213
15602W        W33806  16.803  17.058   2.427 -0.2188 -0.0239  0.0077
15603W        W33807   4.874   8.369  12.412  0.1065  0.2206 -0.0870
15604W        W33808  11.225   2.694   1.441  0.0083 -0.1513  0.1375
15605W        W33809   6.207   5.749  11.338 -0.1947 -0.0875 -0.2996
15606W        W33810  16.161  15.145  15.292  0.1885  0.3824 -0.0145
15607W        W33811   3.245   7.660  12.750  0.1297 -0.1874 -0.0706
15608W        W33812   4.622  16.900   3.128  0.0061 -0.1278  0.0559
15609W        W33813   7.500   2.001  12.569 -0.0808 -0.0257  0.1401
15610W        W33814  11.715   3.154  12.307 -0.4848  0.1366 -0.0893
15611W        W33815   6.931  15.974  13.938  0.0091 -0.3087 -0.4144
15612W        W33816   1.681  18.304  14.685 -0.0466  0.0282  0.1690
15613W        W33817   1.389   8.182  14.216  0.1579  0.0141 -0.0118
15614W        W33818   9.362   5.863  10.450 -0.0822 -0.0864 -0.1688
15615W        W33819   7.129  13.845  14.022 -0.0856  0.2771  0.1460
15616W        W33820   8.605   5.580   1.955 -0.1176 -0.0698 -0.1016
15617W        W33821   0.772  17.225  11.285 -0.0991  0.0365 -0.1350
15618W        W33822  15.600   8.906  12.003 -0.0015 -0.2481  0.0300
15619W        W33823  11.394  11.995   5.254  0.1182  0.2656 -0.0014
15620W        W33824   8.031  14.149  12.894 -0.2432  0.0873  0.1886
15621W        W33825   9.817   0.383   4.169  0.0798 -0.1412  0.0016
15622W        W33826   6.015   0.478   0.755 -0.1151 -0.2191  0.1784
15623W        W33827   8.091  17.699   2.830  0.2016  0.0642  0.0272
15624W        W33828   9.163   8.345   5.177  0.2888  0.3261 -0.0618
15625W        W33829  12.283   5.446   5.216  0.1858  0.0331 -0.1507
15626W        W33830   6.379  10.095   1.042  0.1633 -0.1078 -0.2987
15627W        W33831   1.320  14.964   0.326  0.0385  0.0487 -0.1441
15628W        W33832   0.966  16.514   2.714 -0.2443  0.0267 -0.2376
15629W        W33833  11.234   1.126  13.038  0.1351  0.1091  0.0344
15630W        W33834   5.697   3.228  10.653  0.2883  0.0616 -0.0632
15631W        W33835   5.245   2.190   4.849  0.1292  0.1442  0.0561
15632W        W33836  10.127   2.444   4.065  0.0038 -0.0687  0.0858
15633W        W33837   0.766  13.770  13.077  0.2127 -0.0160 -0.3350
15634W        W33838   3.195   5.040  12.504 -0.1585  0.1178 -0.3858
15635W        W33839  14.789  17.000   4.660 -0.1323  0.0404 -0.0329
15636W        W33840   0.701   4.122  13.358  0.0570  0.2946 -0.0187
15637W        W33841  15.786  14.829  15.654  0.0284  0.1681 -0.2441
15638W        W33842  14.569  16.382   2.311 -0.0834  0.1746 -0.0536
15639W        W33843  11.505  14.464  12.447  0.1655 -0.0258 -0.1115
15640W        W33844   4.290  10.915  13.778 -0.0807  0.2214  0.0612
15641W        W33845   2.570   0.669   2.709 -0.2236 -0.2933  0.1621
15642W        W33846   5.357  14.666   0.382 -0.2891 -0.3645  0.2192
15643W        W33847  11.307   6.924   2.475  0.0340 -0.0607  0.0386
15644W        W33848   2.982  12.019  15.289 -0.0004  0.2506  0.1736
15645W        W33849   4.537  11.193   4.461 -0.1485 -0.3463 -0.2139
15646W        W33850  13.164  15.359   2.251 -0.2475  0.0264  0.2472
15647W        W33851  17.669   6.732   3.519 -0.0679 -0.0087  0.0212
15648W        W33852  17.450  10.146  15.720  0.0364  0.2334 -0.0267
15649W        W33853   4.467   2.657  10.516  0.3319 -0.0284 -0.0230
15650W        W33854   5.605   9.172  12.645 -0.0727  0.0332 -0.0692
15651W        W33855   7.413   1.449   2.633  0.0299 -0.0702 -0.0157
15652W        W33856  18.084  16.483  13.911 -0.0623  0.0651  0.0384
15653W        W33857  15.145  16.384  11.753 -0.3572  0.1656  0.1224
15654W        W33858  16.789   2.272   3.813 -0.2546 -0.1071 -0.1496
15655W        W33859   0.056   7.520   1.507 -0.1518  0.1395 -0.1933
15656W        W33860   3.287   2.827   2.814 -0.0571  0.0921  0.1628
15657W        W33861  15.437   1.360   0.542 -0.3384 -0.1418 -0.0039
15658W        W33862   4.649  14.854  11.382 -0.0648 -0.0481 -0.1098
15659W        W33863   5.509   7.116   2.676 -0.0741  0.0551 -0.0657
15660W        W33864   5.521  16.325  11.526 -0.1578  0.4045 -0.1700
15661W        W33865   7.481   6.527   1.395 -0.1268  0.0743 -0.2734
15662W        W33866   8.920  15.999   1.183 -0.0416 -0.1565  0.0289
15663W        W33867   0.601   5.802   1.105  0.3414 -0.1042  0.2785
15664W        W33868  10.880   4.746  15.353  0.0776  0.2068  0.2552
15665W        W33869  15.982  12.715   1.860 -0.2751 -0.0252  0.0547
15666W        W33870   6.638   6.301  13.922 -0.1526 -0.0634  0.1491
15667W        W33871  12.999   6.036  14.417 -0.2311  0.0668 -0.0145
15668W        W33872  10.413   2.180  10.986  0.0240  0.1804  0.0266
15669W        W33873   2.302   1.816   1.779  0.0619  0.1848 -0.2612
15670W        W33874  16.965  13.002   3.053  0.0074 -0.1322  0.0994
15671W        W33875  12.908   6.550   0.298  0.0126 -0.0997 -0.0777
15672W        W33876   8.534   7.122   4.807 -0.2274  0.2897  0.0443
15673W        W33877   3.843  11.806  15.449 -0.1046  0.1356 -0.1043
15674W        W33878   1.463   3.173   0.538  0.1338  0.2919  0.1837
15675W        W33879   4.274  11.636   4.309 -0.1132  0.3214 -0.1102
15676W        W33880   4.932  14.106  12.119 -0.0956  0.0431 -0.0642
15677W        W33881  12.894   5.661  11.378  0.0138  0.1059 -0.1248
15678W        W33882   9.107   2.018   4.320 -0.0026  0.1296 -0.1114
15679W        W33883   7.005   9.372   2.606  0.2524  0.4558 -0.2555
15680W        W33884   5.156  14.353  13.296 -0.1432 -0.1069  0.2719
15681W        W33885   4.305   4.107  14.065  0.3720 -0.2039  0.0154
15682W        W33886   0.235   2.026  11.859  0.1664 -0.2585  0.2206
15683W        W33887   7.486   7.755  14.641 -0.1108  0.0544 -0.1793
15684W        W33888  17.297  17.722  11.898  0.2620 -0.0497  0.1260
15685W        W33889   7.520   8.604  11.650 -0.2589 -0.1759  0.2866
15686W        W33890   1.559  10.530  14.706 -0.1033  0.2936  0.0944
15687W        W33891   4.623  11.381  14.217  0.2476 -0.0214  0.4389
15688W        W33892  16.078  12.751   4.240  0.1304 -0.3891 -0.4416
15689W        W33893  15.054  12.110  15.217  0.0502  0.0488  0.2679
15690W        W33894   8.663   9.002  12.764  0.3262  0.5313  0.5231
15691W        W33895   4.299  10.950  11.590 -0.1191  0.0198  0.1932
15692W        W33896  12.024  15.026   4.263  0.0708  0.1204  0.0647
15693W        W33897  14.369  10.651  10.099  0.0636  0.2388 -0.1983
15694W        W33898   6.567   0.036   2.049 -0.2597 -0.1541  0.1125
15695W        W33899  14.984   5.740   4.701  0.1299  0.3061  0.0370
15696W        W33900   0.697   8.428   2.452  0.1912 -0.0464 -0.2713
15697W        W33901  11.979  17.779   1.714  0.1980 -0.2106 -0.0755
15698W        W33902   7.054  16.620  14.609 -0.1640 -0.0025 -0.0082
15699W        W33903   0.530   4.910   3.525  0.0533  0.0241 -0.0747
15700W        W33904  14.396  11.960  11.459  0.2713 -0.1327 -0.0909
15701W        W33905  15.798   8.258  11.155  0.1146 -0.2631  0.0738
15702W        W33906  15.026   5.210   0.658 -0.2239 -0.0247 -0.1250
15703W        W33907   8.601  16.976   2.453  0.0980  0.0461  0.2255
15704W        W33908   0.697   4.434   2.497  0.3098  0.1572  0.3663
15705W        W33909  13.735  15.436   3.506 -0.1333 -0.0639 -0.0607
15706W        W33910  10.020   0.256  11.458  0.1175 -0.2878  0.0971
15707W        W33911  10.630  15.246  12.263 -0.0550 -0.1058  0.2083
15708W        W33912   3.046  15.102  12.040 -0.0445 -0.0210 -0.1676
15709W        W33913   7.525   8.569   5.660  0.0201  0.0755 -0.0820
15710W        W33914  10.713   1.980  11.412 -0.1893 -0.2085  0.1455
15711W        W33915   0.272   2.637   2.500 -0.0427 -0.0688  0.0909
15712W        W33916   5.102  14.850   3.208  0.1083  0.0664 -0.0202
15713W        W33917   9.290  10.164  13.760 -0.4100 -0.0873  0.1874
15714W        W33918  10.691  18.051  15.534  0.0961  0.0073  0.1488
15715W        W33919  13.468  17.097   2.279 -0.0805  0.1336 -0.3372
15716W        W33920  18.030  13.293   0.031 -0.0850  0.0406  0.0068
15717W        W33921  12.317   0.550   4.189 -0.2518  0.0563 -0.1583
15718W        W33922  14.861  18.167   0.801 -0.3601  0.2993  0.2741
15719W        W33923   4.225   1.250  12.845  0.1526  0.1571 -0.1068
15720W        W33924   9.894  12.314   4.462 -0.1805 -0.0613 -0.0521
15721W        W33925   1.956   4.603  14.973  0.4425 -0.0108  0.1115
15722W        W33926   2.752   2.192   0.928 -0.0543 -0.2951 -0.0267
15723W        W33927   5.783   4.679  13.428 -0.0837 -0.0621  0.3204
15724W        W33928   8.022  13.902  11.416  0.0339  0.1325  0.0488
15725W        W33929   0.700  15.463   0.121 -0.0117 -0.0923 -0.1913
15726W        W33930   6.163   1.043  14.548  0.1485  0.1879  0.1956
15727W        W33931   8.404   8.181   4.499 -0.1145  0.0652  0.1698
15728W        W33932  18.308  14.652  11.740  0.0997  0.0233 -0.3688
15729W        W33933   5.646  17.483   3.061 -0.0132 -0.2330  0.0101
15730W        W33934  11.974  11.070   1.370 -0.0907  0.0978  0.2098
15731W        W33935  13.504   5.430   5.509 -0.1370 -0.0377 -0.0069
15732W        W33936  12.331   9.120  15.182  0.2531  0.0082  0.0174
15733W        W33937  18.042  11.973  14.804  0.0578  0.1672 -0.0436
15734W        W33938  17.023   8.568   2.946  0.0228 -0.0393 -0.0692
15735W        W33939  15.519  13.033   4.489 -0.2978  0.1634  0.0636
15736W        W33940  10.436   6.491   3.553 -0.3026 -0.0489  0.0646
15737W        W33941  12.448   4.988   2.820  0.1222  0.1405 -0.0313
15738W        W33942   9.759   3.898  13.843  0.0739  0.0446  0.0814
15739W        W33943   8.111  13.352   0.391 -0.1672 -0.2447  0.0062
15740W        W33944  10.813   1.926   4.673 -0.2769 -0.0280 -0.2280
15741W        W33945  18.158  16.769  13.397 -0.1721  0.0341  0.0670
15742W        W33946  12.374  17.893   3.925 -0.1570 -0.0003 -0.1820
15743W        W33947   9.170  14.818   1.914 -0.0187 -0.0798  0.1553
15744W        W33948  14.837   4.536  11.934 -0.0610  0.2363  0.0931
15745W        W33949  12.463   8.067   4.630  0.1550  0.1465  0.0390
15746W        W33950   4.728   1.044   3.376  0.0870  0.1669  0.2770
15747W        W33951   9.500  14.609  15.487  0.1530  0.1600  0.3012
15748W        W33952   0.351   8.540  15.639 -0.1123 -0.0296  0.1961
15749W        W33953  16.872   7.009  11.045  0.1656  0.0809  0.1583
15750W        W33954   7.897  12.993   3.941 -0.1156 -0.1079 -0.4051
15751W        W33955   6.705  13.869  11.509  0.0880 -0.0657  0.4373
15752W        W33956   9.310   7.661  11.784  0.5006 -0.1813 -0.2529
15753W        W33957   5.315   7.380  15.393 -0.1183  0.0316 -0.0812
15754W        W33958  13.991   6.223   4.221 -0.2069 -0.1737  0.0500
15755W        W33959  15.872  18.021   0.963 -0.2837  0.4195 -0.2112
15756W        W33960  16.950   3.274   3.772  0.0146  0.0913 -0.1944
15757W        W33961  14.628   8.887   4.910  0.2027  0.0030  0.0426
15758W        W33962  15.208  15.700   1.460  0.1605  0.2180 -0.1441
15759W        W33963  15.163  17.035   1.583  0.0722 -0.0400 -0.5566
15760W        W33964   7.443  16.074  13.767  0.2947  0.2783  0.2312
15761W        W33965  15.751  16.470  13.259  0.0036  0.4828  0.2033
15762W        W33966  17.745   4.726   2.328 -0.3770  0.0220 -0.0196
15763W        W33967  13.619   5.319  11.810  0.0639  0.1068  0.1721
15764W        W33968  14.856  18.360   4.683 -0.3335  0.4182 -0.1922
15765W        W33969  14.737  17.186  15.703 -0.0983 -0.1753 -0.0819
15766W        W33970  16.235  15.383   0.054 -0.0915 -0.1032  0.2702
15767W        W33971   8.762  17.240   3.926  0.1203 -0.0207 -0.1731
15768W        W33972  16.162  17.990  11.702  0.1146 -0.0468 -0.1726
15769W        W33973  11.044  11.767   2.211 -0.0110  0.0461  0.0033
15770W        W33974  13.527  14.583  11.648 -0.0738 -0.0224  0.1219
15771W        W33975  16.709   9.037  14.350 -0.2107  0.1093 -0.0776
15772W        W33976  13.521  16.068   3.076 -0.1188  0.0263  0.2053
15773W        W33977  13.412  10.387  14.110  0.0509  0.1876  0.1376
15774W        W33978   8.364  13.170  14.949  0.1238  0.0456  0.1804
15775W        W33979  16.179   8.239   2.142 -0.0926  0.0831 -0.0632
15776W        W33980  10.176  16.588   0.327  0.1870 -0.2539 -0.0124
15777W        W33981   3.934   4.826  12.919  0.1317 -0.1160  0.1000
15778W        W33982   0.586  15.248  14.924  0.1120 -0.0244 -0.2267
15779W        W33983   8.101  16.303  14.470 -0.4113 -0.0446  0.0232
15780W        W33984   8.961  17.283   0.925 -0.4741  0.0172  0.0956
15781W        W33985  17.573   3.028  13.944  0.3302  0.1449  0.2375
15782W        W33986   1.596  10.127  14.992 -0.0539  0.2636  0.1987
15783W        W33987  17.577  12.249   4.562 -0.0982 -0.1856  0.1701
15784W        W33988  16.926  11.134  12.647  0.0246 -0.2748  0.1189
15785W        W33989  17.112  16.304  11.262  0.0821 -0.2395 -0.0657
15786W        W33990   7.928   5.094  10.923  0.0957 -0.4286 -0.2991
15787W        W33991  15.681   8.647  15.427 -0.1753  0.2544 -0.1263
15788W        W33992  12.964   9.554   3.049 -0.1395 -0.1606  0.1461
15789W        W33993  17.312  17.522  14.933  0.3069  0.0561 -0.0382
15790W        W33994   2.523  11.840   1.713  0.1219 -0.1859  0.0138
15791W        W33995   3.897  16.316   3.037  0.1481  0.0784  0.2389
15792W        W33996  15.858   8.444  11.632  0.0564  0.2477 -0.0856
15793W        W33997   1.207   9.046  15.683 -0.1512  0.2694 -0.3038
15794W        W33998  13.407  18.117  13.304 -0.5527  0.2646  0.1468
15795W        W33999  12.743  14.145   4.653  0.2223 -0.0144 -0.0133
15796W        W34000  16.639  18.285   4.624  0.2389 -0.4103 -0.2585
15797W        W34001   4.197  10.280  15.469  0.1454 -0.0938  0.1078
15798W        W34002   9.097   2.808   1.124 -0.1635  0.1065  0.1717
15799W        W34003   8.707   7.016  12.544  0.0837  0.0069 -0.1456
15800W        W34004  16.560  18.134  13.682  0.3087  0.1417 -0.0478
15801W        W34005   2.932   0.809  12.430 -0.1301  0.0734  0.1739
15802W        W34006   0.273   1.262  14.586 -0.2702 -0.1809  0.0114
15803W        W34007  12.811  14.005   2.669  0.1851  0.0273 -0.2114
15804W        W34008   0.636  10.785   2.396  0.1019  0.0652 -0.0315
15805W        W34009  14.159   4.331   3.854  0.1044  0.1815 -0.0559
15806W        W34010  15.359   2.439  13.737  0.2015 -0.1687  0.2128
15807W        W34011   8.053  16.390   3.353  0.0707  0.0617 -0.0186
15808W        W34012   9.157  16.531  12.577  0.1698 -0.1403  0.1890
15809W        W34013   8.000   0.568  11.437 -0.3216 -0.2204 -0.2622
15810W        W34014   1.125   1.482   3.704  0.0343  0.2829 -0.0804
15811W        W34015   2.539  16.145   0.671  0.2152 -0.0177  0.0419
15812W        W34016   7.299   3.533  13.674 -0.0057 -0.1460 -0.1032
15813W        W34017  12.193   6.474  15.538  0.2478  0.2507  0.0907
15814W        W34018   7.870   2.145  15.201 -0.0940  0.4206  0.0358
15815W        W34019  11.180   9.245   2.364 -0.2333  0.2625  0.0903
15816W        W34020  11.211   3.801  14.348  0.0547 -0.1764  0.1482
15817W        W34021   7.817  17.149  14.051 -0.1912  0.0951 -0.1210
15818W        W34022  15.679  17.579  15.192  0.0288  0.2330  0.1501
15819W        W34023   8.473   2.313   1.154  0.0163 -0.0222 -0.0431
15820W        W34024   9.625   8.119  13.235 -0.1230 -0.2199  0.4184
15821W        W34025  15.870   9.919   4.071 -0.1835 -0.1421 -0.0150
15822W        W34026   2.504  10.754  14.870  0.1359 -0.1035  0.1650
15823W        W34027   9.122  13.105   3.706 -0.2994  0.2967  0.2104
15824W        W34028  11.750  13.136  12.188 -0.0967 -0.2465  0.0517
15825W        W34029   0.223  17.376   0.987 -0.1619 -0.2389 -0.0000
15826W        W34030   5.396  11.837   1.430  0.0279 -0.0096  0.1411
15827W        W34031   6.950  17.653   0.587 -0.1839  0.1328 -0.0549
15828W        W34032   4.121  16.331  11.899  0.0472 -0.2413  0.0630
15829W        W34033  11.512   7.390  15.569 -0.1182 -0.2727 -0.1522
15830W        W34034  16.307   4.136  13.552  0.0190  0.4243  0.0399
15831W        W34035   1.675   3.637  13.223  0.3359  0.0523  0.2130
15832W        W34036   4.273   3.196   2.623 -0.2973 -0.1505  0.1954
15833W        W34037   8.098  15.921  14.147  0.0770  0.0989  0.1687
15834W        W34038   9.702  14.591   0.253  0.0583 -0.2249 -0.0490
15835W        W34039  11.774  13.064   4.401 -0.4432 -0.2660 -0.2141
15836W        W34040   8.788  15.022  14.419  0.1769  0.0032  0.1853
15837W        W34041   4.507   0.088  11.383 -0.2795  0.1139  0.1732
15838W        W34042   5.447  14.794   1.726 -0.3680  0.3202  0.0470
15839W        W34043   2.581   1.966   2.224  0.2682 -0.2739 -0.0565
15840W        W34044  11.577  14.776  14.999 -0.0003 -0.0679 -0.4170
15841W        W34045  10.441   8.441  14.186 -0.1222 -0.1203  0.0161
15842W        W34046   0.630   4.342  10.691 -0.3079  0.0863  0.1991
15843W        W34047  14.281  17.017   1.719 -0.0235 -0.2120 -0.0328
15844W        W34048  14.973   0.182   4.133 -0.1450 -0.1136 -0.1570
15845W        W34049   6.267   3.982   0.634 -0.2583 -0.1823  0.1239
15846W        W34050  14.957  15.994   3.488 -0.1239 -0.2620  0.0582
15847W        W34051   6.339  10.545   0.759 -0.1271 -0.1263  0.1506
15848W        W34052  17.331  15.342  11.362  0.2266 -0.0262 -0.1455
15849W        W34053   0.179   8.440   0.472  0.2483 -0.1648  0.2962
15850W        W34054   1.771  15.083   2.046 -0.0674 -0.1765 -0.0419
15851W        W34055  14.812  13.297  12.245 -0.2465  0.0426 -0.1147
15852W        W34056  10.767   1.977  15.644  0.0665  0.2818  0.1961
15853W        W34057  15.769   9.727  12.682 -0.0284  0.0388  0.3014
15854W        W34058  16.452  16.739   3.752  0.0567  0.1882 -0.1227
15855W        W34059   3.793  17.645   5.546 -0.0603 -0.1493  0.2458
15856W        W34060  15.561  11.255  14.392 -0.1953  0.1764 -0.2478
15857W        W34061   3.545   0.072   2.552 -0.0226  0.1973 -0.1882
15858W        W34062   8.877   3.812  10.899  0.0943  0.0855  0.1085
15859W        W34063   1.202  16.413  12.315 -0.1106  0.0100 -0.3542
15860W        W34064   8.967  10.953   1.155 -0.0808  0.1932  0.0002
15861W        W34065  11.998  17.536   3.962  0.3445  0.2071 -0.4266
15862W        W34066  11.943  12.462  11.350  0.2167 -0.1457  0.0054
15863W        W34067  16.167   8.374   5.504 -0.0565 -0.0247 -0.4897
15864W        W34068  10.495   4.724   0.811  0.0620  0.1760 -0.0300
15865W        W34069  12.647  13.190  11.524  0.2074  0.0138  0.2539
15866W        W34070   1.855  10.854  10.558  0.4151  0.0916 -0.0963
15867W        W34071  17.576  10.328   1.341 -0.0302 -0.0041  0.2927
15868W        W34072   7.844  17.595  12.764  0.1170 -0.1480  0.0537
15869W        W34073   3.297   9.932  14.274 -0.1366  0.0320  0.0223
15870W        W34074  15.411   6.867   4.736  0.0753  0.3672  0.0519
15871W        W34075  15.368   0.414   0.701 -0.1023 -0.0486 -0.0634
15872W        W34076   8.204   8.622   3.384 -0.0933  0.4252 -0.0806
15873W        W34077   2.001   2.680  15.636  0.1716 -0.0471 -0.1858
15874W        W34078   9.353   0.689   4.152  0.0167  0.0129  0.0662
15875W        W34079  14.635  15.911  12.301 -0.1020 -0.0009  0.3027
15876W        W34080  14.192   9.432  14.829 -0.0132  0.0948  0.4422
15877W        W34081  12.179  18.236   9.975 -0.1689  0.4233  0.0432
15878W        W34082  10.858   5.483   0.358  0.1841  0.4227 -0.1934
15879W        W34083   3.182  10.593  11.518 -0.1394 -0.6396  0.0771
15880W        W34084   4.980   5.337  15.176 -0.0330 -0.2420  0.1296
15881W        W34085   7.833  13.519   3.942 -0.4731 -0.0934 -0.0799
15882W        W34086  17.302  12.707   2.277  0.2520 -0.2493 -0.0348
15883W        W34087  14.917   3.193   1.586  0.0059  0.5184  0.1590
15884W        W34088  12.645   0.119   4.178  0.2986  0.3254  0.1140
15885W        W34089  14.983   1.825  11.645  0.0239 -0.1590  0.3013
15886W        W34090   7.919   0.154   0.568 -0.3625  0.1457 -0.0233
15887W        W34091  17.286   8.053   1.244  0.0032  0.0666 -0.1098
15888W        W34092   3.388  11.195  14.873 -0.2257 -0.1446  0.1111
15889W        W34093  11.957  10.413  14.526  0.0835 -0.6131 -0.2090
15890W        W34094   8.577   5.750   2.446 -0.0618 -0.1788 -0.3594
15891W        W34095  12.554  14.500  11.835  0.2606  0.0603  0.2478
15892W        W34096   5.163   9.090  10.840  0.1509 -0.1064 -0.0321
15893W        W34097   6.263   2.150  12.702 -0.0392  0.2814 -0.2105
15894W        W34098  12.890  10.777   1.250  0.2012  0.2353 -0.1086
15895W        W34099   3.167   0.383   2.210  0.0376 -0.0746 -0.0226
15896W        W34100   1.233  12.477   1.213 -0.3122 -0.2326  0.2855
15897W        W34101  18.286   3.588   1.733  0.0819  0.0928 -0.0014
15898W        W34102   3.278  16.789   1.396  0.4031 -0.1126  0.0690
15899W        W34103   7.184  13.774  12.503 -0.0898 -0.0839 -0.0744
15900W        W34104   0.149   4.770   0.234 -0.0854 -0.0814 -0.1595
15901W        W34105  16.713   6.219   0.175 -0.1782 -0.3153  0.0900
15902W        W34106  11.125  11.078   1.151  0.0587  0.1071 -0.2487
15903W        W34107  10.139  11.511  14.284 -0.1102 -0.2123  0.4608
15904W        W34108   4.355   5.760   2.566  0.0187  0.0942  0.1886
15905W        W34109  18.228   2.758   4.146 -0.0466 -0.4219 -0.1152
15906W        W34110  13.765  13.307  13.617  0.0444  0.2417  0.1148
15907W        W34111   0.609   0.675   0.828 -0.1135 -0.2200  0.0534
15908W        W34112   8.758  13.538   2.675  0.2429  0.2982  0.2822
15909W        W34113   1.238  17.760   2.664  0.2620 -0.0140  0.2910
15910W        W34114  17.310   3.222   1.248  0.0671  0.0235 -0.2583
15911W        W34115  13.123   6.967   1.275  0.1563  0.3019  0.2582
15912W        W34116   7.982   9.931  11.840  0.0702 -0.1394 -0.0417
15913W        W34117  17.836   3.253   0.982 -0.1006  0.1079 -0.1247
15914W        W34118   7.621  14.378  12.919  0.0600  0.0070  0.3199
15915W        W34119  15.176   4.920   2.999  0.2427  0.1036 -0.0134
15916W        W34120  10.330   4.680  11.941  0.0060 -0.0572  0.0137
15917W        W34121  14.771  11.284  13.328 -0.1604 -0.3099  0.0814
15918W        W34122  13.253   8.410   0.422  0.1805  0.0067  0.2148
15919W        W34123   1.272   2.486   4.632  0.0878  0.0497 -0.1514
15920W        W34124   2.400   9.060  15.364 -0.0064 -0.1334  0.0604
15921W        W34125   6.899   7.184   0.329 -0.1083 -0.0257  0.0865
15922W        W34126   3.245   6.825   1.646  0.1566  0.2164  0.1041
15923W        W34127   1.004   1.023   0.483 -0.2017 -0.3330 -0.2897
15924W        W34128  11.149  16.134  14.057 -0.1992  0.1519  0.1056
15925W        W34129   5.116   5.754   1.735  0.1181 -0.2439 -0.1594
15926W        W34130   1.682  15.247  14.638 -0.1528  0.2667  0.0010
15927W        W34131  12.426  17.974   4.424  0.3048 -0.2561  0.2445
15928W        W34132   8.600  13.439  11.909  0.2027 -0.0501  0.0083
15929W        W34133  14.729   1.649  13.260  0.1048  0.0948 -0.1574
15930W        W34134   5.785  14.339  11.496 -0.1561 -0.2024  0.0821
15931W        W34135  13.957   8.430   0.668  0.1123 -0.1965  0.1618
15932W        W34136   9.891   9.958  13.764 -0.0387  0.2037  0.0042
15933W        W34137   9.969  14.164  14.746 -0.2155  0.0347  0.0097
15934W        W34138   7.266   2.597  12.052  0.2830 -0.0113 -0.0912
15935W        W34139   7.006   4.625   1.259 -0.1127  0.1535  0.1170
15936W        W34140  10.153   4.426  11.122 -0.2656 -0.0889  0.0424
15937W        W34141  12.386  14.624  14.957 -0.1646  0.0519  0.1111
15938W        W34142  15.055  12.302   3.129  0.2134 -0.3162  0.2162
15939W        W34143   7.136   8.395   5.437 -0.2159 -0.2193 -0.1080
15940W        W34144   2.082  13.885  13.903  0.0487 -0.2386 -0.1772
15941W        W34145   8.123   7.835  12.969 -0.0081  0.2211  0.0175
15942W        W34146  10.550   0.643   2.146  0.2361  0.0722  0.2973
15943W        W34147   9.260   4.751   2.350 -0.0634  0.0730  0.1664
15944W        W34148  11.341   9.543   0.588 -0.2008  0.0309 -0.4392
15945W        W34149   6.456  17.078  13.240  0.0744  0.0555  0.1990
15946W        W34150  16.028   0.659  13.632  0.1648  0.0147 -0.1115
15947W        W34151  16.618  18.329   3.546 -0.3169 -0.2628  0.1943
15948W        W34152  13.180   0.934   4.393 -0.1619  0.1378 -0.1823
15949W        W34153  14.887   2.101   1.741  0.0048 -0.3075  0.1452
15950W        W34154   1.830  14.617  13.938 -0.1184  0.0679 -0.0238
15951W        W34155   9.322  11.455  11.195 -0.2729  0.0515  0.1491
15952W        W34156   1.406  11.861   4.231  0.2873  0.0288 -0.0367
15953W        W34157  15.018  15.194  15.635  0.2225 -0.2851 -0.3686
15954W        W34158  18.233  10.788  13.027 -0.0212 -0.0172  0.2016
15955W        W34159   5.087   7.673   3.431  0.0497 -0.0389  0.0267
15956W        W34160  12.510   6.835   3.303  0.0312  0.5190  0.0676
15957W        W34161  13.945  10.432  14.061 -0.0611  0.2734  0.1523
15958W        W34162  10.159   4.324  10.206  0.0397  0.0932 -0.1192
15959W        W34163   0.248   3.961   1.815  0.0294 -0.0235 -0.1135
15960W        W34164   2.270  14.303   0.671  0.3423 -0.1406 -0.2935
15961W        W34165  12.499  11.468  10.755  0.0985 -0.0951 -0.1233
15962W        W34166  17.460  14.072  12.576 -0.5146  0.1842 -0.0863
15963W        W34167   6.056   6.553   2.885  0.1150  0.1045 -0.0840
15964W        W34168   3.681   6.250   0.418  0.0831  0.1140  0.0203
15965W        W34169  11.995   9.596  14.572 -0.3245 -0.0580 -0.0515
15966W        W34170   0.870   7.727  14.182  0.0837 -0.0163  0.5164
15967W        W34171  12.445  12.686   2.219  0.0256 -0.0083 -0.0959
15968W        W34172   2.442  16.132  13.113  0.5801 -0.2189  0.0430
15969W        W34173   6.552   2.099   0.506 -0.2369 -0.0374  0.0838
15970W        W34174  13.158   2.938  11.240 -0.0228 -0.0109 -0.4236
15971W        W34175   8.781   9.735   2.792 -0.1428 -0.0339  0.1355
15972W        W34176   4.271   5.959  15.421 -0.3914  0.2253 -0.0811
15973W        W34177   4.138   4.708   4.013 -0.2667  0.0623 -0.0311
15974W        W34178   0.719  13.327  13.250  0.2792 -0.1513 -0.0373
15975W        W34179  11.900   5.630  13.074 -0.0086 -0.1172 -0.0177
15976W        W34180  15.436   2.681   3.293 -0.0150 -0.0313  0.2116
15977W        W34181  14.527   5.607  13.116 -0.1715  0.3193 -0.4214
15978W        W34182  15.001  15.506  12.203  0.3768 -0.3056  0.2745
15979W        W34183   1.267   3.996   3.937  0.2324 -0.1161  0.1234
15980W        W34184   5.457   3.715  12.610 -0.2893 -0.1637 -0.1037
15981W        W34185   5.395  15.327   5.120  0.2955 -0.1751  0.2498
15982W        W34186  17.494  18.207   3.531  0.3399 -0.2510 -0.1603
15983W        W34187   6.787  17.658   2.893 -0.0025 -0.1730 -0.0021
15984W        W34188   3.520  14.332   3.135  0.2140 -0.2149  0.2843
15985W        W34189  13.089   3.386  12.055  0.2664 -0.1715 -0.2357
15986W        W34190  15.973  17.381  15.611 -0.1812  0.2274  0.2956
15987W        W34191  12.775   2.210  13.274 -0.6200  0.0632 -0.0994
15988W        W34192   2.035   0.047   4.459  0.0773 -0.3383  0.0017
15989W        W34193  10.870  16.543  11.850  0.0356  0.1146 -0.1331
15990W        W34194  10.913   5.352  12.017  0.0423  0.0970  0.1566
15991W        W34195   1.215   4.538  11.564 -0.0328 -0.0402 -0.0983
15992W        W34196   9.059   4.166  12.256 -0.3725 -0.1342 -0.2066
15993W        W34197   9.064  16.290   4.053  0.3170  0.3802 -0.0489
15994W        W34198   3.510  17.609  15.182 -0.1381  0.3740 -0.2101
15995W        W34199  14.685   1.022   3.427 -0.0803  0.2071  0.1613
15996W        W34200  15.421  13.202   5.032  0.0153  0.3663  0.0765
15997W        W34201  12.647   6.325   6.202  0.5462  0.0629 -0.1093
15998W        W34202   5.411  13.518   2.061 -0.0547  0.1989  0.0995
15999W        W34203  16.793  14.855   1.332 -0.0225 -0.2269  0.0278
16000W        W34204   6.334  10.618   4.282 -0.0280 -0.1814  0.2002
16001W        W34205   3.465  13.335  13.831 -0.1463 -0.0050  0.0606
16002W        W34206   7.172  14.037   3.432 -0.1238 -0.0776  0.0353
16003W        W34207  11.477  12.266  11.032  0.0700  0.0318  0.1603
16004W        W34208   0.527  13.863   0.025  0.1197 -0.2460 -0.0405
16005W        W34209   8.093  14.593  14.766  0.2999 -0.3549 -0.1304
16006W        W34210  16.116   5.415  15.497 -0.3811  0.2045  0.0625
16007W        W34211   5.305  17.177  14.462 -0.2045 -0.0890 -0.1753
16008W        W34212  17.288  17.580  11.245  0.2941 -0.3014  0.2459
16009W        W34213   6.155   7.477  14.880  0.0616  0.2286 -0.1048
16010W        W34214  18.220   4.288   4.221 -0.2394  0.1255 -0.3940
16011W        W34215   5.125   6.542   1.769  0.2727 -0.0470 -0.1158
16012W        W34216   4.186   4.953   4.459  0.0004 -0.0193 -0.1936
16013W        W34217  17.221   6.921  10.620 -0.1259  0.0978 -0.6604
16014W        W34218   8.053   0.275   2.889 -0.2094  0.0276 -0.2207
16015W        W34219   0.705   6.322  14.461 -0.0983  0.1438 -0.0005
16016W        W34220   2.430  17.421   1.922 -0.1546 -0.1255 -0.1763
16017W        W34221   8.643  10.810   4.500 -0.0103  0.0502  0.0351
16018W        W34222   4.627  15.696   1.692 -0.0462 -0.0129  0.2232
16019W        W34223   5.884  15.528   3.158 -0.1255 -0.2675 -0.0363
16020W        W34224  12.979  14.099  12.855 -0.0652  0.0604 -0.3485
16021W        W34225  10.891  14.173   1.249  0.3408 -0.0303 -0.1027
16022W        W34226  12.113   8.784  15.560  0.2755  0.2599 -0.1058
16023W        W34227   8.611  12.238   4.099 -0.2405 -0.2578 -0.1520
16024W        W34228  13.235  16.472   0.899  0.1499  0.1075  0.2413
16025W        W34229  16.872   0.695   2.863 -0.3339 -0.3776  0.1360
16026W        W34230  15.321  17.894  12.671  0.1149  0.0878 -0.1931
16027W        W34231  17.080   6.773  14.087 -0.0469  0.0012 -0.2428
16028W        W34232  14.434  17.169  11.553  0.1599  0.0551 -0.2265
16029W        W34233  14.345   5.101  12.320 -0.0242 -0.0439  0.0843
16030W        W34234  16.518  10.576   1.225  0.1550  0.1244 -0.0181
16031W        W34235   1.103  14.983  14.421  0.0079 -0.0176 -0.1295
16032W        W34236  16.936   7.834   4.650  0.0711  0.3465  0.2529
16033W        W34237  12.655   1.228  13.905 -0.3960 -0.3237  0.0629
16034W        W34238   1.981  13.835  14.923 -0.0283  0.0393  0.1660
16035W        W34239   2.462   8.304   2.265 -0.2194 -0.0704  0.1425
16036W        W34240  10.797  13.471   3.371  0.1870  0.0885 -0.3462
16037W        W34241  16.001   4.768   0.484 -0.0042  0.2734 -0.0947
16038W        W34242  11.713   8.068   2.890  0.2089 -0.0005 -0.1859
16039W        W34243   7.377   4.003  15.603  0.3426  0.1544 -0.1084
16040W        W34244  12.004   4.142   1.662  0.0438  0.1661 -0.2040
16041W        W34245  10.200   0.810   2.926  0.0455  0.1421 -0.3074
16042W        W34246   1.114   5.423   0.159  0.2125 -0.4578 -0.1828
16043W        W34247  13.802   5.516  12.993 -0.2939 -0.0606 -0.0399
16044W        W34248   2.298  13.012   0.962  0.1729  0.1010 -0.0366
16045W        W34249  14.011  13.380   1.020 -0.0341 -0.3065 -0.2694
16046W        W34250  17.079  12.552   3.289 -0.1493  0.3037  0.1602
16047W        W34251   2.766   1.307  13.284 -0.0244  0.0026 -0.3881
16048W        W34252   0.773  17.554   2.252 -0.1301 -0.2583 -0.0765
16049W        W34253  17.537  10.178  11.727 -0.1443  0.1025  0.1395
16050W        W34254  10.546   8.899   3.951  0.1153 -0.1778 -0.2424
16051W        W34255   5.980  11.762  12.532  0.1247  0.1781  0.0081
16052W        W34256   3.020   0.885  12.927 -0.1525  0.0402  0.1588
16053W        W34257  12.240  15.215  11.975 -0.0071  0.0066 -0.1213
16054W        W34258   6.536  12.034   2.540 -0.1399 -0.1667  0.0317
16055W        W34259  16.800  13.122   5.089  0.4159  0.1494 -0.0341
16056W        W34260  14.512  13.361   5.182  0.4380 -0.2152 -0.0867
16057W        W34261  15.870   9.240  12.714 -0.2563 -0.2741  0.1661
16058W        W34262   0.199  15.962  11.654 -0.0399  0.0997 -0.1691
16059W        W34263   5.494   8.544  11.578  0.2049  0.0309  0.0693
16060W        W34264  14.675  12.541  14.507  0.0495 -0.0237 -0.1530
16061W        W34265  17.828  11.441   2.219 -0.1599 -0.1054 -0.2201
16062W        W34266   6.030   7.482  12.127  0.0215  0.3070  0.2710
16063W        W34267   2.212   8.265  12.174  0.2409  0.0220 -0.1645
16064W        W34268   0.154  15.151  11.989 -0.0062  0.1115  0.1699
16065W        W34269   6.646  10.715   0.396 -0.4687  0.2322 -0.1965
16066W        W34270   4.993   5.557   2.231  0.3444  0.0342  0.0322
16067W        W34271  16.251  12.181   0.183 -0.1412  0.0674 -0.2278
16068W        W34272   2.794  17.911  12.210 -0.1707  0.2495  0.0535
16069W        W34273   9.700   8.261  12.061  0.1026  0.1248  0.3258
16070W        W34274  10.982  12.854  13.341 -0.1072  0.0147  0.3285
16071W        W34275  14.730  11.171   2.387  0.1973  0.0392 -0.0712
16072W        W34276   3.945   4.016  13.327  0.0390 -0.1275  0.0027
16073W        W34277  14.979   3.139   5.036 -0.0999 -0.0583  0.2323
16074W        W34278   1.053  16.574  13.778 -0.1799  0.2128  0.0060
16075W        W34279  13.134  15.716   1.022  0.0757  0.0625 -0.0390
16076W        W34280  14.854  16.051  11.568 -0.0608 -0.0777  0.0757
16077W        W34281  13.412   8.734  15.616  0.0570  0.2679 -0.0492
16078W        W34282   3.348  13.212   3.977 -0.1082  0.3694 -0.3698
16079W        W34283  14.419   2.313   4.328  0.1722  0.0592  0.1216
16080W        W34284   0.025   6.951   1.807  0.0570 -0.1069 -0.1101
16081W        W34285   1.251   5.411  14.138 -0.0663 -0.1653  0.4706
16082W        W34286   6.614   2.591   3.711 -0.0093 -0.1164 -0.0447
16083W        W34287   7.675  13.501  14.051  0.2355  0.0402  0.0276
16084W        W34288  11.047  15.328  10.686 -0.0989 -0.1955 -0.0704
16085W        W34289   9.994  16.296   0.688  0.1106 -0.1746 -0.2708
16086W        W34290  10.489   9.771   1.131  0.0154 -0.3440 -0.4311
16087W        W34291  12.657   6.088  14.746  0.2608 -0.1292 -0.1856
16088W        W34292   9.976   3.501   1.991 -0.1590 -0.0384 -0.0929
16089W        W34293  16.548   4.034   0.665  0.2881 -0.0908 -0.1036
16090W        W34294   4.192   6.260  11.927 -0.4802  0.0214 -0.1384
16091W        W34295  14.316   4.396   1.386 -0.1596 -0.1260  0.0815
16092W        W34296  13.239   0.055  11.839 -0.0312  0.2958  0.0072
16093W        W34297   4.420  10.173  15.039 -0.1013 -0.0098 -0.0184
16094W        W34298   9.161  12.827  14.087  0.0101  0.0333 -0.1109
16095W        W34299   6.025  16.337   0.779 -0.0169 -0.2872  0.3536
16096W        W34300  12.665   7.621  13.789 -0.0301 -0.0176  0.0541
16097W        W34301   4.634   6.394   3.957 -0.0141 -0.1033 -0.1074
16098W        W34302  14.024  11.653  14.643 -0.1015 -0.1028  0.1737
16099W        W34303  14.019   1.051  15.040  0.1711 -0.0351  0.3209
16100W        W34304   9.166  17.721   2.563 -0.0173  0.0862 -0.0617
16101W        W34305   0.476  15.229   3.600 -0.0553 -0.5231  0.1846
16102W        W34306  18.085  14.562  14.949  0.0686  0.2695  0.2925
16103W        W34307   0.508   6.099  11.317  0.0337  0.2777  0.1523
16104W        W34308   2.751  17.165   0.680  0.1367  0.0040 -0.1126
16105W        W34309  17.633  16.720  15.106 -0.0722 -0.1128 -0.0293
16106W        W34310  11.867  10.881  14.718  0.1213  0.1608  0.2859
16107W        W34311   0.547   1.616  14.259  0.4543  0.0623 -0.0925
16108W        W34312  11.572   8.953   0.503 -0.0119 -0.1610  0.1120
16109W        W34313  17.347  13.220   3.902  0.0071  0.0495 -0.2867
16110W        W34314   2.016  18.348   5.916 -0.0346 -0.0408  0.2165
16111W        W34315   8.435   5.627  13.849  0.0467 -0.2956 -0.2227
16112W        W34316   9.825   1.627  15.061  0.2376  0.0243 -0.2193
16113W        W34317   1.007   8.821   4.041  0.0547 -0.2529  0.0600
16114W        W34318  12.921  10.415  14.209 -0.4563 -0.3463  0.0581
16115W        W34319  16.000  13.248   3.368  0.1734 -0.0962 -0.0156
16116W        W34320   3.325   9.060   3.116 -0.0850 -0.2137  0.0495
16117W        W34321   3.551   5.765  12.741  0.2104  0.0189  0.1214
16118W        W34322  12.749   3.297   0.507  0.1048 -0.3401 -0.1523
16119W        W34323  10.529  17.217  12.485  0.0255  0.0248  0.2832
16120W        W34324  14.915  12.897  11.394 -0.0345  0.1292 -0.0197
16121W        W34325   4.793  12.531  15.655  0.0795 -0.3208  0.0461
16122W        W34326  10.606  11.254   5.050 -0.3195  0.1244  0.4722
16123W        W34327  14.231   3.073  15.184  0.1568  0.4171 -0.0944
16124W        W34328   9.437  15.952  11.079 -0.0655 -0.0122  0.2197
16125W        W34329  12.589   1.797   2.354 -0.1915 -0.1748  0.2738
16126W        W34330  11.439  10.730   4.524 -0.2071 -0.1063  0.1452
16127W        W34331  16.533   7.478   3.336  0.3343 -0.1027 -0.0196
16128W        W34332   5.178  16.071   0.913  0.1117  0.0509 -0.3405
16129W        W34333  10.230  11.496   5.245  0.0925  0.0859 -0.3084
16130W        W34334   9.542   4.909  11.712 -0.1079  0.0245  0.0272
16131W        W34335  13.447   4.655   4.323 -0.2095 -0.2815 -0.2524
16132W        W34336  12.341  15.453  11.464  0.0901  0.2044 -0.1287
16133W        W34337  17.347   7.031   3.309  0.1366 -0.3928 -0.3060
16134W        W34338   0.648  12.826   3.649  0.0375 -0.0648 -0.1381
16135W        W34339   1.932   9.201   5.162  0.1055 -0.1003  0.2412
16136W        W34340   9.013  14.359   0.735 -0.3040  0.2280  0.0230
16137W        W34341  16.311   5.636   1.363  0.1477  0.2021 -0.2166
16138W        W34342  16.078   3.469  13.335  0.0042 -0.0667 -0.1209
16139W        W34343   1.907   6.186   3.273 -0.0892  0.2043 -0.1881
16140W        W34344   7.418  16.967  14.711 -0.2304  0.1300 -0.1955
16141W        W34345  12.436   3.641   0.742 -0.0696 -0.0437 -0.0677
16142W        W34346  16.092  14.557  12.513 -0.0647  0.0119 -0.0133
16143W        W34347  16.432   3.037   3.057  0.2333  0.2749  0.1284
16144W        W34348   7.818   0.261   4.260  0.0200  0.1364 -0.0377
16145W        W34349  12.961  12.759   0.805  0.0215  0.3078 -0.0704
16146W        W34350   9.768   8.794  13.386  0.2281  0.2377  0.2093
16147W        W34351   8.986   1.870  11.574 -0.0678  0.1805  0.0810
16148W        W34352  15.009   2.761  13.712  0.4201  0.0318  0.2651
16149W        W34353   8.131  14.245   0.153  0.1986 -0.1566 -0.1108
16150W        W34354   6.840  12.510   5.495 -0.3024 -0.1438  0.2015
16151W        W34355  13.308  16.675   1.360 -0.2936  0.0682 -0.0035
16152W        W34356  17.908  14.484   2.635  0.2452  0.2977 -0.1737
16153W        W34357   2.129  15.227  14.904  0.0661  0.2571  0.4270
16154W        W34358  10.569   3.781   5.424  0.1658 -0.1123 -0.1121
16155W        W34359  16.076   9.197  11.129 -0.0737 -0.2525  0.0613
16156W        W34360   6.010   1.051  12.766  0.3538 -0.1796  0.1860
16157W        W34361   9.127   7.384   0.033 -0.1732 -0.1386 -0.2266
16158W        W34362   7.123  12.880  12.571  0.1495 -0.1106  0.2876
16159W        W34363  14.301   3.206  13.914  0.0280 -0.3081 -0.0952
16160W        W34364  16.712   5.572  12.148 -0.1627  0.0195 -0.1871
16161W        W34365   8.196   0.615   0.661  0.0694 -0.0090 -0.0952
16162W        W34366  11.650  17.057   3.004  0.0935  0.1091 -0.0575
16163W        W34367   9.609  15.043   0.695  0.2210 -0.4719  0.2075
16164W        W34368   8.778   8.369  11.924 -0.1726  0.1117  0.1401
16165W        W34369   4.314   8.497   2.795  0.1063  0.0028  0.0393
16166W        W34370   2.114   7.036  11.528  0.2854 -0.0703 -0.1067
16167W        W34371   0.717  10.489   3.207  0.1540 -0.4128 -0.2614
16168W        W34372   8.224  15.695  11.053 -0.1787 -0.2899  0.1524
16169W        W34373  13.911  12.843   3.616  0.1228  0.1548 -0.0148
16170W        W34374   5.535   3.650  12.140 -0.0026  0.1931  0.2523
16171W        W34375  14.409   3.647   3.337  0.2694  0.2435 -0.0418
16172W        W34376  12.179  10.540   4.905 -0.0028 -0.0361  0.1180
16173W        W34377   9.934   3.943  10.449  0.0734  0.3073 -0.1732
16174W        W34378  13.955  15.246  13.603  0.1247 -0.0601  0.4039
16175W        W34379   6.324  11.480  15.213  0.0128 -0.0791 -0.1211
16176W        W34380   6.562  12.672  11.722 -0.1200 -0.1538  0.0629
16177W        W34381   2.789   4.965   0.632 -0.0903  0.1539 -0.0583
16178W        W34382   0.794  17.415   4.774 -0.1297 -0.0822 -0.2212
16179W        W34383  16.940   7.341  14.994 -0.1008  0.0442  0.0580
16180W        W34384  15.024  13.950   1.502  0.2910  0.1670  0.2110
16181W        W34385   7.945  11.635   4.423 -0.2387 -0.0504  0.0037
16182W        W34386  12.687  14.300  14.507  0.0689 -0.1858 -0.1478
16183W        W34387   3.462  17.959   2.335 -0.1413 -0.1413  0.0122
16184W        W34388  10.489   2.032   0.615  0.0396 -0.0906 -0.1689
16185W        W34389  12.879   5.717  13.371  0.3522 -0.0810  0.3470
16186W        W34390  16.923   1.633   1.954 -0.0465 -0.1568  0.1181
16187W        W34391   8.056   8.762   0.043 -0.0019  0.0228  0.0706
16188W        W34392  10.689   6.423   0.240 -0.2685 -0.0758 -0.3385
16189W        W34393  15.766  14.635  15.157 -0.1623 -0.2123 -0.0955
16190W        W34394  10.070  13.607   2.074 -0.1195  0.0723 -0.2770
16191W        W34395   1.902  16.456   3.123 -0.0612  0.0721 -0.1357
16192W        W34396   2.503   3.122  14.492 -0.0401 -0.5606  0.0811
16193W        W34397  11.203   5.814  13.943  0.0183 -0.3870  0.3255
16194W        W34398  14.215   6.493   3.046 -0.1011  0.0285  0.1590
16195W        W34399  15.594   4.976   3.361 -0.1016 -0.2517 -0.2383
16196W        W34400  12.328  12.238   3.972 -0.0607  0.1910  0.3242
16197W        W34401   6.004   2.276   1.265  0.0290  0.0389 -0.2632
16198W        W34402  12.037   6.991  12.502  0.1200  0.1231  0.0161
16199W        W34403   1.920   1.530  12.668 -0.0742 -0.0111 -0.2843
16200W        W34404  10.894   5.764   2.807 -0.1102 -0.0549 -0.0908
16201W        W34405  10.891  11.213  14.860  0.0031  0.0753  0.0173
16202W        W34406   3.256   5.040   3.009 -0.1697  0.3243 -0.1296
16203W        W34407   7.098  13.328   0.629  0.0604 -0.0934  0.0429
16204W        W34408  18.155   2.981  12.269 -0.1376  0.4364 -0.2000
16205W        W34409  15.384  17.662   1.382  0.0993  0.2871 -0.1375
16206W        W34410  17.994  13.664  10.872  0.1735  0.0376  0.1706
16207W        W34411  14.258  14.939   4.297 -0.0765  0.2760 -0.1320
16208W        W34412  18.305   2.516  15.705 -0.0360  0.0563 -0.4639
16209W        W34413   1.387  13.422  13.967  0.1378  0.3681  0.2482
16210W        W34414  10.752  13.242  14.630  0.2813 -0.0234 -0.0804
16211W        W34415   3.889  15.660  15.127 -0.0116  0.0057  0.0580
16212W        W34416  17.470  16.282   4.271 -0.0942  0.0893  0.1007
16213W        W34417   8.357  11.553   0.676  0.1776  0.1481  0.1013
16214W        W34418   2.328   5.938   3.554 -0.3251 -0.0083 -0.0181
16215W        W34419  17.809  14.987  15.648 -0.0137 -0.1196  0.1796
16216W        W34420  17.714   1.891   2.038  0.1010  0.0662  0.3011
16217W        W34421   8.583   6.611   3.828 -0.0540 -0.1648 -0.2298
16218W        W34422   1.469  16.435   1.875 -0.0884  0.2061  0.1623
16219W        W34423   3.153   6.230  10.975  0.1554 -0.2759  0.0203
16220W        W34424   9.381  18.182   2.712 -0.1618  0.1010  0.0580
16221W        W34425   2.030   8.492  14.694 -0.1731 -0.0371  0.4579
16222W        W34426   3.228   5.128   0.422  0.1324  0.1033  0.2517
16223W        W34427   8.932  11.606  14.501  0.0017  0.0128 -0.1052
16224W        W34428  16.231  11.734  13.282 -0.1303 -0.1295  0.5034
16225W        W34429   7.866   9.769   5.214  0.0731  0.0653 -0.1649
16226W        W34430   4.062  13.604   3.917 -0.0141 -0.4484  0.1844
16227W        W34431  17.586   0.571   3.630  0.0381 -0.0193  0.0266
16228W        W34432  13.046   7.862  13.572  0.0569  0.1580  0.0572
16229W        W34433  16.488   5.446   4.632  0.2989  0.0977  0.0287
16230W        W34434   6.328   0.984  13.462  0.0905 -0.0919 -0.1072
16231W        W34435   8.807   2.262  12.791 -0.2564 -0.0389  0.0501
16232W        W34436   2.465  17.486   2.976 -0.1492 -0.2839  0.0025
16233W        W34437  16.999  18.003   2.578 -0.1726 -0.0122  0.2807
16234W        W34438   0.353   7.096   1.474 -0.1402 -0.1822  0.0115
16235W        W34439   6.746   0.801  11.441 -0.2281  0.1727 -0.0443
16236W        W34440   8.336   1.206   5.482  0.0957  0.1321  0.0331
16237W        W34441   8.108   0.640   2.202  0.4334  0.2174 -0.1315
16238W        W34442  12.183   8.213  12.278  0.3991 -0.1802 -0.1244
16239W        W34443   9.647   9.597  11.343 -0.2094 -0.1188 -0.1047
16240W        W34444  13.508  11.706   0.405 -0.1287 -0.0373 -0.0188
16241W        W34445  16.733  10.432  11.447 -0.0080  0.1694  0.0908
16242W        W34446   6.238  13.430  13.394  0.2381  0.2148  0.1011
16243W        W34447   5.155  18.235  14.591 -0.0298  0.0001  0.1416
16244W        W34448   4.198   5.211   3.911 -0.3049  0.1533  0.0219
16245W        W34449   9.752  15.282   9.838 -0.1014 -0.3242 -0.1985
16246W        W34450  10.874   6.201  12.040  0.1195 -0.3854  0.1907
16247W        W34451  11.539   2.088   1.461  0.0210  0.0822  0.0667
16248W        W34452   0.686  13.040   0.246 -0.2219  0.2109  0.0937
16249W        W34453  13.387  14.355   5.799 -0.0102 -0.1046  0.0507
16250W        W34454   2.309  17.707   0.769 -0.1773  0.0010 -0.0933
16251W        W34455  11.134  15.124  13.643  0.2648 -0.0574  0.2983
16252W        W34456  12.230   8.719   0.705  0.2453  0.1072 -0.2117
16253W        W34457   8.459   0.018  12.818 -0.0507 -0.1423  0.1628
16254W        W34458   1.073   5.487  13.278  0.2080  0.1325  0.0233
16255W        W34459   4.917   3.181  11.293  0.0917  0.1304  0.1191
16256W        W34460  12.586  10.337   2.597  0.1804  0.2666  0.0183
16257W        W34461  14.506  13.146   1.120  0.1225 -0.0795 -0.3082
16258W        W34462  14.373   9.621  14.418  0.3524  0.1072  0.3450
16259W        W34463  16.621   0.947   0.719 -0.0525 -0.1583  0.2745
16260W        W34464  11.989   4.807  11.204  0.1034  0.1824 -0.1633
16261W        W34465   0.959   1.227   4.151 -0.1416  0.0699  0.0593
16262W        W34466   0.595  15.859   1.942 -0.1269 -0.0039 -0.0333
16263W        W34467   0.774   7.431   0.622 -0.2127  0.0814  0.0047
16264W        W34468   5.810  10.193  13.859 -0.0079  0.1667 -0.0476
16265W        W34469  14.130  10.297   1.739  0.0058 -0.2893 -0.3349
16266W        W34470   1.430   0.138   0.499 -0.1014 -0.0206 -0.1415
16267W        W34471   6.170  16.283   9.762  0.2771  0.2269  0.2238
16268W        W34472   7.142   3.086   1.970 -0.4662 -0.0115 -0.0675
16269W        W34473  16.633  16.912   1.069 -0.2501 -0.1652  0.0192
16270W        W34474   0.286   5.172  15.656  0.1098  0.0302  0.3685
16271W        W34475  10.554  15.999   2.136 -0.2945 -0.2311  0.1043
16272W        W34476   1.216   5.159   0.783  0.1551 -0.2264 -0.4483
16273W        W34477   6.081   0.516  10.613  0.1101 -0.1977 -0.2268
16274W        W34478   8.331   5.721  12.972 -0.1123  0.2419  0.0992
16275W        W34479  10.884   7.659  11.719 -0.2701 -0.3196  0.2596
16276W        W34480   9.037  11.518  15.501  0.1786 -0.0957 -0.2926
16277W        W34481   6.552   1.242   3.775  0.2131  0.3835 -0.1344
16278W        W34482  18.325   4.247  11.990  0.0045 -0.0088  0.1029
16279W        W34483  16.462  11.180   4.316 -0.0459  0.1270 -0.0729
16280W        W34484   6.941  14.747  13.457  0.0858  0.3472  0.0526
16281W        W34485   5.051  15.648  12.610  0.0777  0.0724 -0.0445
16282W        W34486  11.432  16.241   1.491  0.0625 -0.0069  0.0463
16283W        W34487  10.067   1.937  15.456  0.0515 -0.3824  0.1200
16284W        W34488   2.048  15.796  12.887  0.2494 -0.0613 -0.2630
16285W        W34489  17.570   0.566  11.096  0.0455 -0.1874 -0.1732
16286W        W34490  10.018   8.434  12.456  0.0601 -0.1683  0.1481
16287W        W34491   6.386   5.582   0.520 -0.2118 -0.0403 -0.0602
16288W        W34492   7.401   0.962  12.649 -0.0049 -0.0444  0.1963
16289W        W34493   3.255  15.873  14.964  0.0374 -0.1019 -0.0444
16290W        W34494  15.400   6.059   0.015  0.1447 -0.0704  0.2121
16291W        W34495   2.911  10.029  10.111 -0.0141  0.0527  0.4245
16292W        W34496   0.384   9.226   3.454 -0.3697  0.0377 -0.1355
16293W        W34497  15.166   1.818  14.844 -0.3099  0.0841 -0.2821
16294W        W34498   0.658  15.679  12.365 -0.0675 -0.0570  0.1905
16295W        W34499   0.764   7.268  11.596 -0.0818 -0.1232  0.0742
16296W        W34500   9.688   9.252  14.950 -0.1839  0.0757 -0.2789
16297W        W34501  13.383  12.558  15.553  0.1703 -0.1619 -0.0654
16298W        W34502   0.025   3.916   0.300 -0.0013 -0.0604  0.0149
16299W        W34503   3.264   0.336   3.487 -0.0640  0.1635  0.1348
16300W        W34504  11.535   0.925  13.437 -0.2324  0.2293  0.2000
16301W        W34505   2.013  17.508   1.182 -0.3938  0.0026 -0.0313
16302W        W34506  12.798  14.115   3.643 -0.1768  0.0315  0.1400
16303W        W34507  12.549   2.189  15.119 -0.2961  0.1783 -0.0163
16304W        W34508  11.372   3.719  15.613 -0.2375  0.1468 -0.2526
16305W        W34509  14.230   4.515  14.885 -0.1217 -0.0704  0.0519
16306W        W34510  11.948  15.176  11.481 -0.1308  0.1610 -0.0983
16307W        W34511   6.673   7.931   4.707 -0.2166  0.1090  0.3120
16308W        W34512  17.763  12.182  13.128  0.2685 -0.3433  0.0014
16309W        W34513   0.606  15.129   1.079 -0.0151  0.0748 -0.0042
16310W        W34514  14.666  14.372  12.326 -0.1723 -0.0005  0.1017
16311W        W34515  14.187   4.197  12.513 -0.1426  0.0022 -0.0466
16312W        W34516   3.363   7.697  14.766 -0.1548  0.0861  0.0072
16313W        W34517  12.534   8.074  12.637 -0.1650  0.1076  0.0829
16314W        W34518   9.392   5.618  13.483  0.0309  0.2177  0.0833
16315W        W34519  10.040  11.298  15.574 -0.2787 -0.5457 -0.2238
16316W        W34520   1.104  14.632   2.558  0.2531 -0.1003  0.0445
16317W        W34521   9.265   7.883   1.463  0.3170 -0.1907  0.0358
16318W        W34522   2.327  12.470   0.935 -0.1261  0.1046 -0.3739
16319W        W34523   0.407   4.846   2.678 -0.1494  0.0202 -0.3076
16320W        W34524   3.257   6.081  15.317  0.0137 -0.1054 -0.2936
16321W        W34525   3.205   4.661  10.886  0.0997  0.2152 -0.2272
16322W        W34526  14.642  16.544   3.799  0.0056  0.2793  0.2060
16323W        W34527  17.812  16.703   1.597 -0.2657  0.2335 -0.1127
16324W        W34528   8.864   7.352   4.431 -0.2519  0.1298 -0.0637
16325W        W34529   0.768   5.452   2.144  0.1981  0.0665  0.0542
16326W        W34530   1.596  17.591   3.331  0.1168  0.0051 -0.0331
16327W        W34531  10.880  16.158   1.164 -0.3212 -0.0308 -0.0846
16328W        W34532  13.063   7.000  11.527 -0.2747  0.0908 -0.2822
16329W        W34533  13.526  15.160   2.497 -0.0026  0.0923  0.0423
16330W        W34534  10.947  17.717  11.755  0.2275  0.1704 -0.2179
16331W        W34535   9.112   8.632   2.979 -0.1228  0.1127  0.0702
16332W        W34536   7.686  11.660  13.734  0.3604  0.0928 -0.2151
16333W        W34537   6.938   8.465   0.460 -0.1535  0.0973 -0.0908
16334W        W34538   1.814   5.186  13.415  0.3526  0.1734  0.0243
16335W        W34539  16.689  10.249   1.543  0.0369  0.1685 -0.0804
16336W        W34540   7.854  13.390   2.963  0.1486  0.0506  0.0985
16337W        W34541  10.686  12.355  14.626 -0.3062 -0.0488  0.0049
16338W        W34542  12.105   1.884  12.248 -0.2996  0.2786 -0.0425
16339W        W34543   5.029  12.274   0.397 -0.1254 -0.0237  0.2247
16340W        W34544   5.821  10.694   2.531 -0.2387  0.0294  0.0547
16341W        W34545   2.286   2.953  12.034  0.0909  0.0941  0.0647
16342W        W34546   1.670  11.925  13.544 -0.0740  0.0382 -0.0449
16343W        W34547  10.258   8.031  12.771  0.1155  0.0402 -0.1457
16344W        W34548  14.360  15.034   5.251 -0.0938 -0.1447 -0.2096
16345W        W34549   0.932  14.830  15.013  0.1966 -0.2067  0.0829
16346W        W34550   2.635  15.281   3.964 -0.0252  0.1482  0.0812
16347W        W34551   3.831  17.858  11.250  0.3051 -0.0913 -0.1467
16348W        W34552   8.844  13.598   4.442  0.1625  0.1524  0.0873
16349W        W34553  16.833  16.386   3.255 -0.1595  0.1082  0.0055
16350W        W34554  15.642  11.185  13.514  0.0424  0.0810 -0.0457
16351W        W34555   3.040   4.685   1.795 -0.2150 -0.1178 -0.0996
16352W        W34556   0.316  12.087   3.979  0.1710  0.1434 -0.0292
16353W        W34557   3.839   1.590   0.219 -0.0957 -0.0441  0.0358
16354W        W34558   0.088  11.868  12.509 -0.1892  0.0671  0.0321
16355W        W34559  16.022  16.633  13.674 -0.2089 -0.0855 -0.1668
16356W        W34560   1.112   1.798  13.146 -0.1111 -0.1189 -0.1593
16357W        W34561   4.524  13.416  12.612  0.1207  0.2204  0.0891
16358W        W34562  16.814   0.528  15.173  0.0833  0.0647 -0.3038
16359W        W34563  16.600   6.974   1.808 -0.3316 -0.2352  0.2038
16360W        W34564  16.996  12.981   3.569 -0.1868  0.0650  0.0165
16361W        W34565   8.888   2.757  11.689 -0.2396 -0.0122  0.0148
16362W        W34566  10.255   4.299   0.607 -0.0261  0.1828 -0.1252
16363W        W34567   8.255  12.356   0.712  0.0861 -0.2204  0.0715
16364W        W34568   7.506  12.160  13.369 -0.0549  0.1255 -0.1471
16365W        W34569  17.218  13.463   0.389 -0.0647 -0.0041 -0.2659
16366W        W34570  14.010   2.365  14.047  0.1340  0.0696  0.1475
16367W        W34571   6.239   7.825  10.956  0.0644 -0.2408  0.1344
16368W        W34572  17.516  17.100  13.932  0.1700  0.0068 -0.1200
16369W        W34573   4.521   2.285   2.723 -0.0504  0.1417  0.2578
16370W        W34574  13.779   3.902  12.778  0.1530 -0.0713 -0.2205
16371W        W34575   6.125   4.671   2.552 -0.0338  0.2440  0.3061
16372W        W34576  11.806  16.699   2.652 -0.1287 -0.1384 -0.1479
16373W        W34577  13.301   3.422  11.505  0.1733  0.4152  0.0182
16374W        W34578   7.700   4.464  14.186 -0.0327  0.0079  0.1087
16375W        W34579   7.093  14.872   2.453 -0.0769  0.0002 -0.0285
16376W        W34580   3.129   4.885  11.355 -0.2179 -0.1279  0.1723
16377W        W34581  12.997   5.784   0.844 -0.1416 -0.1912 -0.0067
16378W        W34582   6.009  14.317  14.373 -0.0660  0.0441 -0.1721
16379W        W34583   7.149  14.307  14.217  0.4379 -0.0805 -0.0004
16380W        W34584  18.162   9.903  12.696  0.0915  0.2607 -0.0495
16381W        W34585  11.765   7.215  13.414  0.2661  0.1104 -0.4196
16382W        W34586   2.579  13.048   2.427 -0.1612 -0.1417  0.2068
16383W        W34587   8.710   6.096   2.052  0.2131 -0.2918 -0.0102
16384W        W34588  13.285  14.851   0.313  0.2678  0.1970  0.0625
16385W        W34589   7.635   2.472  14.616  0.0931  0.1079 -0.1095
16386W        W34590  15.607  16.645  11.856 -0.1220  0.1055 -0.0224
16387W        W34591  18.366  11.429  12.251  0.0979  0.1112  0.2685
16388W        W34592   3.382  17.945  12.104  0.2111  0.3881  0.0744
16389W        W34593   1.580   2.909   9.913 -0.0872 -0.0901 -0.0594
16390W        W34594   2.905  16.666  12.405  0.1062  0.1329  0.2129
16391W        W34595  11.863   1.857  15.341  0.2153  0.0812  0.3518
16392W        W34596  11.178  15.139  15.032 -0.2601  0.1399  0.3300
16393W        W34597   5.744   4.250   3.645 -0.1094 -0.0699 -0.0646
16394W        W34598  13.070  14.556   3.390  0.1124  0.1284  0.3453
16395W        W34599   2.066  12.183   2.305 -0.1290 -0.0010 -0.2096
16396W        W34600   3.515   9.979   0.364 -0.1650  0.2042  0.1517
16397W        W34601  13.281  15.931   1.809 -0.3220 -0.0576  0.0903
16398W        W34602   2.148  14.927  12.888  0.0345  0.2061 -0.0149
16399W        W34603   3.759   2.067   4.435 -0.0667 -0.1233  0.0652
16400W        W34604   2.265   6.525   1.563  0.3003  0.1887  0.0144
16401W        W34605  15.924   7.304   2.395 -0.2473  0.0772 -0.4217
16402W        W34606   9.019   3.287  12.356 -0.3086 -0.0454  0.0143
16403W        W34607   7.973  15.931  15.440  0.1312 -0.0255 -0.1775
16404W        W34608  12.578   2.285  11.573  0.2813 -0.1174  0.2825
16405W        W34609  12.921   9.267   0.121 -0.4956  0.0513 -0.1520
16406W        W34610  15.612  12.204   0.932  0.0255 -0.2360 -0.2399
16407W        W34611  10.895   3.370   3.548 -0.1197  0.1950 -0.0934
16408W        W34612  17.009  16.077  15.025  0.3157 -0.1174  0.1470
16409W        W34613   2.419   6.780  15.538 -0.1408 -0.2427 -0.2545
16410W        W34614  17.234  10.223  14.911  0.5642 -0.1535 -0.2100
16411W        W34615  17.021   6.715  13.383 -0.0351  0.2294  0.1431
16412W        W34616   9.508   8.312   4.742 -0.0323 -0.2077  0.1449
16413W        W34617  14.172   4.906   3.722 -0.1624 -0.0988 -0.0936
16414W        W34618  17.797   2.164   1.228 -0.0604 -0.1408  0.0446
16415W        W34619  14.787   0.837  13.581 -0.2468 -0.0362 -0.3537
16416W        W34620  11.155   0.403   3.903 -0.2280  0.0296 -0.2178
16417W        W34621   2.197  12.885  11.679  0.1728  0.3175  0.1393
16418W        W34622   8.881   2.844   1.591  0.1184  0.2360 -0.0832
16419W        W34623   0.850   2.889  13.301  0.1639  0.3476 -0.0728
16420W        W34624  16.742   4.203  11.859  0.3332  0.2315  0.1648
16421W        W34625  13.531  16.587   2.985  0.0652  0.0066 -0.0777
16422W        W34626  12.254   1.876   4.506 -0.2389  0.2415  0.1267
16423W        W34627  12.834   4.840  11.498  0.0925  0.0084 -0.0540
16424W        W34628   5.547  11.967  10.975 -0.0441  0.0656 -0.0608
16425W        W34629   1.742  15.865   0.225  0.0998  0.1609  0.2075
16426W        W34630   4.508   0.560  11.676  0.0131 -0.1487  0.0728
16427W        W34631  14.865   3.438   0.695  0.0260  0.0777  0.0796
16428W        W34632  15.904   0.217   2.517 -0.0463 -0.1669  0.0351
16429W        W34633   5.311  17.248  13.870 -0.4691 -0.2414 -0.0993
16430W        W34634  15.284  16.777   0.529 -0.0690 -0.2719 -0.2286
16431W        W34635   2.073  12.555   3.954 -0.0928 -0.1841 -0.0453
16432W        W34636  12.761   1.692  14.037  0.4368  0.0566  0.0327
16433W        W34637   5.143  13.628  10.948  0.2745 -0.2307 -0.1459
16434W        W34638   2.754  10.021   3.837 -0.0649  0.0526 -0.0304
16435W        W34639  13.015   3.814   2.036  0.0604  0.2837 -0.3475
16436W        W34640  10.286   2.203  12.299 -0.0991  0.0019  0.1165
16437W        W34641   6.969  16.649   1.414 -0.0821  0.0872 -0.0485
16438W        W34642  15.344   9.626  10.863 -0.1342  0.2626  0.1307
16439W        W34643  11.363   3.045   1.784 -0.1580 -0.1441 -0.0341
16440W        W34644   1.224  11.041  14.900 -0.1126 -0.0011 -0.0702
16441W        W34645   1.928  17.687  11.733  0.0622 -0.0741 -0.2042
16442W        W34646   4.586   9.608  14.346 -0.0794 -0.1111  0.1837
16443W        W34647  16.187   3.977   2.742 -0.0170 -0.1385 -0.0385
16444W        W34648   0.139  13.158   3.657 -0.1300  0.3044 -0.0263
16445W        W34649  15.940  17.654  11.415 -0.1519  0.0069  0.0576
16446W        W34650  10.398   0.338  11.797 -0.0576  0.0965  0.1164
16447W        W34651   5.367  17.488   0.552  0.0943 -0.0773 -0.1371
16448W        W34652  10.100   7.227   1.770  0.1218  0.1697 -0.0967
16449W        W34653  17.229  13.087   5.382 -0.1918  0.1964  0.2184
16450W        W34654   7.475   6.455  15.138 -0.0629  0.1836 -0.2823
16451W        W34655  11.213   2.162  11.548 -0.0203 -0.0649 -0.6837
16452W        W34656  12.689   7.427   1.253 -0.1273 -0.1387 -0.0451
16453W        W34657  17.863   1.970  15.150  0.4029  0.2056  0.0036
16454W        W34658  14.485   5.252   5.722 -0.2686  0.3884  0.0200
16455W        W34659   9.868   2.529   1.285  0.0896 -0.1963  0.1525
16456W        W34660  12.312   7.893   0.433  0.1562 -0.3560 -0.0982
16457W        W34661   6.185  17.753   4.579  0.1224  0.2281  0.1671
16458W        W34662  18.163   2.671   2.332  0.1278 -0.2881 -0.1640
16459W        W34663  11.924   2.743   3.506 -0.1895 -0.3494  0.1899
16460W        W34664   0.319  14.094   2.519  0.0226 -0.1895 -0.0187
16461W        W34665  14.098  12.006   0.885 -0.2349  0.1757  0.0862
16462W        W34666   5.237  16.297   0.492  0.1015 -0.1118  0.1489
16463W        W34667   4.250  10.143  14.461 -0.0914 -0.3339  0.0033
16464W        W34668  17.146   7.929  11.300 -0.0287 -0.0514  0.1165
16465W        W34669   5.503  11.773  11.476  0.1716  0.0221  0.0315
16466W        W34670  13.958   0.238  11.055 -0.1802  0.0037  0.2030
16467W        W34671  12.934   9.747   2.086 -0.3768  0.0542  0.1557
16468W        W34672  12.426   9.295  14.693 -0.1460  0.3559 -0.0093
16469W        W34673   1.238   8.172  13.715 -0.0469  0.2033 -0.1919
16470W        W34674  15.969  16.327   0.124  0.1197 -0.1602  0.1660
16471W        W34675  13.550   4.992   3.962 -0.1352 -0.1256 -0.2410
16472W        W34676   2.657   1.597   5.728 -0.1278  0.1407  0.1225
16473W        W34677   0.310   8.253  14.845 -0.1338 -0.2634  0.0833
16474W        W34678  16.204  12.778   0.019 -0.1703  0.2182  0.1415
16475W        W34679   5.630  15.921  13.531  0.4171  0.2486 -0.0749
16476W        W34680  13.943   1.787  12.181  0.2684 -0.4081 -0.0134
16477W        W34681  17.913   6.281   3.083 -0.0401 -0.2040 -0.2555
16478W        W34682   3.679   2.697  10.007  0.1079  0.1750  0.0985
16479W        W34683  10.200   6.953  11.483  0.2014 -0.1077  0.1385
16480W        W34684  16.414   5.946  13.735 -0.2431 -0.5333 -0.1051
16481W        W34685  14.960   8.955  12.972 -0.0744 -0.0870 -0.0863
16482W        W34686  17.124  16.023   4.069 -0.1341  0.2954  0.2783
16483W        W34687   0.625   4.834  12.203  0.2043 -0.1603 -0.1311
16484W        W34688  17.109   3.152  15.652 -0.2200 -0.1006 -0.0487
16485W        W34689   0.638  14.335   1.773 -0.0695 -0.0440  0.1566
16486W        W34690   7.016   6.483  14.150  0.0709  0.2075  0.0559
16487W        W34691   9.967  12.414  14.486  0.1383 -0.0305  0.0787
16488W        W34692  12.515   6.553  14.204  0.0647 -0.3671 -0.0682
16489W        W34693  10.801  16.869   1.160 -0.4676 -0.0719 -0.3879
16490W        W34694   0.909  12.031   0.555 -0.0962 -0.2054  0.2642
16491W        W34695  17.887  16.607  12.689  0.1926  0.2770 -0.0500
16492W        W34696   8.710  15.017  15.470 -0.2591 -0.2436 -0.1854
16493W        W34697   3.145   5.866  11.281  0.0209  0.3268 -0.0672
16494W        W34698   3.052  12.806  12.199  0.1796 -0.1242 -0.0111
16495W        W34699   5.723   7.992   1.279  0.0266 -0.2486 -0.0354
16496W        W34700  10.324   7.287  13.073 -0.0280 -0.0865 -0.0464
16497W        W34701  16.275   9.485  15.332  0.0998  0.1682  0.3139
16498W        W34702   0.495   9.618   0.837 -0.1122 -0.0842 -0.2387
16499W        W34703   3.721  14.938  13.148 -0.2124  0.0381  0.1171
16500W        W34704  10.052   0.216   5.024 -0.1290 -0.0378  0.0570
16501W        W34705   6.432  16.781  12.206  0.0089 -0.1081  0.2902
16502W        W34706   8.612   8.379  14.407  0.0115  0.0675 -0.0207
16503W        W34707  10.281   5.462   0.276 -0.0110 -0.1777 -0.1848
16504W        W34708  11.614   4.277  13.200  0.2604  0.0921 -0.0617
16505W        W34709   8.432   5.165  12.997 -0.1580 -0.1581 -0.2084
16506W        W34710  14.308   3.999  14.718 -0.1935  0.3385  0.1267
16507W        W34711  15.050   3.965   2.871  0.0726 -0.1617 -0.0070
16508W        W34712   5.446   6.451  15.038  0.0209 -0.1171 -0.1273
16509W        W34713  10.185   2.880   1.296  0.2545 -0.3037 -0.0615
16510W        W34714   6.814  10.589   4.334 -0.0148 -0.0825  0.3001
16511W        W34715  16.465  14.398   1.095  0.1213  0.0875 -0.0121
16512W        W34716   9.609   0.926  13.485  0.0927  0.2956  0.1238
16513W        W34717  15.225   2.676  14.202 -0.2064  0.1451  0.0729
16514W        W34718   9.563  14.198   0.527 -0.2066 -0.0421  0.3532
16515W        W34719   3.420   7.969   1.842 -0.0802 -0.0936 -0.2553
16516W        W34720  10.462  10.980  15.027  0.2217  0.4299  0.0310
16517W        W34721   0.938  10.393   2.472 -0.1897  0.0625  0.0907
16518W        W34722   0.324   9.324   0.440 -0.3968 -0.3086 -0.2470
16519W        W34723   5.293  14.513  14.253  0.2694  0.1471  0.0835
16520W        W34724   9.825  12.862  14.666 -0.0469  0.0391 -0.0328
16521W        W34725   5.032  10.542  10.246  0.0811  0.2546  0.1686
16522W        W34726   4.754  14.006  10.844 -0.1705 -0.1208 -0.0604
16523W        W34727  10.384  14.231   2.309 -0.0437 -0.2351  0.0725
16524W        W34728  13.942  16.406   0.240 -0.1624 -0.0166 -0.0810
16525W        W34729   9.595   4.338  12.942 -0.0023 -0.2842 -0.0522
16526W        W34730   0.929   3.814   0.865 -0.1277  0.0452  0.1305
16527W        W34731   4.486   1.698  11.998 -0.0283 -0.3121 -0.0752
16528W        W34732   7.889  16.253  11.327  0.0714 -0.1749 -0.0055
16529W        W34733   8.980   8.852  14.609  0.2967  0.0949  0.1968
16530W        W34734  12.288  11.261   2.428  0.0708 -0.2255  0.0476
16531W        W34735   6.881  13.973   0.666  0.3146 -0.1127  0.1101
16532W        W34736  15.763   0.015   4.155 -0.0459  0.0880 -0.2904
16533W        W34737  17.100   6.222   4.420  0.1654  0.0528 -0.3482
16534W        W34738  14.063   9.104   3.595 -0.0796  0.0060 -0.2483
16535W        W34739  10.445   8.432   1.356  0.0650 -0.0700 -0.1038
16536W        W34740  14.428   8.653   4.554  0.0030 -0.0134 -0.1422
16537W        W34741  14.810   5.227  14.306  0.0286  0.1057  0.0413
16538W        W34742   0.443  10.242  15.590  0.0867 -0.4487 -0.0121
16539W        W34743   4.748   6.925  13.448  0.1180 -0.3647 -0.2743
16540W        W34744   8.729   9.380   2.264 -0.0334 -0.0503  0.1073
16541W        W34745   3.891  10.950  11.968  0.2109 -0.1086 -0.2992
16542W        W34746  11.682  14.045  11.989  0.0118 -0.0510  0.1228
16543W        W34747   5.052  10.881   1.162 -0.0484 -0.0197 -0.4053
16544W        W34748   7.702  10.613  14.446 -0.0927 -0.1211 -0.0523
16545W        W34749   5.810  10.259  11.502  0.2143  0.0014  0.0056
16546W        W34750  15.856   4.966   1.548  0.0832  0.1497 -0.0730
16547W        W34751  18.053   9.928  14.387  0.0682  0.0633  0.1277
16548W        W34752   7.225  13.727  14.899  0.0722 -0.2520  0.0270
16549W        W34753   1.137  14.762   3.401 -0.0872 -0.0387  0.0971
16550W        W34754   2.865   6.823  12.829  0.1250 -0.0394  0.1471
16551W        W34755   6.253   9.543  14.697 -0.1788  0.1416 -0.0833
16552W        W34756  14.841   6.684  15.321 -0.1827  0.2454  0.0840
16553W        W34757   6.146   5.631   3.093  0.0263 -0.1314  0.1552
16554W        W34758  16.599   9.019  11.197  0.0771 -0.1890 -0.0900
16555W        W34759   4.501  12.584  12.576  0.1980  0.2215 -0.0657
16556W        W34760   0.879   2.439  14.276 -0.4798  0.0067 -0.1764
16557W        W34761   6.152   1.877  11.782 -0.2182  0.1258 -0.0704
16558W        W34762   4.379  17.622   1.397 -0.1360  0.0112  0.0561
16559W        W34763   1.269   4.554  14.545  0.3149  0.0124  0.0382
16560W        W34764   9.475  13.483  13.675 -0.1758 -0.1710  0.4388
16561W        W34765   7.534  16.198  15.188 -0.1869  0.0264  0.0970
16562W        W34766   8.876   5.237  11.194  0.0372 -0.0329 -0.0771
16563W        W34767  13.862  11.593   0.717  0.0350  0.3259  0.1506
16564W        W34768  15.852   4.680   4.279  0.2014  0.2583 -0.0728
16565W        W34769  17.835  16.013  12.787 -0.0257  0.1563  0.2614
16566W        W34770   6.682  14.305   0.956 -0.0173 -0.1472 -0.2414
16567W        W34771  13.703   0.693   4.392  0.1311 -0.0642  0.3547
16568W        W34772  12.333   4.665  12.085  0.2994  0.0131  0.2412
16569W        W34773   4.918   6.485   4.349 -0.0938 -0.2036  0.1165
16570W        W34774   9.094  13.004  11.355 -0.1554  0.0988  0.0626
16571W        W34775  16.276  10.714   5.578 -0.0908  0.2943  0.0243
16572W        W34776   3.645   5.178  13.856  0.2432  0.2274  0.1443
16573W        W34777  12.174   4.732  10.764  0.1045  0.1425  0.2540
16574W        W34778   1.367   2.545   2.819  0.3799  0.0214 -0.1691
16575W        W34779  11.775  15.817  15.171  0.4483  0.3009 -0.1896
16576W        W34780  10.816   4.904  11.823 -0.2087 -0.0949 -0.1009
16577W        W34781  16.988   9.160  13.787 -0.2062  0.0934 -0.1560
16578W        W34782   7.386  18.197   3.499  0.2831 -0.0817  0.1303
16579W        W34783   8.822  14.104  13.525 -0.0392  0.2214  0.1659
16580W        W34784  14.578  12.172  15.614  0.1238 -0.1283  0.0442
16581W        W34785   9.731  10.432  11.504  0.2117 -0.3365  0.1525
16582W        W34786  14.461   7.526  12.910 -0.1042 -0.2473 -0.1976
16583W        W34787  14.977  10.734  14.934  0.0057 -0.0517 -0.0091
16584W        W34788   8.430  18.161   3.754 -0.0526  0.1213  0.0259
16585W        W34789   4.233  17.531  15.634  0.0993 -0.1592 -0.1037
16586W        W34790  10.951  17.777  15.207  0.0377  0.3292  0.2086
16587W        W34791   5.784   3.961  15.182  0.0150 -0.1236  0.1894
16588W        W34792  12.720   3.825  15.511 -0.0238  0.1573 -0.0259
16589W        W34793   0.140  14.713  14.680 -0.0834 -0.2800 -0.3104
16590W        W34794  13.249   9.715   5.446 -0.1358 -0.0008  0.0488
16591W        W34795  13.425  13.777  12.782  0.0635 -0.0734 -0.3380
16592W        W34796   2.032   4.879  12.498  0.3531 -0.1870 -0.2247
16593W        W34797  11.769   5.786  11.973 -0.0018 -0.1681  0.1304
16594W        W34798  13.096   1.814  15.539 -0.2107 -0.1575 -0.2949
16595W        W34799   3.236   6.195  14.055 -0.0380 -0.1224 -0.1014
16596W        W34800  16.931  10.329   3.946 -0.0684 -0.0010 -0.0198
16597W        W34801   8.197   0.526  12.544  0.1496 -0.1534 -0.0662
16598W        W34802  16.742   4.209   5.142 -0.0134  0.2807  0.3228
16599W        W34803   4.962   5.118   4.536  0.1067  0.1185 -0.2335
16600W        W34804   7.828   3.673  13.574  0.4015  0.2657  0.4588
16601W        W34805  15.647   2.891   2.275  0.3535 -0.0306  0.0546
16602W        W34806   5.626  15.173  14.856 -0.2384 -0.0031  0.0362
16603W        W34807  10.172   1.220  11.491  0.2243 -0.1287  0.1706
16604W        W34808   4.694   2.414  12.498 -0.0166 -0.1701  0.2788
16605W        W34809   9.957  14.880  14.689 -0.5065  0.0438  0.0741
16606W        W34810  13.275  18.325  15.491 -0.2908 -0.2408  0.0276
16607W        W34811   1.385   0.491  11.561 -0.2357  0.2394 -0.1515
16608W        W34812   2.257   5.337  13.155  0.2104  0.3617 -0.1470
16609W        W34813   3.238   8.606   0.354  0.1132 -0.0114  0.0198
16610W        W34814  13.305  13.678   1.940  0.3981  0.0350  0.1617
16611W        W34815  14.654  16.912  15.161  0.0344 -0.1053  0.1301
16612W        W34816  17.533  18.100  14.930 -0.3039 -0.0688 -0.2741
16613W        W34817  12.857   1.277   4.651 -0.4317 -0.0042 -0.0473
16614W        W34818  10.694   8.958  14.883 -0.0646 -0.0605  0.0628
16615W        W34819   0.557  14.647  13.279 -0.0057  0.0037  0.1788
16616W        W34820  17.770  15.464  12.805 -0.1325 -0.0274 -0.0549
16617W        W34821   5.104   0.963   0.319  0.0887  0.0730 -0.0976
16618W        W34822   9.895  11.822  14.819  0.1706 -0.0962 -0.0708
16619W        W34823  10.421   5.506  12.171  0.0770 -0.1713  0.3292
16620W        W34824   6.498   4.071  15.137 -0.0908  0.1660  0.2557
16621W        W34825  11.219   6.576  13.332  0.1909  0.1531  0.0677
16622W        W34826   4.269  12.046  12.478  0.1726 -0.2006  0.1568
16623W        W34827  15.138   3.541  11.849  0.0026  0.2694  0.3198
16624W        W34828  10.132  13.123  10.658 -0.3379  0.2549  0.2024
16625W        W34829   0.018  11.965   0.336 -0.0171 -0.0258 -0.2212
16626W        W34830   7.148   9.197   1.654  0.2771  0.0422 -0.1836
16627W        W34831  12.039  16.060  11.414 -0.0153  0.0725  0.1265
16628W        W34832  12.021  12.814  12.799 -0.0966  0.1216 -0.0322
16629W        W34833  12.487  16.168   3.449 -0.0479 -0.0271  0.0541
16630W        W34834   4.700   1.204  14.816 -0.0510 -0.1171  0.0058
16631W        W34835  15.453   3.310  14.240 -0.0312 -0.2495  0.0197
16632W        W34836   3.238  11.002   1.002 -0.0316 -0.0842 -0.0144
16633W        W34837  11.137   5.864  12.683 -0.2794  0.1727 -0.3631
16634W        W34838  11.665  12.577   4.357 -0.0051  0.4614 -0.0232
16635W        W34839  16.100   3.004  11.795 -0.1964  0.1922  0.0256
16636W        W34840  14.052  10.726  14.910 -0.2156 -0.2537 -0.0582
16637W        W34841  10.181  13.884  13.082  0.0898  0.0617 -0.3749
16638W        W34842   3.925   7.475  14.977 -0.1129 -0.0815  0.3324
16639W        W34843  14.363  15.535   0.631 -0.0597 -0.3666 -0.2076
16640W        W34844   0.729   6.584   4.742 -0.1373 -0.2024  0.2373
16641W        W34845  14.892  16.912   4.106  0.3641 -0.0892 -0.0864
16642W        W34846   5.849   1.211  13.322 -0.0405  0.1175 -0.1763
16643W        W34847   4.840   6.434  11.491  0.2852  0.1939 -0.0335
16644W        W34848   9.484   4.389   4.988  0.0330 -0.3203  0.1834
16645W        W34849  15.515   5.107  13.065 -0.2787  0.0278  0.0146
16646W        W34850   8.476   9.961  14.457  0.0014 -0.0011 -0.0385
16647W        W34851  15.343   0.139   5.518 -0.2079 -0.2346 -0.2823
16648W        W34852   6.439   3.701  11.646  0.1642  0.2680  0.0447
16649W        W34853   7.683  11.104  14.303  0.3598  0.3590  0.1126
16650W        W34854  11.254  10.166   3.185  0.1287 -0.0403  0.1295
16651W        W34855  10.020   1.471   2.406 -0.2505  0.0784 -0.2612
16652W        W34856   9.924   0.414  11.962 -0.1459 -0.3102 -0.0465
16653W        W34857  10.110   5.975   1.486  0.3094  0.1026 -0.0477
16654W        W34858   1.662   2.189   0.593 -0.2167  0.1874 -0.2792
16655W        W34859  14.005  17.618  13.800  0.0032  0.0469  0.2184
16656W        W34860   7.094   1.745  14.822 -0.2561 -0.0802  0.1914
16657W        W34861  11.786  14.041  15.479  0.0703 -0.0980  0.0605
16658W        W34862   4.660   5.072   0.154 -0.2552 -0.2776 -0.3058
16659W        W34863   8.763   9.967   3.795 -0.0711  0.1084 -0.1175
16660W        W34864   5.836   4.813   0.514 -0.4014  0.0508  0.2629
16661W        W34865  14.548   5.045  15.093  0.0486 -0.1417 -0.1577
16662W        W34866   9.874  12.129  12.001 -0.2987  0.4649  0.0633
16663W        W34867   2.277   4.005  15.409  0.0104  0.1253 -0.0417
16664W        W34868  10.500  10.074   1.535 -0.1791  0.1507 -0.3108
16665W        W34869  13.445   7.830  13.229  0.4323  0.3788  0.2159
16666W        W34870  16.595  12.805   1.428 -0.2540  0.2528 -0.2028
16667W        W34871   1.329  12.411   0.709 -0.2482  0.0325  0.0161
16668W        W34872  17.773   8.664   3.893 -0.0265  0.1050  0.3082
16669W        W34873   7.755  17.329  14.525  0.1122 -0.0683 -0.1995
16670W        W34874  12.063   5.784   2.248  0.3857 -0.0378  0.2145
16671W        W34875  10.296   9.361   1.902 -0.0668 -0.0995 -0.1691
16672W        W34876  12.502  14.698  12.309  0.3018  0.0592  0.0251
16673W        W34877  16.638  17.037  13.447 -0.3495  0.0354  0.2378
16674W        W34878  15.205   5.301   2.589  0.1893 -0.1330 -0.2170
16675W        W34879   7.998   5.916  15.704 -0.1425 -0.3555 -0.0626
16676W        W34880   6.928   2.402   3.367  0.2913  0.0734  0.1423
16677W        W34881  16.302   1.452  11.934 -0.0407 -0.0419 -0.0409
16678W        W34882  10.153   4.054   4.346  0.1453  0.0658  0.2156
16679W        W34883  10.032   8.494   4.190  0.3340  0.2579  0.1496
16680W        W34884  14.973   0.965  15.564 -0.1334 -0.1487 -0.1447
16681W        W34885  12.556   8.500  13.019 -0.0273 -0.1883 -0.1346
16682W        W34886   7.509   5.933   3.232  0.2217 -0.3520 -0.2679
16683W        W34887   4.984  15.238  11.300 -0.0032 -0.0604 -0.0000
16684W        W34888   5.189   6.089   2.123  0.1079  0.1445  0.2926
16685W        W34889  13.877  11.613  12.600 -0.0443 -0.0912  0.0315
16686W        W34890  15.677   9.631   2.597  0.3928 -0.0102  0.0888
16687W        W34891   6.127  16.989   1.827  0.0723  0.0929  0.0480
16688W        W34892   8.315   1.628   4.231 -0.1636  0.0918 -0.1392
16689W        W34893  12.487   0.935  12.238  0.0112 -0.2659 -0.0735
16690W        W34894   8.922   2.279  14.119 -0.0565 -0.0072  0.1575
16691W        W34895   5.098   1.602  14.492  0.2277 -0.1147  0.0517
16692W        W34896  14.449  13.782  11.034  0.0473  0.0359  0.2483
16693W        W34897   3.416  15.675   3.332 -0.1742  0.0688  0.0746
16694W        W34898  15.245  17.710   0.774  0.1728 -0.3586 -0.0448
16695W        W34899  11.456   2.406  12.830  0.0305  0.2919 -0.1587
16696W        W34900   9.361  11.977   5.442 -0.1152 -0.0148  0.0231
16697W        W34901  10.111  12.840  13.190  0.4228 -0.1079 -0.1499
16698W        W34902  11.593  15.935  13.245 -0.0155 -0.0078  0.0615
16699W        W34903   9.212   5.124  10.348  0.1182  0.1521  0.1406
16700W        W34904  15.854   7.042  12.974  0.0084 -0.1216  0.1462
16701W        W34905   1.502   9.995   1.618 -0.2429 -0.0560  0.2478
16702W        W34906   0.264   5.469  13.000 -0.0320  0.2339  0.0050
16703W        W34907   7.382   8.650   3.701 -0.2397 -0.2190  0.2135
16704W        W34908   8.610   2.661  14.904  0.0588 -0.3190  0.1977
16705W        W34909   8.030   5.162  15.121 -0.2300  0.3116  0.0974
16706W        W34910   8.715   7.541  12.451  0.2801  0.1500  0.0963
16707W        W34911   9.007   2.943   2.705 -0.2351 -0.0291 -0.3152
16708W        W34912  12.693   8.762   5.324  0.2694 -0.0501  0.3082
16709W        W34913  13.277   4.951  13.777 -0.1051  0.0262 -0.2585
16710W        W34914  13.276  14.709  12.771 -0.0652  0.3656  0.0251
16711W        W34915  10.264  15.906   2.800 -0.1047 -0.1183  0.4214
16712W        W34916  14.742   6.860  11.754 -0.1452  0.1211  0.0690
16713W        W34917   3.756   4.977   3.215 -0.1710 -0.1608  0.2081
16714W        W34918   3.335  16.767  15.601  0.2563  0.1281 -0.3176
16715W        W34919   4.726  12.079  10.830 -0.1610 -0.1418  0.0098
16716W        W34920  12.055  14.353  12.269 -0.1032 -0.0282 -0.1814
16717W        W34921   4.008   8.121   2.873  0.0964 -0.2717  0.2235
16718W        W34922  10.531   3.530  11.670 -0.1313  0.1931  0.0403
16719W        W34923   5.085   1.218  13.180 -0.2477 -0.0737 -0.0309
16720W        W34924   7.149  12.590  15.360 -0.0164 -0.0854  0.0250
16721W        W34925  11.101  17.456  13.281  0.0478 -0.1729  0.0719
16722W        W34926   3.267  11.230   1.456 -0.0409  0.0533 -0.0909
16723W        W34927   8.611   5.461  10.851  0.3035 -0.0373  0.4031
16724W        W34928   3.879  17.538  14.280 -0.0595  0.0970  0.1420
16725W        W34929   6.395  18.171  11.756 -0.0301  0.0368 -0.1549
16726W        W34930   8.165  16.633   1.101  0.0806 -0.0568  0.0981
16727W        W34931   6.857  16.893  12.434 -0.0613 -0.0263 -0.1965
16728W        W34932  15.749  15.510   4.976  0.1477  0.2275 -0.0325
16729W        W34933   2.183   2.023   0.478 -0.1635  0.0726 -0.1327
16730W        W34934   6.399  14.985   1.482 -0.2557 -0.1426  0.3486
16731W        W34935  15.618  14.031   1.545  0.1257 -0.2154  0.2250
16732W        W34936   7.943   0.152  12.796  0.1437 -0.0242  0.1051
16733W        W34937   9.935   6.632  13.686  0.4103  0.2042 -0.1988
16734W        W34938   9.649   2.470  14.428  0.0084 -0.1546 -0.0461
16735W        W34939   4.301   4.962   1.460 -0.1640 -0.0858 -0.0582
16736W        W34940   0.576   8.137  11.122  0.3136 -0.0905  0.1420
16737W        W34941   8.133   4.840  12.758  0.0239  0.0778  0.2910
16738W        W34942   0.379   2.477  12.811 -0.2803 -0.1351  0.2157
16739W        W34943  15.319  10.823   2.599  0.0072 -0.0516  0.1109
16740W        W34944   2.850  16.094   1.617  0.2351 -0.2273  0.2210
16741W        W34945   0.243  11.026  12.299  0.1363 -0.1136 -0.3342
16742W        W34946  14.564  17.808   1.076  0.0744 -0.2991  0.2440
16743W        W34947   4.862   5.389  14.202 -0.1566 -0.4270 -0.1573
16744W        W34948  16.838   2.736  15.675  0.1196  0.1707  0.1305
16745W        W34949   9.599  12.155   3.643  0.3315 -0.2826  0.1205
16746W        W34950   9.075  13.334  15.707 -0.2420  0.0237 -0.1068
16747W        W34951   0.907   4.016   2.312  0.0080  0.0661  0.0740
16748W        W34952  18.148  17.068   1.189 -0.3397 -0.0854  0.1323
16749W        W34953  12.022  11.325   0.440 -0.1857  0.2436  0.1081
16750W        W34954   1.800   6.524   0.121 -0.1102 -0.0549  0.2002
16751W        W34955   1.280  18.080   1.796 -0.0522 -0.0471 -0.2381
16752W        W34956  10.139  17.745  15.404 -0.0805 -0.2265  0.2320
16753W        W34957   9.542  16.444   1.668 -0.0843  0.0824  0.1616
16754W        W34958   3.170   6.881  15.696  0.1978 -0.0026 -0.0847
16755W        W34959   3.740  12.810  11.448  0.1688  0.2752  0.0655
16756W        W34960  15.169   3.029   4.180 -0.2524 -0.1317  0.1014
16757W        W34961   7.525  16.595   1.301  0.3136  0.0400  0.0926
16758W        W34962   3.415   0.519  13.951  0.0064 -0.0357 -0.3320
16759W        W34963  18.014   9.426  14.216  0.3529 -0.0151 -0.0071
16760W        W34964   9.959   8.833   2.747 -0.0132  0.0476 -0.2149
16761W        W34965  12.641   7.187  14.932  0.2415  0.0468 -0.2373
16762W        W34966   9.400  15.456   3.737  0.3006  0.0460  0.3508
16763W        W34967  11.299  11.891   1.079  0.2362  0.0725 -0.0875
16764W        W34968   3.286   2.332   2.833  0.1598 -0.1100 -0.1199
16765W        W34969  12.273  13.716   1.396 -0.0742 -0.0043  0.0667
16766W        W34970   5.611  10.460   3.182  0.2358  0.0573 -0.0279
16767W        W34971  10.951  16.529   1.492 -0.0999 -0.1415 -0.0087
16768W        W34972   3.523   2.739   4.434 -0.0985 -0.2532 -0.1607
16769W        W34973   1.788   4.474  11.100  0.0661  0.2604  0.1496
16770W        W34974  14.911  13.528   2.946 -0.1345 -0.2123 -0.0097
16771W        W34975  15.316   4.837   4.329 -0.1002 -0.1859 -0.0941
16772W        W34976   5.902  17.629  12.897  0.1582  0.0487 -0.1338
16773W        W34977   2.828  14.185   2.331 -0.3719  0.1685  0.0819
16774W        W34978   8.602   6.517  13.247 -0.1819  0.0254  0.0566
16775W        W34979   3.436   6.657   2.164 -0.0002 -0.0983 -0.2185
16776W        W34980   1.905  14.634   2.194 -0.1483 -0.0222 -0.0515
16777W        W34981  15.633   8.203   1.869 -0.1463 -0.1497  0.3044
16778W        W34982  11.557   2.547   2.456 -0.0557 -0.0549 -0.3383
16779W        W34983  16.825  14.893  11.675 -0.3182 -0.3476  0.1004
16780W        W34984   1.819  13.204   0.973  0.1330  0.1176 -0.0905
16781W        W34985   2.943  10.526  14.803  0.3213 -0.0663 -0.1569
16782W        W34986   7.239   6.927  14.229  0.2569 -0.0610 -0.0632
16783W        W34987   0.309   1.535  12.744  0.0425 -0.1851 -0.0809
16784W        W34988   3.201   2.923  10.177  0.1421  0.3492 -0.3371
16785W        W34989  16.768   8.090  11.583  0.2725 -0.2468  0.0918
16786W        W34990  12.190   8.295  11.306  0.2698  0.3513 -0.4512
16787W        W34991   3.259   3.849   0.832 -0.0462  0.0029  0.0607
16788W        W34992   1.469   3.424  12.008  0.2790  0.1289  0.2615
16789W        W34993   1.221  17.786   5.440  0.1060 -0.0022 -0.0072
16790W        W34994   5.724   3.374  12.928  0.1596 -0.1098  0.0784
16791W        W34995  12.110   5.950  11.642 -0.0842  0.0330 -0.0924
16792W        W34996  17.155  18.057  12.919 -0.0333  0.0583  0.1469
16793W        W34997   1.083  12.061  13.164 -0.0594  0.3600  0.0826
16794W        W34998  16.506  14.691  14.730  0.0067  0.1193  0.1035
16795W        W34999   2.908   9.119   2.713 -0.1189  0.2992  0.3135
16796W        W35000  12.238   1.870  11.700 -0.0977  0.1793  0.2764
16797W        W35001  16.052   4.387  13.035 -0.0038 -0.0871  0.0897
16798W        W35002  14.943   0.373   1.544  0.1862 -0.2356 -0.2210
16799W        W35003  10.879  15.620  15.376  0.1376  0.0495  0.2834
16800W        W35004  13.946   6.045   1.884  0.1227  0.1753 -0.2585
16801W        W35005   6.694   2.207  14.778 -0.1411  0.0598 -0.1325
16802W        W35006  10.886  15.271  11.531 -0.2768  0.1416 -0.2647
16803W        W35007  18.244   0.827   1.115  0.2201  0.0090  0.0231
16804W        W35008  14.775   8.490  14.868  0.1080 -0.0965  0.0804
16805W        W35009  12.433   5.435  14.088 -0.4298  0.0497 -0.0976
16806W        W35010  16.851   4.721   0.073  0.2343 -0.0691 -0.1439
16807W        W35011   5.968   5.255  15.560  0.2632 -0.0669  0.0590
16808W        W35012   0.226  16.484  13.436 -0.0937  0.1715  0.1054
16809W        W35013   3.021  12.533   0.350  0.1637  0.2017  0.2631
16810W        W35014   4.692   0.990  11.463  0.3175  0.3076 -0.2217
16811W        W35015   7.451   3.793   5.438 -0.5169  0.0685  0.2223
16812W        W35016  16.643   2.964  14.487  0.2986  0.1570 -0.3199
16813W        W35017   1.226  14.485   3.812 -0.0546 -0.3077 -0.0207
16814W        W35018   1.149   1.523  13.575  0.1285  0.1787 -0.0991
16815W        W35019  16.551   1.698   0.725 -0.1097  0.3753  0.0028
16816W        W35020   6.276  14.290  12.253  0.1856  0.1121  0.1264
16817W        W35021  15.145   6.274  15.342  0.2736 -0.4272 -0.3744
16818W        W35022  16.143  11.847  15.547 -0.4564 -0.1074  0.0202
16819W        W35023   7.218   0.337  10.901  0.0137 -0.1354  0.1609
16820W        W35024   3.471  12.071  13.673 -0.0217  0.2808  0.1003
16821W        W35025   4.503   1.270  13.307 -0.1456  0.2174  0.1303
16822W        W35026   7.057   6.027  15.447 -0.0569 -0.1444 -0.0164
16823W        W35027  16.098   9.241  14.936 -0.1674  0.0069  0.1914
16824W        W35028   3.392  17.457   2.321 -0.2998 -0.0288  0.0943
16825W        W35029  12.633  15.594   2.271  0.0406 -0.0224 -0.1109
16826W        W35030   3.787   9.752   0.993 -0.1048 -0.1581  0.2039
16827W        W35031   0.910  14.518   3.033 -0.1394  0.0874 -0.2118
16828W        W35032   8.812  14.726   3.461 -0.1106  0.4905  0.1525
16829W        W35033  11.247  16.053  14.587  0.4609  0.1481  0.2891
16830W        W35034  12.972   7.547   2.181  0.0852  0.1855 -0.0598
16831W        W35035  18.269  17.863  12.397 -0.0307 -0.1296  0.3612
16832W        W35036   2.714  15.242   2.079  0.3304  0.1749  0.1761
16833W        W35037   2.192  15.305   2.022 -0.1873  0.2234 -0.3766
16834W        W35038  13.537   5.300  12.678  0.0496  0.0315  0.0797
16835W        W35039  17.458  11.554   3.189  0.1329 -0.0551 -0.0246
16836W        W35040  14.806  16.215  13.386 -0.0098 -0.0607  0.1689
16837W        W35041   4.653  14.587   3.086 -0.0426 -0.0823 -0.0755
16838W        W35042   0.762  14.124   3.837  0.2066 -0.2593  0.1147
16839W        W35043  14.217  17.840  12.878  0.1501  0.0894 -0.0666
16840W        W35044   3.327  15.933   1.456  0.0848  0.2758  0.0083
16841W        W35045  14.239  14.293  15.116  0.0833  0.2148  0.0849
16842W        W35046   9.916  10.429   0.134 -0.0523  0.0286  0.1565
16843W        W35047  10.459  10.139  15.537  0.1905  0.0396  0.1434
16844W        W35048  13.763   8.203   5.790 -0.1070  0.2977  0.1109
16845W        W35049   3.681  13.456   1.218  0.0360 -0.0705 -0.0191
16846W        W35050   3.042   7.884   2.390  0.0119  0.2044  0.1688
16847W        W35051  13.431   6.256  11.868 -0.2188 -0.0933 -0.2643
16848W        W35052   1.032  14.549  14.626 -0.0909  0.1551  0.1516
16849W        W35053  17.503   1.056  11.318 -0.2284  0.2119  0.0508
16850W        W35054   8.739   4.676   2.324 -0.1616 -0.0473 -0.1264
16851W        W35055   9.551   4.101  15.002  0.1420 -0.1492  0.0324
16852W        W35056   5.682  14.681  12.589 -0.0444 -0.0014 -0.2370
16853W        W35057   3.120  10.804  13.910  0.0755  0.0342  0.4291
16854W        W35058   4.198   4.380   2.745  0.0917  0.0001  0.0074
16855W        W35059  15.093  18.303  11.832  0.2000 -0.1425 -0.0361
16856W        W35060   2.074   3.761   3.663 -0.0730  0.0957  0.2869
16857W        W35061   5.175   7.386   1.741  0.0267 -0.0440 -0.0335
16858W        W35062   2.616  15.633   0.527  0.1227  0.0156  0.1219
16859W        W35063  13.585  16.268   0.621  0.2579 -0.4176 -0.2050
16860W        W35064   0.456  17.777   1.099  0.0779 -0.1901  0.0115
16861W        W35065  10.903   2.624  14.975 -0.2268  0.2226 -0.0891
16862W        W35066   8.348   7.554   4.433  0.4140 -0.0740  0.3396
16863W        W35067   5.314  17.236  12.548  0.2925  0.0196  0.1546
16864W        W35068   2.232  10.375  15.413  0.0377  0.4161  0.2401
16865W        W35069   5.935   3.817   3.549 -0.1922  0.2404  0.2530
16866W        W35070  16.012   7.237   5.099 -0.3226 -0.1413  0.2023
16867W        W35071   9.940   7.731   3.584 -0.3942  0.0328 -0.1199
16868W        W35072   5.771   8.769   0.833 -0.1851  0.1470  0.1362
16869W        W35073   6.318  11.536   1.913  0.0698 -0.1951 -0.2549
16870W        W35074  10.232   0.013  13.148 -0.3318  0.0565  0.0593
16871W        W35075  15.555  16.835  11.346  0.0746  0.2727 -0.0162
16872W        W35076   8.522   9.258   5.679 -0.0949  0.3820  0.2146
16873W        W35077   0.650   3.347   3.901 -0.4236  0.2533  0.0972
16874W        W35078  11.912   5.980  11.191 -0.1181  0.1261 -0.0892
16875W        W35079  16.022   0.819  15.220  0.2432  0.0730  0.2053
16876W        W35080   5.533  10.005   1.478 -0.1357 -0.1327 -0.0398
16877W        W35081  10.929   3.879   0.188 -0.2600  0.1420  0.1212
16878W        W35082   0.186   7.574  14.515  0.0679 -0.2339  0.3509
16879W        W35083   9.431   1.327   0.019 -0.1783  0.1420 -0.1627
16880W        W35084   3.742   1.403  12.587 -0.0112 -0.0830 -0.0265
16881W        W35085   7.966   3.885  15.706 -0.0563  0.2142 -0.2456
16882W        W35086  11.845   2.877   2.768  0.1178 -0.0107  0.0164
16883W        W35087   1.590   6.103  12.181 -0.0688  0.1724 -0.4047
16884W        W35088  11.478  17.150  13.497 -0.1379 -0.0209  0.2893
16885W        W35089  16.335   3.672   1.335  0.5207 -0.3126  0.0569
16886W        W35090  13.748   4.483  15.443  0.0634 -0.0679 -0.0824
16887W        W35091   6.751  15.517  14.038 -0.2156  0.3850  0.0804
16888W        W35092   9.359  13.383   4.685  0.1274 -0.1754 -0.0768
16889W        W35093  17.824   0.742  13.816  0.0161 -0.1806  0.0400
16890W        W35094  17.098   8.429   4.428  0.6125 -0.0542  0.2486
16891W        W35095   2.056  12.576   3.081  0.3059  0.1096 -0.3480
16892W        W35096  10.555   1.775  14.712  0.0118 -0.0132 -0.0031
16893W        W35097  13.641   8.714   4.264 -0.0640  0.3048 -0.2398
16894W        W35098  11.685  16.946   0.827 -0.1712  0.0104  0.2031
16895W        W35099  11.718   1.089   1.095 -0.0424 -0.1017 -0.0139
16896W        W35100  15.259   2.960   1.313  0.0134  0.2579 -0.1403
16897W        W35101  12.149  14.712  12.710 -0.1321 -0.0651 -0.0203
16898W        W35102  11.621  10.661   3.164  0.1973  0.0852 -0.1428
16899W        W35103   4.814   4.331   1.757 -0.1503 -0.0981 -0.0959
16900W        W35104  10.320  17.449   0.643 -0.2011  0.0463  0.0903
16901W        W35105   4.255  11.608  14.447 -0.2055  0.1214  0.2528
16902W        W35106  15.561  12.445  15.119 -0.2003 -0.0305 -0.0306
16903W        W35107  11.902  15.513   1.702  0.2582  0.3317 -0.1304
16904W        W35108   8.230   7.067  12.414 -0.0783 -0.0794 -0.0186
16905W        W35109   0.722   4.964   2.114 -0.1372 -0.0305  0.1540
16906W        W35110  15.146  14.709  15.513 -0.0526  0.0517 -0.0254
16907W        W35111   0.741  12.637  15.492  0.1097  0.2354 -0.1539
16908W        W35112  13.270  11.598   0.872 -0.2008  0.1442  0.3045
16909W        W35113  13.822  10.046  15.566  0.1850 -0.1488 -0.2166
16910W        W35114  12.283   1.350   1.953  0.1640 -0.1040  0.3029
16911W        W35115  17.945   9.017  15.221 -0.1924 -0.0327 -0.1224
16912W        W35116   6.252  12.782   0.778  0.1466 -0.1961 -0.3160
16913W        W35117   4.872  10.231   3.498 -0.1459  0.1255 -0.3347
16914W        W35118   7.555  13.256   4.251  0.0868 -0.2029  0.1269
16915W        W35119   1.544   8.539   1.254 -0.2929  0.0264  0.0361
16916W        W35120  15.581  14.179   3.009  0.0910 -0.3816  0.3922
16917W        W35121  16.294  17.027  14.671 -0.0002 -0.1097 -0.4089
16918W        W35122  13.220   5.519  12.989  0.1201 -0.0723 -0.0212
16919W        W35123  12.226   9.914   0.371  0.1196  0.1622 -0.2288
16920W        W35124   3.787  16.787  15.351  0.0409  0.2394  0.0517
16921W        W35125  12.046   6.720   0.854  0.2534 -0.2778 -0.0280
16922W        W35126   9.199  14.487  13.750 -0.0013  0.0387  0.0181
16923W        W35127   3.621   4.643  13.803  0.0125 -0.0039 -0.1143
16924W        W35128   7.309   5.847  12.997 -0.2049 -0.0509 -0.0271
16925W        W35129   6.745   6.028  12.800 -0.0695 -0.1926  0.1030
16926W        W35130   0.444  13.091  11.074  0.2894 -0.2004 -0.0232
16927W        W35131   7.388   5.842   0.087 -0.1972  0.2248 -0.0520
16928W        W35132   5.861  14.916   2.892 -0.2284  0.0512 -0.2261
16929W        W35133   1.636   6.255   4.282 -0.0124  0.0910  0.0268
16930W        W35134   6.677   8.508   3.111 -0.2244  0.1203  0.0882
16931W        W35135   0.583   5.303   3.903 -0.1246  0.1951  0.2390
16932W        W35136  14.669   4.363  13.310 -0.0078 -0.1691 -0.2394
16933W        W35137  12.900  18.277  15.079 -0.1152 -0.1148 -0.3824
16934W        W35138  14.590   5.441  12.567 -0.1686  0.0336 -0.2277
16935W        W35139   2.416   7.552  15.627 -0.3418 -0.1699 -0.0344
16936W        W35140   1.298   8.708  11.794 -0.3492  0.0349 -0.0245
16937W        W35141  14.161   0.601   2.951 -0.1405 -0.0035 -0.2485
16938W        W35142  17.538  12.441   0.092  0.0658 -0.0342  0.2099
16939W        W35143   9.530  10.690   5.312  0.2232 -0.1417 -0.1331
16940W        W35144   8.855  10.720  14.154 -0.0794 -0.1667  0.0038
16941W        W35145   6.940  11.284   5.821 -0.2484  0.2011 -0.4349
16942W        W35146   0.375  14.902  11.564  0.1248 -0.2532 -0.1305
16943W        W35147   4.960  16.790   3.777  0.0898 -0.0153 -0.0618
16944W        W35148  13.030   2.123  11.813  0.1269  0.1095  0.1093
16945W        W35149  16.724  11.347  14.424 -0.1397  0.1500 -0.1665
16946W        W35150  11.166  16.534   1.040  0.2371  0.1942  0.3745
16947W        W35151   4.055  10.876   0.685  0.1456 -0.0277  0.0296
16948W        W35152  14.006  13.844  15.602 -0.1179 -0.0064 -0.1583
16949W        W35153   5.861   2.730  14.514 -0.1528 -0.1845 -0.0295
16950W        W35154   5.709  12.699  15.656 -0.1440 -0.4073 -0.1252
16951W        W35155   7.058   8.114  13.833  0.1495 -0.0176  0.1301
16952W        W35156   5.727  10.631  13.088  0.2135  0.0311  0.1619
16953W        W35157   2.234   1.910  13.743 -0.0691  0.0376 -0.4005
16954W        W35158  18.054  15.901  12.344 -0.0938  0.0497 -0.2008
16955W        W35159   8.782  17.241  13.897 -0.1779 -0.0358 -0.1482
16956W        W35160   5.294   9.060  13.966  0.1326 -0.0340 -0.0955
16957W        W35161  10.996   1.235   0.660  0.1665  0.0002 -0.1579
16958W        W35162   6.684   4.928   3.952 -0.1120  0.4153 -0.2960
16959W        W35163  14.236   7.015   0.338 -0.0532  0.1872  0.1630
16960W        W35164  16.181  12.349  11.929  0.0482  0.0213 -0.1975
16961W        W35165   8.246   7.276   3.945  0.2912  0.1161 -0.1416
16962W        W35166  10.788   4.449  11.186 -0.2273  0.0832  0.1164
16963W        W35167  12.149  10.668   0.479 -0.0674  0.2079 -0.0600
16964W        W35168   1.802   7.201   2.643  0.1150 -0.1533 -0.1680
16965W        W35169   2.686   8.258   3.080 -0.1259 -0.0298  0.1608
16966W        W35170  15.016   9.429  13.193 -0.1671  0.2679 -0.0283
16967W        W35171   6.659  11.449   3.321  0.2087  0.1360 -0.1700
16968W        W35172   4.190   9.084   4.607 -0.0211  0.1296  0.0808
16969W        W35173   7.393   6.106   3.694 -0.1861  0.0951  0.0849
16970W        W35174  15.778   7.356   3.262 -0.0420 -0.1790  0.0455
16971W        W35175   3.814  17.552   0.379  0.2229  0.0083  0.3449
16972W        W35176  16.880   0.410  11.004  0.2508  0.0914  0.0640
16973W        W35177  11.465  13.544  12.221 -0.0328  0.0679 -0.2255
16974W        W35178  11.497   1.087   0.669  0.1662 -0.0111  0.2871
16975W        W35179   4.815  17.406  13.280  0.3281 -0.2791  0.1051
16976W        W35180  13.959  17.723   9.979  0.2187 -0.1705  0.0230
16977W        W35181  10.384  16.735   3.076  0.3132 -0.0861 -0.2108
16978W        W35182   5.126  11.777  11.970  0.0760  0.1364 -0.0775
16979W        W35183   2.168  14.721  10.259 -0.0987 -0.1428  0.0457
16980W        W35184  12.886  11.870  11.466  0.1094 -0.1332  0.1480
16981W        W35185  11.352  11.261  12.162  0.4556 -0.0391  0.0449
16982W        W35186  13.813  11.899  15.062  0.2494  0.2211 -0.0012
16983W        W35187  13.451  13.131  15.486 -0.0543  0.2019  0.0373
16984W        W35188   6.548  14.998  14.351  0.1723  0.3321  0.0642
16985W        W35189   2.661   0.074  14.051  0.3453  0.1508  0.2743
16986W        W35190   4.175  10.508   3.396 -0.1576  0.0202 -0.1181
16987W        W35191  12.993  12.696   0.153  0.0485 -0.1742 -0.2760
16988W        W35192   6.488  12.457  10.988  0.0552  0.0650 -0.1436
16989W        W35193  14.337   6.189  10.881 -0.3364  0.2037  0.3099
16990W        W35194  18.237   1.694  12.959  0.0692  0.1154  0.0263
16991W        W35195   6.997   6.134  11.477  0.0758  0.2691  0.0688
16992W        W35196  13.184  13.604  13.980 -0.1004 -0.0714 -0.0632
16993W        W35197  15.365   7.597   4.081  0.1059 -0.1296  0.1610
16994W        W35198  17.635   8.335   0.924  0.1402  0.0029 -0.1252
16995W        W35199   0.369   3.043   1.043  0.0872 -0.1917  0.3150
16996W        W35200  15.950   4.329   1.887  0.1108  0.3731  0.1974
16997W        W35201   9.243   2.598   2.948 -0.0577 -0.1853 -0.2711
16998W        W35202   4.624   3.179   3.706  0.1694 -0.0433  0.1456
16999W        W35203  12.293   6.369   3.179  0.0247  0.1006 -0.1409
17000W        W35204  18.285  11.464  10.150 -0.4288 -0.1027 -0.0300
17001W        W35205  16.619  12.908   3.926 -0.3879 -0.1552 -0.0657
17002W        W35206   7.908  11.457  14.592 -0.1488  0.2671 -0.0602
17003W        W35207   0.301  12.210  14.258  0.0276  0.1395 -0.4811
17004W        W35208  11.758  15.350  14.235  0.2209  0.2235 -0.0130
17005W        W35209  14.699   5.211   0.266 -0.1836  0.0748 -0.1023
17006W        W35210  10.459  18.063   4.824  0.1013 -0.0440  0.4451
17007W        W35211  17.021   7.529   1.526 -0.0434 -0.0904  0.3089
17008W        W35212   0.486   9.400  11.138 -0.1336  0.4237  0.2869
17009W        W35213   1.848  14.080  12.882 -0.0784  0.1545  0.0499
17010W        W35214   9.109  12.869  13.263 -0.0874  0.1928 -0.0530
17011W        W35215   5.761  10.208   2.155  0.0314  0.0164 -0.1097
17012W        W35216   0.946   3.477   1.697 -0.2542 -0.0471  0.2177
17013W        W35217   0.586  16.104   0.979  0.2304 -0.0936  0.0870
17014W        W35218   8.798  17.248   3.418 -0.0990  0.1918  0.0604
17015W        W35219   6.449   1.483  15.382 -0.1489 -0.0426  0.0023
17016W        W35220  13.646  10.472   1.440  0.0300  0.0135  0.0996
17017W        W35221   4.163   8.166  13.344 -0.0000 -0.0022 -0.3221
17018W        W35222  12.097   6.714  13.957 -0.0824  0.0577 -0.2573
17019W        W35223  12.015  15.364   3.311 -0.1152 -0.0226  0.1251
17020W        W35224  17.434   1.516   4.860  0.2385  0.2958 -0.0536
17021W        W35225  15.134   8.120  11.288  0.1477  0.3373  0.1990
17022W        W35226  14.540   3.137  13.168  0.2842 -0.0462 -0.1029
17023W        W35227   2.111   2.832   0.911  0.0045 -0.2273  0.2183
17024W        W35228   9.177   3.472  11.056 -0.1771 -0.3541  0.0011
17025W        W35229   9.788   6.855   1.561 -0.4221 -0.5426 -0.0115
17026W        W35230  13.574   0.572  12.900 -0.2882 -0.1158  0.0083
17027W        W35231   9.143   6.330   2.046 -0.1258 -0.0934 -0.2391
17028W        W35232   8.091   2.263  12.581  0.1580 -0.1865 -0.0554
17029W        W35233  12.466  14.466  13.000 -0.0512  0.1858 -0.0788
17030W        W35234   9.249  16.881  14.215 -0.2405  0.4012 -0.0801
17031W        W35235   7.539   5.997   4.954 -0.1457 -0.3054 -0.0520
17032W        W35236   4.859   5.239   9.950  0.0540 -0.1343  0.2698
17033W        W35237  12.448   4.877   4.458 -0.0375 -0.0109  0.0106
17034W        W35238   9.189   8.672   3.485  0.3731 -0.0312 -0.1131
17035W        W35239   5.646   0.175   3.912 -0.1471  0.1017  0.3118
17036W        W35240  12.315   0.286  11.387  0.2536 -0.3006 -0.0333
17037W        W35241   7.553  12.926  15.448  0.0184  0.1502  0.0264
17038W        W35242   3.095  18.271   2.673  0.1554 -0.2574 -0.0434
17039W        W35243  15.400  15.229   1.695  0.0810 -0.3167 -0.2311
17040W        W35244   2.290   7.721  14.970  0.1682  0.3103  0.0857
17041W        W35245  12.735   6.049  11.057 -0.1904 -0.1776 -0.3043
17042W        W35246   0.406   2.581   0.760  0.1844  0.1606 -0.0149
17043W        W35247   1.547  13.255  13.476  0.4452 -0.0596 -0.1355
17044W        W35248   6.174   6.520  13.167  0.1432  0.1187  0.1497
17045W        W35249   6.052   5.487   3.989 -0.0331  0.1190 -0.0569
17046W        W35250  10.594  17.391  14.498 -0.1531 -0.0220  0.0453
17047W        W35251   5.695   8.265   0.831 -0.0370  0.0499 -0.2329
17048W        W35252   5.603   4.878  14.668 -0.1450 -0.3680  0.0109
17049W        W35253   8.451   0.974  12.294 -0.0247  0.3027 -0.2116
17050W        W35254  15.818   7.500  12.255  0.1270 -0.2901 -0.0824
17051W        W35255  14.518   0.673   1.766  0.0924 -0.2331 -0.0533
17052W        W35256  12.480   6.549   1.766 -0.0621  0.0880 -0.1046
17053W        W35257   2.564  11.946   2.678 -0.2554 -0.1205 -0.1115
17054W        W35258   7.143  14.531   1.213  0.2331  0.2452 -0.0429
17055W        W35259  13.792  14.034   4.369 -0.1135 -0.0883 -0.2931
17056W        W35260  13.885   8.209  12.208  0.1052  0.2841 -0.0052
17057W        W35261   4.538  10.718  15.085  0.4195  0.0625  0.0252
17058W        W35262  15.732  15.421   1.051 -0.1725 -0.1700 -0.2789
17059W        W35263  10.166   1.216  15.068 -0.0773  0.2669  0.1252
17060W        W35264   2.052  12.064   2.820 -0.0883 -0.0585 -0.1054
17061W        W35265  12.419   8.634  10.829 -0.1350 -0.0334 -0.0926
17062W        W35266   2.050  12.370  12.219 -0.2078  0.3285 -0.0133
17063W        W35267  12.341   9.296  13.098 -0.0916 -0.0578  0.0218
17064W        W35268  10.505  11.037   1.934  0.2849  0.1612  0.2111
17065W        W35269   4.564  12.102   3.577 -0.0872  0.0195 -0.1000
17066W        W35270   9.780   8.269   0.227  0.1978  0.0122  0.1971
17067W        W35271   2.489   8.594  14.506 -0.0793 -0.1694 -0.0316
17068W        W35272   4.404   3.513  13.108  0.0044  0.1048  0.3363
17069W        W35273   4.705  14.459  15.721 -0.1567  0.0348 -0.4542
17070W        W35274  12.439   6.762  13.318 -0.0656  0.0870 -0.0343
17071W        W35275  10.105   7.700   4.728 -0.0719 -0.1370 -0.2323
17072W        W35276  10.458  12.597  11.439  0.3772  0.0809  0.0057
17073W        W35277  16.614  17.367  14.390 -0.0947 -0.0181  0.1776
17074W        W35278  14.876   9.880  10.903  0.0785  0.1415  0.0649
17075W        W35279  18.265   7.990   1.061  0.0747 -0.0011 -0.0225
17076W        W35280   4.148   8.027  12.888 -0.1035 -0.3244  0.1661
17077W        W35281   4.313  12.349  13.914  0.0647 -0.1349 -0.0861
17078W        W35282   2.531   6.604  13.232 -0.1632 -0.0430  0.0017
17079W        W35283  17.917   7.462   3.228  0.0389 -0.1331  0.0225
17080W        W35284   7.391   1.446   1.475 -0.1418  0.0296 -0.1429
17081W        W35285   6.275  10.810   2.535  0.0081  0.1532 -0.0990
17082W        W35286   4.481   5.940  11.661  0.0649  0.0177  0.0955
17083W        W35287   8.608  14.324  12.193  0.1969 -0.1551 -0.1008
17084W        W35288   8.174   0.198   3.901  0.2257 -0.0271  0.1436
17085W        W35289   9.472   2.484   0.963  0.0080  0.3324 -0.2492
17086W        W35290  17.862  14.633   4.863  0.2712  0.3919  0.1922
17087W        W35291   6.029   3.566   2.539  0.1751  0.2393  0.3030
17088W        W35292  10.001   4.148   1.661 -0.2479  0.0159  0.0139
17089W        W35293  16.201  12.814  13.683  0.0698 -0.2832 -0.3940
17090W        W35294   1.411  15.241  13.414 -0.1693 -0.0659  0.0572
17091W        W35295  10.516  13.730  12.691 -0.0106 -0.0918  0.4272
17092W        W35296  14.979   5.614   2.177 -0.0261 -0.1460  0.3242
17093W        W35297   8.147  18.372  13.204 -0.4215  0.3168 -0.3657
17094W        W35298  11.057   5.258  12.515 -0.2569  0.1495  0.0626
17095W        W35299   9.044  11.843   2.342 -0.1477  0.0312 -0.2411
17096W        W35300  11.561  13.204  10.931 -0.1429 -0.2153  0.1496
17097W        W35301   0.100   7.682  13.036 -0.2055 -0.1176  0.2084
17098W        W35302  11.411   1.751  11.360 -0.0528  0.0104  0.2151
17099W        W35303   3.155  17.743  15.549  0.2201  0.0337 -0.2807
17100W        W35304  17.771  11.257   0.361  0.0689 -0.2304 -0.3730
17101W        W35305   0.014   7.273  13.663  0.0109  0.0076  0.3099
17102W        W35306   3.892  13.832   4.310  0.3212 -0.1277 -0.3364
17103W        W35307  13.105   8.365   2.835 -0.3320 -0.1933 -0.0049
17104W        W35308   5.397   1.730  15.331 -0.1237  0.0172 -0.0850
17105W        W35309   1.630   4.251  14.875  0.0050 -0.2355 -0.0530
17106W        W35310   9.383   6.901  11.762  0.3463  0.2399 -0.1204
17107W        W35311  17.040  13.500   0.879 -0.0728 -0.1121 -0.1473
17108W        W35312   5.628   2.868  13.493  0.1409  0.0277 -0.0166
17109W        W35313   6.304  14.120   0.681 -0.0291  0.1107 -0.1094
17110W        W35314   1.376   6.151   1.087  0.0730 -0.2420  0.1683
17111W        W35315   5.037  13.404   1.067  0.1116 -0.0107  0.1630
17112W        W35316  13.582  14.057  11.520  0.2174  0.1352 -0.0053
17113W        W35317   7.577  11.565  13.262 -0.0820  0.0274 -0.0474
17114W        W35318   6.297   3.856   3.844 -0.2651 -0.0430  0.0314
17115W        W35319  12.338   2.260  12.478  0.0988 -0.0144 -0.1963
17116W        W35320  15.120  15.215  11.424 -0.1774  0.2201 -0.0583
17117W        W35321  14.562  17.469  12.532 -0.0133  0.1239 -0.0127
17118W        W35322  16.722  14.041  15.548 -0.1070  0.1500 -0.2217
17119W        W35323  11.420  17.360  15.618  0.2545  0.2734  0.2261
17120W        W35324  17.653   9.136   2.595 -0.1155  0.0038 -0.0198
17121W        W35325  15.597  13.100   0.590  0.0304 -0.1784  0.2086
17122W        W35326  13.349   4.257  12.895  0.2596  0.2669 -0.5775
17123W        W35327   7.252   4.300  15.084  0.0937 -0.0826  0.0158
17124W        W35328   5.598  16.603  12.294  0.1196  0.2003 -0.2175
17125W        W35329   6.282   7.100   3.761 -0.1041 -0.1285 -0.2122
17126W        W35330  16.453  17.869   4.449 -0.1154  0.1533  0.0052
17127W        W35331   2.656   0.539  12.818 -0.2240 -0.0873  0.1388
17128W        W35332   2.546   9.620  12.357  0.1137 -0.0734  0.0693
17129W        W35333  12.939  10.068   2.460  0.0464 -0.1711 -0.2041
17130W        W35334   8.821  16.046  12.531  0.3468 -0.1286 -0.0986
17131W        W35335   2.035   2.090  13.323  0.0774  0.0993 -0.0191
17132W        W35336  10.260   1.141   1.976  0.1632 -0.0379 -0.1372
17133W        W35337  11.980   6.371  14.981  0.0937 -0.0252 -0.0286
17134W        W35338  15.934   2.854   0.835 -0.0967 -0.0487 -0.1664
17135W        W35339   8.335  10.750  12.876 -0.0988 -0.1825 -0.2037
17136W        W35340  15.808  13.015  13.442  0.0365 -0.0332  0.2006
17137W        W35341   8.364  18.210  13.728  0.4307  0.1028  0.1243
17138W        W35342   2.574  11.795  13.983  0.0830 -0.1625  0.1639
17139W        W35343  11.366  12.466   3.882  0.2863 -0.2219  0.0348
17140W        W35344  15.538   0.069  11.046  0.1185  0.0019 -0.0175
17141W        W35345   5.405  14.833  13.038 -0.1836 -0.2631  0.1363
17142W        W35346  14.445  11.985  12.077 -0.1132  0.0073  0.0358
17143W        W35347   3.038   7.476   1.047 -0.0606  0.2144 -0.2098
17144W        W35348   2.770  12.355  15.540 -0.0328 -0.0139  0.1637
17145W        W35349  16.210  11.936  11.451 -0.1004  0.0350 -0.3435
17146W        W35350   7.174   0.445  14.868  0.0401 -0.1251 -0.3006
17147W        W35351   6.816   6.592  11.742  0.0094 -0.0785 -0.0062
17148W        W35352   8.783   1.316  12.522  0.1531  0.1660  0.0783
17149W        W35353   1.386  17.933  12.429 -0.0115  0.0386  0.0624
17150W        W35354   7.023   6.693   1.539  0.0619  0.0274  0.1226
17151W        W35355   7.503  10.279  13.920 -0.1382 -0.3125 -0.0079
17152W        W35356   0.923  11.534   1.921 -0.1247  0.0128  0.2681
17153W        W35357  11.426   3.394  14.495  0.1704 -0.0570 -0.1338
17154W        W35358   3.427   6.134   2.140 -0.2121 -0.0593 -0.2765
17155W        W35359  10.793   0.247   2.478 -0.0223  0.0981  0.1567
17156W        W35360   5.149   3.849  11.823 -0.1123  0.0739 -0.1909
17157W        W35361  15.359  14.873  14.195 -0.1626 -0.0469  0.0113
17158W        W35362   2.887  14.614  12.167 -0.1892 -0.0771  0.0408
17159W        W35363   0.612   8.909   3.072 -0.1671 -0.0853  0.0215
17160W        W35364   3.999  15.280  14.845 -0.2436  0.0926  0.3429
17161W        W35365  17.404  12.733   4.431  0.1327 -0.0551  0.0324
17162W        W35366   0.039   2.524   1.944  0.1888  0.1389  0.0435
17163W        W35367   9.141  16.724   0.851  0.3664  0.1879  0.0265
17164W        W35368   9.880  18.147   1.012  0.3232  0.0911 -0.0673
17165W        W35369  14.551   9.689  13.475  0.2022 -0.3920 -0.0348
17166W        W35370   0.036   3.134   0.664 -0.1279 -0.0863  0.1419
17167W        W35371  10.816   1.703  11.820  0.2064 -0.1471 -0.0288
17168W        W35372  16.838   9.768  11.931 -0.2257  0.2573 -0.1133
17169W        W35373   0.660   6.245  12.050 -0.0345  0.1286  0.0783
17170W        W35374   1.247  15.186  11.943  0.1967  0.3255 -0.1024
17171W        W35375   4.272  15.752   1.312  0.0768  0.1802  0.0040
17172W        W35376  16.880   1.908  11.200 -0.2455 -0.1378 -0.3512
17173W        W35377  17.614   3.486   0.433 -0.1742  0.2225 -0.0507
17174W        W35378  18.126   8.617   2.303 -0.1548 -0.2041  0.0714
17175W        W35379   3.167   5.900   4.377  0.1965 -0.0084 -0.1379
17176W        W35380  15.080  13.487   4.654 -0.0811  0.2592 -0.2287
17177W        W35381  14.994  12.240   4.565  0.0602  0.0795  0.1438
17178W        W35382   5.035  16.789  14.051  0.0261  0.1688 -0.1361
17179W        W35383   2.395  16.458  14.655  0.0297 -0.1030  0.0956
17180W        W35384   2.702  16.699  11.473 -0.1848  0.1343  0.0689
17181W        W35385   8.870  17.335   2.812 -0.0154 -0.0117  0.1646
17182W        W35386   1.055  10.379   0.772  0.0200 -0.0742 -0.2025
17183W        W35387  11.338   7.985  14.788  0.0634  0.1882 -0.3684
17184W        W35388   3.908  12.191  15.140 -0.2227 -0.1989  0.0059
17185W        W35389  14.145  17.362   4.201  0.0146 -0.0934  0.0096
17186W        W35390  18.334   1.984  14.792 -0.1562 -0.1393  0.0722
17187W        W35391  15.707   0.347   3.356 -0.0405 -0.1524  0.0045
17188W        W35392   9.559   3.174   0.193 -0.0139 -0.1218 -0.1291
17189W        W35393  14.828   7.534  13.351 -0.6018  0.0051  0.1537
17190W        W35394   6.046   9.045  14.076  0.0206 -0.1152 -0.1453
17191W        W35395   1.499  15.481  14.142 -0.0753  0.0656  0.2088
17192W        W35396   3.917   1.635  11.246 -0.1351  0.1910 -0.0532
17193W        W35397  10.906   1.735  15.095  0.0195 -0.0677  0.0786
17194W        W35398   4.859  10.790   2.589  0.0193  0.2448 -0.2260
17195W        W35399  12.884   5.024   0.522 -0.1958  0.2676 -0.0030
17196W        W35400  14.678  14.265  13.506 -0.1611 -0.3616 -0.1522
17197W        W35401  12.690  13.450  13.815  0.1004 -0.0530  0.2412
17198W        W35402  14.064   5.568   0.079  0.1155  0.0844  0.1921
17199W        W35403   4.834   1.464   5.010 -0.1096  0.1879 -0.0323
17200W        W35404  16.247  10.644  11.286  0.0162 -0.0779 -0.0894
17201W        W35405  14.096   9.800   3.788  0.2125 -0.1899  0.4261
17202W        W35406  10.474  12.106  11.427 -0.2323  0.2673 -0.3301
17203W        W35407  17.865  17.229  14.231  0.1420  0.2437 -0.0983
17204W        W35408  14.755   1.373  11.792 -0.0962  0.0214  0.0073
17205W        W35409  16.171   3.306  12.317  0.5898  0.2280  0.1932
17206W        W35410  11.533   5.019   2.490  0.0036  0.1135  0.0441
17207W        W35411  13.853  14.560   5.597  0.3074  0.1436 -0.1117
17208W        W35412   6.016   9.211   2.510  0.2575 -0.0581 -0.0884
17209W        W35413   0.185  14.770   3.547 -0.0805  0.1406  0.2502
17210W        W35414  17.326   7.821   5.069  0.1494 -0.0057  0.1392
17211W        W35415  17.341  14.616  14.252  0.2168 -0.0620 -0.2794
17212W        W35416  12.687  15.143   2.115  0.3373  0.1938 -0.1910
17213W        W35417   0.532  15.764   3.847 -0.0353 -0.1407 -0.1995
17214W        W35418   9.383  17.304  15.293  0.1558 -0.2248  0.2373
17215W        W35419  16.833  15.200   4.191 -0.0072 -0.1175 -0.1973
17216W        W35420  16.315  12.627   0.488  0.2811  0.1427 -0.1053
17217W        W35421   1.068   0.539   0.592  0.0520  0.2189  0.0858
17218W        W35422   3.491  16.742   0.373 -0.0670  0.0455 -0.2589
17219W        W35423   1.110  15.244   2.470 -0.0615 -0.1211  0.0307
17220W        W35424   5.525  14.462  10.516  0.0457 -0.1867  0.0619
17221W        W35425   1.317   8.091  12.350  0.3460 -0.1688  0.0226
17222W        W35426  10.778   7.965   3.220 -0.3344 -0.0287  0.1822
17223W        W35427  15.935   9.927  11.124  0.0709  0.0623 -0.1998
17224W        W35428   2.839   1.076  13.718 -0.0374 -0.0227  0.1924
17225W        W35429  16.861   3.066   4.288  0.0395  0.1533  0.1062
17226W        W35430  13.283   9.551  11.787  0.0901 -0.0548 -0.0540
17227W        W35431  17.860  13.047   3.680 -0.0846 -0.0438 -0.0619
17228W        W35432   2.393   6.958  13.550  0.2788  0.1396  0.1606
17229W        W35433   7.556  16.399   4.615  0.3462 -0.0866 -0.0542
17230W        W35434  17.748  11.675   4.171 -0.0617  0.2212 -0.0633
17231W        W35435  14.434   4.370   2.826 -0.1327 -0.2095 -0.2301
17232W        W35436  13.286  18.217   0.611  0.2388  0.0297 -0.1239
17233W        W35437   9.321   8.444  13.932  0.0213  0.0220 -0.3677
17234W        W35438   6.865   8.580  13.727 -0.0957 -0.0023 -0.0405
17235W        W35439   4.567  12.786   4.036 -0.0025  0.0160  0.0584
17236W        W35440  12.109   8.689   3.644  0.1171  0.1044  0.4625
17237W        W35441  10.188   5.640  12.667 -0.0614  0.0099  0.0126
17238W        W35442   8.528   9.728  13.291 -0.0411  0.0962 -0.1052
17239W        W35443   2.850   9.778   0.910 -0.3832  0.2140 -0.1753
17240W        W35444  17.205   4.818   4.397 -0.1677 -0.3597 -0.0866
17241W        W35445   1.341  16.279   2.355  0.3761 -0.1931  0.0202
17242W        W35446   5.662  14.029   0.313  0.0758 -0.1374 -0.2343
17243W        W35447   2.917   2.085   1.496  0.0596  0.1866 -0.1450
17244W        W35448   4.219   9.329   5.278  0.0433 -0.0919  0.1530
17245W        W35449   0.791  17.022  11.755  0.0844 -0.0740 -0.1036
17246W        W35450   1.415  11.788   3.310  0.2830  0.0615  0.0417
17247W        W35451   7.921   1.014   4.785  0.0414 -0.0692  0.0551
17248W        W35452  12.674  13.382   3.287 -0.2754 -0.0657  0.3300
17249W        W35453   4.111  11.615  11.587 -0.3409  0.3332  0.0257
17250W        W35454   4.744   0.666   4.113  0.1530  0.2972  0.0057
17251W        W35455  11.608  12.590   0.923  0.1562  0.2133  0.1509
17252W        W35456   9.376  13.292   4.117  0.0143  0.3813  0.0206
17253W        W35457  11.585   5.971  15.007 -0.4068 -0.0274 -0.0130
17254W        W35458   1.402   7.854   5.685 -0.1153 -0.3238  0.1352
17255W        W35459  14.195   5.059   0.960 -0.2313  0.0959 -0.0787
17256W        W35460   2.464   9.589  15.383 -0.1449 -0.1675 -0.2525
17257W        W35461  15.347   9.867  11.335 -0.1549 -0.0128 -0.0219
17258W        W35462   6.240   7.515  13.154 -0.2862 -0.1790 -0.2845
17259W        W35463   7.608   2.297   2.155 -0.3436 -0.0453  0.1907
17260W        W35464  14.705   2.013   3.327 -0.0773  0.0861  0.1903
17261W        W35465  13.564   0.311   4.905 -0.1771  0.1563 -0.0661
17262W        W35466  16.871  11.763  14.257 -0.1921 -0.2860 -0.2080
17263W        W35467  13.485   3.026  14.806 -0.0478 -0.0178  0.1841
17264W        W35468  15.744   6.360  11.648  0.0429  0.1488  0.1845
17265W        W35469   9.340  14.077   2.368  0.3868 -0.0581  0.0251
17266W        W35470  18.229  16.106  15.472 -0.2831  0.2772 -0.0188
17267W        W35471  15.703  14.039   1.041  0.1590 -0.2829 -0.1426
17268W        W35472   2.183  11.452   3.970 -0.0273 -0.1039  0.2100
17269W        W35473   1.750   8.134   1.073 -0.0283  0.3307  0.2038
17270W        W35474   1.811  16.999  13.940  0.1011  0.1776  0.2459
17271W        W35475   6.395   6.727   4.809 -0.2114  0.0793  0.1409
17272W        W35476  14.108   5.033  11.876 -0.3684 -0.4131 -0.1353
17273W        W35477  16.711   5.045  12.575 -0.0436 -0.2703 -0.1576
17274W        W35478  10.340  15.528  15.423 -0.0822 -0.3261  0.1526
17275W        W35479  10.728  10.834   3.127  0.1121  0.3796  0.2890
17276W        W35480   9.741   8.296   1.592 -0.1818  0.0392 -0.0211
17277W        W35481  14.114  13.973  14.581  0.1624  0.0690 -0.0633
17278W        W35482   4.871   2.120   3.742 -0.1514 -0.0564  0.0275
17279W        W35483  14.957  18.012   2.137  0.1501 -0.2410  0.2040
17280W        W35484  18.262  16.857  12.456  0.2492 -0.3552  0.0972
17281W        W35485  13.658  13.731   4.793  0.3476 -0.0024  0.0065
17282W        W35486   1.158  18.269   2.752  0.3443 -0.2383 -0.0412
17283W        W35487   4.263   3.609  10.808 -0.0837  0.0641 -0.0247
17284W        W35488  17.063   1.327  15.698 -0.0513  0.2282  0.1675
17285W        W35489   0.436   5.001  13.274  0.0285  0.3399 -0.1284
17286W        W35490   8.685   2.069   3.380 -0.1357  0.2614  0.0278
17287W        W35491  17.071   1.065   3.169  0.1042  0.1730 -0.0929
17288W        W35492  13.993   4.444   2.699 -0.4049  0.1812  0.1850
17289W        W35493   7.866  13.847  14.478 -0.0066 -0.0965 -0.0352
17290W        W35494  14.524  16.649  12.366 -0.0158 -0.2173 -0.0704
17291W        W35495  14.177  10.701   3.756 -0.2198  0.2050 -0.2242
17292W        W35496   4.139  10.971  15.467  0.1416  0.1027  0.0281
17293W        W35497   4.239   0.681   4.219 -0.1143  0.1259 -0.1725
17294W        W35498  14.268   6.682  15.124  0.0831 -0.0444 -0.1367
17295W        W35499   6.156  12.617   1.213 -0.0849  0.2683 -0.0999
17296W        W35500  13.999  14.554  11.437 -0.0183 -0.1556  0.1145
17297W        W35501   8.908   4.488   1.395 -0.1736 -0.0756 -0.0599
17298W        W35502   7.849   3.929   3.105  0.0785 -0.0620  0.1936
17299W        W35503  15.044   8.200  11.785  0.2358 -0.0391 -0.2654
17300W        W35504  11.906   8.873   1.880 -0.3510 -0.2265  0.1548
17301W        W35505  11.172   8.060   1.592 -0.2061 -0.0145 -0.3570
17302W        W35506   4.434  13.589  11.557  0.0286  0.0787  0.1241
17303W        W35507   9.949   8.438   1.106  0.0517 -0.3146 -0.3032
17304W        W35508   9.393   2.520  14.035  0.1886  0.2424 -0.0704
17305W        W35509  16.428  14.952   5.777 -0.3281 -0.0886  0.2878
17306W        W35510  15.031   2.404  13.368  0.0686 -0.1412 -0.0667
17307W        W35511   3.968  17.096  12.716  0.1472  0.0395  0.2108
17308W        W35512  11.819  11.734   0.266 -0.0210  0.2974  0.1670
17309W        W35513   6.423   7.985  13.136  0.0354  0.2315  0.3827
17310W        W35514   4.942   6.746  12.691  0.0256  0.0333  0.0848
17311W        W35515  14.239  14.785   0.091  0.2031 -0.0430 -0.0714
17312W        W35516  16.514  15.204   3.236  0.0786  0.7505 -0.0014
17313W        W35517   5.673   1.257  12.428  0.0467 -0.1958  0.0252
17314W        W35518  17.065   4.624  15.012 -0.0752 -0.1868 -0.2593
17315W        W35519   5.776  18.039   3.720  0.0894  0.1375  0.1287
17316W        W35520  13.754   2.938  15.234 -0.0128  0.1032  0.2113
17317W        W35521  10.383   4.790  12.885  0.2759  0.1044 -0.2119
17318W        W35522   2.838  10.660  12.598 -0.0826  0.4825 -0.2223
17319W        W35523  15.786  11.555  12.306 -0.0895  0.1534  0.1723
17320W        W35524  15.646   3.027   3.604  0.1745 -0.0110  0.0541
17321W        W35525  16.599   8.378  12.750 -0.0520 -0.2768  0.0879
17322W        W35526   0.168   6.190   0.799 -0.0831 -0.4301 -0.1952
17323W        W35527   5.689   2.712  11.515  0.0740 -0.2274 -0.1638
17324W        W35528  16.421   8.010   5.052  0.0452 -0.3340 -0.5654
17325W        W35529   6.228  17.994   2.479 -0.3525  0.1544 -0.1861
17326W        W35530   3.634  10.183  12.151  0.0036 -0.1404  0.1171
17327W        W35531  18.024  15.563  14.091 -0.4370  0.1244 -0.4611
17328W        W35532  10.964  10.031  15.533 -0.1050 -0.1473 -0.0046
17329W        W35533  15.341  12.559   4.375 -0.2986  0.0683  0.0555
17330W        W35534  11.357  15.974   3.035 -0.1309  0.0014  0.1311
17331W        W35535  16.635  11.262   3.283  0.0005 -0.2389  0.1308
17332W        W35536  15.567  11.985   3.726 -0.0476  0.1043  0.1030
17333W        W35537  13.359  11.886   2.629 -0.1423 -0.1769 -0.1630
17334W        W35538  15.412   6.987   2.086  0.2386  0.0526 -0.0398
17335W        W35539   9.194   7.097   4.731 -0.0594  0.2149  0.0155
17336W        W35540  15.494  12.142   4.691 -0.2497  0.0169  0.2558
17337W        W35541   6.066  16.190   3.921 -0.0814  0.1646  0.1103
17338W        W35542   8.536   5.797   4.462 -0.1075 -0.2907 -0.1099
17339W        W35543  10.405   5.365   3.018  0.1744 -0.0072 -0.0613
17340W        W35544   0.482   2.943  12.758 -0.3483  0.0321 -0.3267
17341W        W35545   5.931   3.293  12.488 -0.0053 -0.1807  0.1048
17342W        W35546  12.654   8.001   2.160 -0.2546 -0.1684  0.1168
17343W        W35547   7.202   3.803   2.672 -0.3016  0.0865  0.0483
17344W        W35548   5.273  15.775  14.267  0.1521  0.0323 -0.1129
17345W        W35549   0.078  11.430   2.519 -0.0247 -0.0991 -0.0876
17346W        W35550  17.376   7.632  14.379  0.0549 -0.2845  0.0162
17347W        W35551   8.445  14.262  13.147  0.0844 -0.1948  0.2712
17348W        W35552  11.013   7.771   4.727 -0.0204  0.1269 -0.0554
17349W        W35553   7.162  14.132   0.227 -0.2948  0.1040  0.3023
17350W        W35554   7.056  14.719  13.948  0.0883 -0.2675 -0.1132
17351W        W35555   1.138   3.877  13.646 -0.2329 -0.0184 -0.1356
17352W        W35556   6.397  15.920  14.796  0.0494  0.1538  0.1997
17353W        W35557   3.895   0.753   1.707  0.0186 -0.2377 -0.1448
17354W        W35558  14.228  16.791  15.004 -0.0831 -0.2518 -0.0077
17355W        W35559  10.161  14.326  10.012  0.0038 -0.1132  0.0048
17356W        W35560  11.597   8.475  14.687 -0.0855 -0.1111 -0.2398
17357W        W35561   5.681   6.832  13.317 -0.0371 -0.0853 -0.4807
17358W        W35562   2.184   5.765  13.426 -0.0422 -0.0179 -0.1115
17359W        W35563   9.028   5.533   1.633  0.0296 -0.0420  0.1405
17360W        W35564   6.514   5.053  15.566 -0.0411 -0.1600 -0.1055
17361W        W35565   0.226   3.408  15.578  0.2308  0.3464 -0.0435
17362W        W35566  10.875   3.080   2.044 -0.0642 -0.1057 -0.0269
17363W        W35567   6.116  13.403   3.955  0.1333  0.1582 -0.0793
17364W        W35568   1.426   7.515   2.784  0.2325  0.3205  0.0274
17365W        W35569  11.330  15.319   1.028  0.1127 -0.1705  0.3003
17366W        W35570   9.635  11.136   1.283 -0.2722  0.2010  0.2185
17367W        W35571   3.524   4.907   0.763  0.1664 -0.0051 -0.1547
17368W        W35572   8.284   1.164  11.899  0.0889  0.3939  0.0750
17369W        W35573   1.616   4.183   0.302 -0.0100 -0.0933  0.0982
17370W        W35574  14.019   3.205  12.396  0.0592 -0.1127 -0.3512
17371W        W35575   0.064   5.623  15.627  0.0987  0.0662 -0.1264
17372W        W35576  18.176   9.222   4.052  0.0394  0.1599  0.0352
17373W        W35577  16.912   5.825  13.585 -0.1486  0.0962  0.1036
17374W        W35578  10.942   8.535   1.609 -0.0027 -0.1821 -0.2301
17375W        W35579  13.817   7.956   2.376 -0.2769 -0.0074 -0.1984
17376W        W35580   3.933  14.684  14.416  0.1686 -0.1194 -0.0507
17377W        W35581  10.831  15.863  14.328  0.1501  0.4318 -0.0029
17378W        W35582   3.129   2.625   2.318 -0.0004 -0.1267 -0.0089
17379W        W35583   5.664   3.620   4.419 -0.0255  0.0863 -0.2775
17380W        W35584   5.935   0.095   4.319  0.0964 -0.0774 -0.1356
17381W        W35585   0.476  12.000   2.732  0.0223 -0.2046 -0.0390
17382W        W35586   4.124   3.416  11.232 -0.0913 -0.0521  0.3389
17383W        W35587  12.453  11.523   0.483  0.1336 -0.0474 -0.1520
17384W        W35588  13.145   5.723   3.746  0.0953  0.2095 -0.2816
17385W        W35589   4.598  18.073  11.908  0.3725 -0.1587 -0.2915
17386W        W35590   7.070   1.894  12.681  0.0638  0.1760 -0.2556
17387W        W35591  15.433  10.664  11.807  0.0134  0.1837  0.3443
17388W        W35592   5.345  17.534   4.982 -0.3245  0.2706 -0.0936
17389W        W35593  10.685  11.193   3.554 -0.1524 -0.3620 -0.3349
17390W        W35594   1.019  10.774   0.226  0.0282 -0.0323  0.5023
17391W        W35595   6.041  17.085  12.649  0.2560  0.1481  0.0297
17392W        W35596  10.417   0.980   3.616  0.1199  0.1112  0.1558
17393W        W35597   6.307   9.838   4.052  0.0518 -0.0668  0.1805
17394W        W35598   1.903   8.962  14.369 -0.0680  0.0819 -0.0364
17395W        W35599  12.410  10.427   0.093 -0.2747 -0.1325  0.2286
17396W        W35600   1.486   4.647   3.512 -0.0161  0.0286 -0.0304
17397W        W35601  13.837  12.219   4.322  0.2193  0.1486 -0.3172
17398W        W35602  13.234   3.984   2.807  0.2325  0.0518 -0.0161
17399W        W35603   8.937  12.406   5.045 -0.0368 -0.0014  0.2004
17400W        W35604   4.632   5.854  13.455  0.2795 -0.1591  0.1097
17401W        W35605  12.755  11.400   0.026  0.0798 -0.2226  0.0246
17402W        W35606  16.774  12.821  14.847 -0.0177  0.1932  0.0763
17403W        W35607  16.129  14.135  12.756  0.1591  0.1596  0.2592
17404W        W35608  13.250  15.648  15.081  0.2598 -0.3389  0.0531
17405W        W35609   7.401   1.389   0.771 -0.1281  0.1258 -0.2622
17406W        W35610   8.337   5.444  13.396 -0.0116  0.2302  0.0780
17407W        W35611   5.440  18.272   1.116  0.0270 -0.2032 -0.0206
17408W        W35612  17.703   0.567   1.839 -0.0420 -0.0529 -0.1806
17409W        W35613   6.860  13.435   1.169 -0.1876 -0.0615 -0.1049
17410W        W35614  10.190   8.431  11.921 -0.2687  0.1870 -0.1569
17411W        W35615  14.873   6.281   2.159 -0.0868  0.1234 -0.0005
17412W        W35616   1.482   2.531  12.582 -0.0218  0.0119  0.0281
17413W        W35617  16.925   0.645   3.722  0.0494 -0.2491 -0.0909
17414W        W35618  10.591  14.603   2.576  0.2276  0.1100 -0.0588
17415W        W35619  12.840  10.534   4.147 -0.4045  0.0006  0.2016
17416W        W35620  14.367   5.813  10.005 -0.0392 -0.0506  0.0848
17417W        W35621  11.737  16.204   2.332 -0.0378 -0.3273  0.3773
17418W        W35622  14.849   3.092   1.080 -0.1577  0.2637 -0.0086
17419W        W35623  10.225   6.078   1.031 -0.1081  0.0751 -0.3414
17420W        W35624  10.769   0.683  12.033  0.1802  0.1447  0.0893
17421W        W35625  14.702   8.964   2.699  0.1399 -0.0936 -0.0477
17422W        W35626   1.097   8.818   3.003 -0.0164  0.1004  0.1159
17423W        W35627  17.383   0.201  10.185 -0.2560 -0.4321  0.2001
17424W        W35628  15.782  16.168  15.376  0.2401 -0.2964 -0.0170
17425W        W35629  14.020   0.695  11.596  0.1246  0.0572 -0.3425
17426W        W35630   6.323  15.101   0.808 -0.2757  0.1785  0.0212
17427W        W35631  13.576   0.028   3.215  0.0106 -0.1848 -0.1905
17428W        W35632  12.872   6.306  13.967  0.1247 -0.1440 -0.2894
17429W        W35633   6.208   8.382  15.723 -0.1708 -0.1785  0.0827
17430W        W35634   9.488   0.379  13.845 -0.2464 -0.0510 -0.0470
17431W        W35635  14.783   4.416   4.292 -0.2585  0.3721  0.0657
17432W        W35636   2.949  12.700   2.218  0.0820 -0.1856 -0.2582
17433W        W35637  18.268   9.446  13.403  0.1083  0.2480 -0.0754
17434W        W35638   4.274  10.787   4.388 -0.0352 -0.0085 -0.1944
17435W        W35639  14.430  17.283   0.374  0.0630 -0.0980 -0.1059
17436W        W35640   0.136   0.442   4.664 -0.0226 -0.1856 -0.2644
17437W        W35641   6.704  15.951  12.095  0.1956 -0.1233 -0.1820
17438W        W35642  17.166   1.115   0.393  0.2121 -0.1702 -0.3710
17439W        W35643  17.411  17.673  13.928  0.0148  0.4646  0.0569
17440W        W35644   2.264  11.923  11.411 -0.2198 -0.1705  0.2618
17441W        W35645   0.269   0.948   3.565  0.1735 -0.0054  0.1069
17442W        W35646  13.553   6.893   5.064 -0.0322 -0.0428  0.3629
17443W        W35647   3.662   6.845   0.302 -0.4021 -0.2922 -0.2747
17444W        W35648   0.760   8.399   0.766  0.1826  0.2609  0.0759
17445W        W35649   0.363   3.974  14.371 -0.0756 -0.0650  0.0372
17446W        W35650   9.900   3.372  13.748 -0.1120 -0.0770 -0.3004
17447W        W35651   1.757  13.844  11.887  0.1920 -0.2788 -0.0505
17448W        W35652  10.403  16.714  12.530  0.0243  0.1029 -0.1499
17449W        W35653   7.991  13.114  15.296  0.3391 -0.2484  0.1836
17450W        W35654   5.736  12.386  13.362  0.1414 -0.1642  0.0575
17451W        W35655   6.263  13.386  12.414 -0.2609 -0.0345 -0.1140
17452W        W35656   6.570   4.222   4.623 -0.1642  0.0438 -0.0490
17453W        W35657   8.270   6.656   0.904 -0.1882 -0.1593  0.0365
17454W        W35658  17.702   6.413   2.378 -0.0213  0.0055  0.4486
17455W        W35659   5.372   3.401   4.021 -0.2055  0.1349  0.3735
17456W        W35660   0.468  17.589  14.555  0.0992  0.1499  0.4834
17457W        W35661   4.191   3.936   3.273 -0.1733 -0.0310 -0.1551
17458W        W35662  11.206  17.249   0.824 -0.1075 -0.0744  0.2520
17459W        W35663  11.924   1.034  10.015  0.2038 -0.0509 -0.0812
17460W        W35664  17.237   3.810   0.136  0.3737  0.0423 -0.4585
17461W        W35665   0.535  10.046  14.088 -0.0915 -0.0170 -0.1823
17462W        W35666  10.763  10.847  13.776  0.3729 -0.0421  0.1607
17463W        W35667   4.565  15.081   3.961  0.1756  0.2801  0.1556
17464W        W35668   5.367  16.418   3.635 -0.0841  0.1763  0.0782
17465W        W35669   5.900  14.493   0.324  0.0197  0.1130 -0.3164
17466W        W35670   0.096   5.429   3.882 -0.2211  0.0293 -0.1357
17467W        W35671  10.443   0.949   0.234 -0.0060 -0.1929 -0.1765
17468W        W35672  11.790  13.493  13.520 -0.2397  0.2311 -0.0990
17469W        W35673  14.358   3.972  14.054 -0.1437  0.0273  0.1971
17470W        W35674   8.072   5.429   0.735  0.0851 -0.0641 -0.0970
17471W        W35675   1.802  13.744  12.372 -0.1559 -0.1339  0.2384
17472W        W35676   7.288   8.871   2.305  0.0283  0.2430 -0.0583
17473W        W35677   9.325  12.789   1.281  0.2571 -0.0257 -0.2861
17474W        W35678  10.604  18.123  11.775  0.0570 -0.2845 -0.1749
17475W        W35679   8.875   2.369   2.765 -0.0351  0.0309 -0.0721
17476W        W35680   4.815  14.413  12.525 -0.0026 -0.1792  0.3767
17477W        W35681  10.958   6.535  10.394 -0.3027  0.0072  0.0206
17478W        W35682   6.598  14.487  14.222 -0.0517  0.1857 -0.0271
17479W        W35683   6.765  15.312   1.408  0.4737 -0.3604  0.2406
17480W        W35684   5.826  17.133  11.111  0.2367 -0.0360 -0.0168
17481W        W35685   0.385   9.496  15.323  0.0702  0.0193 -0.1442
17482W        W35686   2.913   9.476   4.225 -0.0313 -0.0658  0.0854
17483W        W35687  11.344   4.349  15.112 -0.0428  0.1429  0.0330
17484W        W35688  14.068  15.993  15.545  0.0851 -0.0546 -0.1702
17485W        W35689  11.075   6.734  14.562  0.1569 -0.1266  0.2184
17486W        W35690  14.831  11.397  13.822 -0.2828  0.3232 -0.0846
17487W        W35691   6.177   8.292   3.045 -0.2547 -0.2582 -0.3584
17488W        W35692  13.477   7.806  14.685  0.1236 -0.0445  0.2650
17489W        W35693  11.074   1.991  11.092  0.1649 -0.1853 -0.0939
17490W        W35694  14.507  11.626  14.455 -0.3568  0.3121  0.0877
17491W        W35695  16.808  10.831  14.269  0.0658  0.2482  0.3699
17492W        W35696  16.921   3.427  12.718 -0.1629 -0.2641  0.0333
17493W        W35697  13.604  11.017  15.411  0.2484 -0.0717  0.1749
17494W        W35698  15.744  13.381  12.838  0.0896 -0.0158  0.1642
17495W        W35699   9.532  11.780   1.143 -0.1120  0.0034  0.0873
17496W        W35700  16.345  17.005  13.893  0.3814 -0.1436  0.3779
17497W        W35701  13.935  15.113  15.603  0.0235 -0.0538  0.2620
17498W        W35702   9.417   9.723  14.146  0.0827 -0.0571  0.2716
17499W        W35703  15.867   1.963  13.227 -0.1841 -0.0048 -0.1521
17500W        W35704  15.311   4.556  13.287  0.1962  0.1318  0.1020
17501W        W35705  15.383  11.534  13.913 -0.0637  0.0055 -0.2403
17502W        W35706  12.601   2.700   2.121  0.0029  0.2169  0.1949
17503W        W35707   7.901  14.692   3.662  0.3186 -0.0250  0.0431
17504W        W35708   7.814  15.544   3.546  0.2347 -0.0202  0.0103
17505W        W35709   8.609  13.360  14.541 -0.1083  0.0478 -0.2501
17506W        W35710   6.161  10.986  11.169  0.0373  0.0699 -0.2213
17507W        W35711   9.305  15.853  12.319  0.0864  0.3200 -0.0552
17508W        W35712  18.167   0.819   4.688 -0.3701  0.0014 -0.1025
17509W        W35713  17.225   5.178   1.051 -0.2239  0.2121 -0.0769
17510W        W35714   6.974  12.023  10.721  0.0687  0.1581  0.0463
17511W        W35715  18.161   3.725  13.104 -0.0452 -0.1415 -0.0128
17512W        W35716   1.207  14.880   5.603 -0.2586 -0.1662 -0.4008
17513W        W35717  10.784  12.822  14.873  0.2266  0.3018 -0.0205
17514W        W35718  12.960  13.539  12.780  0.2139 -0.1043 -0.1020
17515W        W35719   2.893  10.552  13.127 -0.0942  0.1043  0.3313
17516W        W35720  13.972   3.300  14.809 -0.0377  0.0683 -0.5739
17517W        W35721   3.805   9.977   4.101 -0.1497 -0.1532  0.1126
17518W        W35722  11.283  14.591   0.139  0.0269  0.0398  0.1596
17519W        W35723  11.118   5.222  11.543  0.2957  0.0815  0.0808
17520W        W35724  12.007   2.296   4.360  0.0524 -0.1408  0.0280
17521W        W35725   7.199  14.295   0.753  0.0670 -0.1661 -0.0382
17522W        W35726   3.683  14.065  14.367  0.0676 -0.1188 -0.1497
17523W        W35727   1.669   5.335  14.391 -0.4377 -0.1735 -0.3548
17524W        W35728  15.346  13.825  14.776 -0.1109  0.0750 -0.2404
17525W        W35729  13.333  13.411  14.504 -0.2699 -0.1479 -0.1214
17526W        W35730   9.082   4.798  11.490  0.2129 -0.1767 -0.0498
17527W        W35731   5.996  17.134   1.287  0.0341  0.0238 -0.2269
17528W        W35732  11.698   7.146  10.554 -0.2746  0.3466  0.0676
17529W        W35733  13.185  13.658   1.475  0.0496 -0.1643  0.2461
17530W        W35734  17.337   3.537  14.625 -0.1116  0.1472 -0.1595
17531W        W35735  11.197  14.013  15.655  0.1288  0.3178 -0.2446
17532W        W35736   5.293  12.012  14.990  0.1765 -0.2437 -0.2110
17533W        W35737   5.697   3.917   0.909 -0.3937 -0.0456 -0.0202
17534W        W35738   0.915  15.549   1.122  0.0826  0.0133 -0.0663
17535W        W35739  12.432   0.472   3.040  0.2642  0.2033 -0.1808
17536W        W35740   6.798   1.316   1.421 -0.1070 -0.0747 -0.0390
17537W        W35741   9.489   8.728  15.579  0.0854  0.2684 -0.1109
17538W        W35742  15.735  11.647  15.568  0.4215 -0.1610  0.2424
17539W        W35743   6.793  12.895   4.524  0.1882 -0.0590  0.1736
17540W        W35744  13.576   1.206   0.181 -0.0037  0.0031 -0.0630
17541W        W35745   8.395   3.570   4.632  0.0342 -0.2296 -0.6432
17542W        W35746   0.843   9.972   0.993  0.1513  0.2055 -0.0364
17543W        W35747   1.257  11.896  12.672  0.0810  0.1229  0.0392
17544W        W35748   1.435   1.373  15.704 -0.0130 -0.0531 -0.0230
17545W        W35749  15.451   2.064  11.469  0.0704  0.0622  0.0527
17546W        W35750   9.448  13.744  12.459  0.0461  0.2704  0.1541
17547W        W35751   0.662   5.736   5.045  0.0292 -0.1612  0.0518
17548W        W35752  14.114   0.842  13.092  0.1158  0.2655  0.0937
17549W        W35753   9.748  11.849   3.250 -0.1291  0.1285  0.0529
17550W        W35754   6.634  15.750   4.290  0.0234  0.0636 -0.0085
17551W        W35755   0.346  17.622  11.202 -0.2254  0.3284  0.0206
17552W        W35756  16.575   4.546   0.481  0.2862 -0.0090  0.0128
17553W        W35757   6.118   3.955  14.814 -0.1817 -0.0263  0.2219
17554W        W35758  17.141  15.621  13.673 -0.1738  0.0010 -0.3147
17555W        W35759  13.672   7.369  15.666 -0.0115  0.1662  0.2540
17556W        W35760   0.275   6.119   5.882 -0.0157 -0.0990  0.1151
17557W        W35761   9.300   3.674  11.676 -0.0638 -0.2568 -0.1411
17558W        W35762   9.980   3.038  15.561  0.1768  0.1030  0.2726
17559W        W35763  12.304   0.937   3.809  0.0285 -0.3829 -0.3591
17560W        W35764  10.631  17.310   2.137  0.1950 -0.0240 -0.0541
17561W        W35765  13.328  10.522  13.623  0.1093 -0.0079 -0.1543
17562W        W35766  13.485   4.966   1.015  0.0153  0.2518  0.0318
17563W        W35767   0.427  16.633  14.767 -0.4192 -0.2467 -0.1459
17564W        W35768   8.458   4.868   2.803 -0.3579 -0.0456 -0.1329
17565W        W35769  13.884  10.792  11.744 -0.3377  0.1415 -0.0517
17566W        W35770  12.743   8.378   4.326 -0.2648  0.0624  0.3565
17567W        W35771   5.960  16.550  13.529 -0.0654 -0.0156 -0.0540
17568W        W35772  10.496   3.820   2.787 -0.3802  0.1861  0.4491
17569W        W35773  11.223   7.624  11.312  0.2183 -0.0899 -0.2426
17570W        W35774  18.239  13.575   0.457  0.0129  0.0410 -0.2981
17571W        W35775  17.860   5.211   2.116 -0.0787  0.0761 -0.2470
17572W        W35776  10.192  13.693  15.018 -0.0317  0.2017  0.2318
17573W        W35777   3.005  12.774  15.647 -0.0639  0.1666 -0.0497
17574W        W35778   5.105   6.733  10.806  0.0317  0.1905 -0.3178
17575W        W35779   8.154   4.107   2.695 -0.1181  0.1044  0.0322
17576W        W35780  10.686   5.986   2.410 -0.2248 -0.2099  0.2433
17577W        W35781  14.653  10.340  15.350 -0.1502  0.1955  0.2064
17578W        W35782   7.177   9.555  12.142 -0.3750 -0.1065  0.0698
17579W        W35783   9.816  13.854  12.139  0.1621 -0.0678 -0.1718
17580W        W35784   3.937  18.291  11.404  0.0330 -0.0004  0.2033
17581W        W35785  14.450  15.399  14.211  0.0318  0.0420 -0.1549
17582W        W35786  17.963  14.320  13.361  0.3867  0.0195  0.2661
17583W        W35787  13.057   9.484  13.941 -0.0028 -0.0907 -0.0275
17584W        W35788   4.339  12.118  15.451 -0.2423  0.2672 -0.1558
17585W        W35789   0.253   5.695  13.768 -0.0374 -0.4626 -0.1012
17586W        W35790  11.290   4.250   3.277 -0.1391 -0.3762  0.0755
17587W        W35791  10.544  17.931  14.548  0.1250 -0.2965 -0.0861
17588W        W35792  10.079  15.267   4.522 -0.2765 -0.0306  0.0922
17589W        W35793  17.604   6.724   0.012  0.1572 -0.1231 -0.0349
17590W        W35794  10.430   4.332  11.540  0.0759  0.0195  0.1279
17591W        W35795   5.633   6.422   1.988 -0.0669  0.0899 -0.0689
17592W        W35796  16.952  11.654  12.697 -0.1734 -0.3246 -0.2991
17593W        W35797   6.407   8.050  11.487  0.2385  0.1180  0.1964
17594W        W35798  10.106   4.942   2.236  0.2903 -0.4223 -0.0967
17595W        W35799  12.580  14.965  12.772 -0.0144  0.2245 -0.1769
17596W        W35800   4.805   5.028   3.633  0.2518 -0.0819 -0.0873
17597W        W35801  17.644  16.642   1.084 -0.5213  0.0060 -0.0869
17598W        W35802  17.315   2.623  11.850  0.0362  0.2525 -0.0902
17599W        W35803  11.546  14.595  11.948  0.2700 -0.0676 -0.2263
17600W        W35804   5.668  10.570   0.736 -0.0818  0.2017 -0.1284
17601W        W35805   0.520   1.814  11.518  0.0907  0.1574 -0.0864
17602W        W35806   8.217   7.089   4.417 -0.0705  0.0218  0.3094
17603W        W35807  15.927  16.421   4.639  0.1635  0.0243 -0.0146
17604W        W35808  15.836   7.678  14.033  0.1342  0.1312  0.0723
17605W        W35809  12.765   8.156   0.160  0.1574 -0.1280  0.1122
17606W        W35810   4.458   0.124   0.939 -0.0489  0.1089 -0.1288
17607W        W35811  14.572  14.450   3.502 -0.0448 -0.2268  0.0424
17608W        W35812  15.814  17.459   3.286  0.5823  0.2675 -0.3116
17609W        W35813  18.096   2.453  10.280  0.1020 -0.1619  0.0230
17610W        W35814   6.910   6.852  12.203  0.0498  0.3150  0.1882
17611W        W35815  12.629   4.830  12.402  0.1362  0.3106  0.0859
17612W        W35816   6.835   2.952   2.368 -0.1497 -0.2231  0.3397
17613W        W35817   9.556   1.682  12.428 -0.0784  0.0510  0.1928
17614W        W35818  10.949   5.345   1.888 -0.1116 -0.3552  0.2578
17615W        W35819  11.831  10.115   1.418  0.2871  0.3679 -0.0398
17616W        W35820   0.201  11.133  11.068 -0.0151 -0.1537 -0.1002
17617W        W35821   3.968   8.762  14.480  0.3188  0.3252  0.0956
17618W        W35822   8.181   6.911   2.211 -0.0570 -0.1310 -0.0538
17619W        W35823   4.754  12.379  11.383 -0.0616  0.0470 -0.1104
17620W        W35824   1.673  11.764  14.759  0.0453  0.0158  0.4800
17621W        W35825   5.467  17.160  15.639  0.2882 -0.0258 -0.0671
17622W        W35826  17.794  12.418  11.495  0.4244  0.1694 -0.0804
17623W        W35827   8.262   2.516  15.451  0.0096  0.2760  0.0425
17624W        W35828  16.078  16.891  15.648  0.0641 -0.0594 -0.1663
17625W        W35829   7.504  15.730  15.492  0.0485 -0.1120  0.0869
17626W        W35830  14.793  15.048   1.876  0.0399  0.1764  0.2642
17627W        W35831  14.568   0.171   2.846 -0.2894  0.1705  0.0063
17628W        W35832   5.562   7.239   3.490  0.3999  0.0412 -0.1220
17629W        W35833   4.990   8.737  12.781  0.2534  0.0379 -0.0960
17630W        W35834  17.679  12.168  13.826 -0.0442 -0.3171 -0.0868
17631W        W35835   0.913  10.902  15.246  0.2755 -0.3675 -0.2383
17632W        W35836  14.588   6.308  13.698  0.2145 -0.0343 -0.1405
17633W        W35837  11.459   7.749  11.711 -0.0314  0.0984 -0.1139
17634W        W35838   4.257  15.753   2.688 -0.3152 -0.1290  0.0561
17635W        W35839  14.347   8.856  11.702 -0.2099 -0.1987 -0.3888
17636W        W35840  11.587  17.622  13.481 -0.0950 -0.1577 -0.0654
17637W        W35841   9.326   1.150  13.105  0.4071 -0.0587 -0.0386
17638W        W35842  14.728   8.145  15.277 -0.0374  0.1994  0.2745
17639W        W35843   8.904   9.973  11.687 -0.0769 -0.2389 -0.0466
17640W        W35844  12.407  11.220  13.033  0.0696 -0.0556 -0.2576
17641W        W35845   9.156  18.059   0.678  0.0785  0.1103  0.1465
17642W        W35846   8.658  12.589  11.896 -0.1460 -0.1189  0.0392
17643W        W35847  13.627   3.406  15.179  0.2144  0.2077  0.1426
17644W        W35848   8.591   0.169  11.956 -0.0117  0.4065  0.1603
17645W        W35849   3.267  17.875  13.337 -0.0425  0.2295 -0.0797
17646W        W35850  17.013  11.399  13.125 -0.1434  0.1050 -0.0980
17647W        W35851  17.643   6.687  13.401 -0.2244 -0.2024 -0.0256
17648W        W35852   7.022   7.536   4.065  0.1861 -0.2140 -0.1076
17649W        W35853   1.395   5.206  15.472  0.2148 -0.2974  0.1273
17650W        W35854  10.405  16.447   2.255 -0.0534  0.0380  0.1637
17651W        W35855   5.110  17.213  14.933 -0.0066  0.0960 -0.1670
17652W        W35856   4.315  13.658  13.793 -0.2063  0.2290  0.1690
17653W        W35857   7.377   3.779  14.069 -0.2418 -0.3075  0.0061
17654W        W35858  10.456  12.990  14.075 -0.0480  0.0178 -0.1716
17655W        W35859   7.561   8.660  12.643 -0.0539 -0.0807 -0.3798
17656W        W35860   6.013   6.048   2.716 -0.3663 -0.0388  0.0128
17657W        W35861  10.399   9.421   4.483  0.1264 -0.2047  0.2600
17658W        W35862  17.458   2.262  13.829  0.1133  0.3801  0.1313
17659W        W35863   7.426  10.729   3.380 -0.0423  0.2001 -0.0362
17660W        W35864  14.934   6.774  11.318 -0.2304 -0.0368  0.2739
17661W        W35865   4.027   6.492   5.388 -0.1516 -0.1244 -0.1216
17662W        W35866  10.624   9.875   4.492 -0.0944 -0.0446 -0.0793
17663W        W35867   7.283   3.313  11.346 -0.1155  0.1420  0.2092
17664W        W35868   4.976   9.081  12.205  0.0394  0.1896  0.0617
17665W        W35869   1.095   2.520   1.875  0.1954  0.1121 -0.1984
17666W        W35870  13.051   6.006   2.119 -0.1182 -0.0496 -0.0619
17667W        W35871  10.204   6.696  13.177  0.0001  0.2575  0.1260
17668W        W35872  12.557   9.125   5.009 -0.1388  0.1120  0.1959
17669W        W35873   9.469  16.276  14.173 -0.0278  0.3259  0.2189
17670W        W35874   4.483  11.300  13.383  0.2666  0.2943 -0.0070
17671W        W35875   8.312   2.699  13.338  0.4208  0.0468  0.0914
17672W        W35876   7.412   3.434   1.256  0.3134  0.1314  0.1209
17673W        W35877   0.163  17.203   2.010  0.1256 -0.1376 -0.1200
17674W        W35878  13.530   4.860  14.693 -0.1917  0.3880 -0.0158
17675W        W35879   7.125  18.216  13.811  0.3449 -0.2580 -0.0053
17676W        W35880   9.104  14.860   0.070 -0.0346 -0.2567 -0.0554
17677W        W35881   9.974  18.025  12.303 -0.1995  0.0781 -0.2345
17678W        W35882  13.059   3.182   4.307  0.2630  0.1071 -0.0974
17679W        W35883  15.832   1.256  10.747 -0.0701 -0.1323 -0.1530
17680W        W35884   8.259  16.110   0.044  0.0572  0.0135 -0.0546
17681W        W35885  18.276   2.371   1.033  0.3414  0.0771  0.0917
17682W        W35886  10.127  11.580   5.756  0.2279  0.1061 -0.1107
17683W        W35887  11.700   2.787   2.044  0.1197 -0.1873  0.2205
17684W        W35888  15.230   5.792   1.387 -0.4647 -0.2364  0.0177
17685W        W35889  17.321   4.051  11.093 -0.0898 -0.0406  0.1370
17686W        W35890   2.440  14.093  13.594  0.0496 -0.0786  0.3858
17687W        W35891   2.719  13.194  15.442  0.0425 -0.0433  0.0300
17688W        W35892   5.790  17.305   0.273 -0.1649  0.0045 -0.0317
17689W        W35893  15.959   5.439   4.575  0.1093 -0.1516 -0.1241
17690W        W35894   1.501  14.702  13.524  0.0675  0.1314 -0.0577
17691W        W35895  13.654  10.293  14.982  0.0309 -0.0526  0.0051
17692W        W35896  16.259  14.957  14.366 -0.2330 -0.2731 -0.0629
17693W        W35897   3.947   7.318   3.962  0.0063  0.2748  0.1599
17694W        W35898  16.517   3.202  11.622  0.5136  0.0119  0.1411
17695W        W35899  12.266   3.588  15.174 -0.1780  0.1712 -0.3059
17696W        W35900   5.676   9.275  12.104  0.3324 -0.0387 -0.0780
17697W        W35901  12.379  11.275  14.002  0.1288  0.0071  0.2657
17698W        W35902  13.840   8.111  14.736 -0.1849  0.2479  0.0695
17699W        W35903  16.576   1.842  13.428 -0.0737  0.0934  0.2132
17700W        W35904   7.354  17.795  12.928 -0.2771 -0.2493  0.1943
17701W        W35905  15.238   9.252   2.803  0.1292 -0.2154  0.2258
17702W        W35906  13.620   5.328  13.943 -0.3506  0.2462  0.1287
17703W        W35907  15.595  17.914   2.275  0.1281  0.1494  0.2529
17704W        W35908  14.886   6.301   2.806  0.0394 -0.0378  0.4797
17705W        W35909  15.713   7.391   1.937  0.0070  0.0065  0.1094
17706W        W35910   0.988  15.963  13.667 -0.0193  0.0703 -0.3438
17707W        W35911   9.655  15.698  12.795 -0.0109 -0.0905  0.1131
17708W        W35912   5.666  12.178  12.707  0.1175  0.2141 -0.1711
17709W        W35913  16.283   4.130   2.236  0.2426  0.2943 -0.0776
17710W        W35914   9.814   1.461   1.955 -0.0381  0.2677 -0.1245
17711W        W35915  15.979   6.075   0.930 -0.0585 -0.0888 -0.1034
17712W        W35916   3.291  12.895  13.142  0.1043 -0.5197  0.0136
17713W        W35917  13.879  12.915  13.973  0.0534 -0.0134 -0.1962
17714W        W35918   7.023  10.708   5.719  0.0479 -0.2455 -0.2602
17715W        W35919   7.695  15.421  12.954 -0.2867  0.1041 -0.2077
17716W        W35920  18.107   7.110  14.028 -0.0011 -0.2308  0.0323
17717W        W35921   2.342   6.623  11.180  0.1672 -0.1473  0.0435
17718W        W35922  15.672  15.384   2.877  0.1175 -0.2787 -0.0237
17719W        W35923   0.431  16.420  15.690 -0.1931  0.0932 -0.2837
17720W        W35924   4.912  17.313   3.135  0.0134  0.2366 -0.0533
17721W        W35925   5.765   2.423  13.294  0.1859  0.1650  0.1036
17722W        W35926  12.354   3.875  12.669 -0.3858 -0.1166 -0.2787
17723W        W35927  10.487  13.171  11.482 -0.1054 -0.0313 -0.2212
17724W        W35928   5.223   5.443   1.339 -0.2650  0.2150 -0.0478
17725W        W35929  18.039  12.023   4.453 -0.1396 -0.0528  0.0849
17726W        W35930  16.552   0.723   1.994 -0.0949 -0.0466  0.0901
17727W        W35931  13.038   1.204  13.171  0.1244 -0.0609 -0.0260
17728W        W35932  13.540  12.106  15.459  0.0603  0.1834  0.0865
17729W        W35933  12.234   3.877   2.702  0.3088  0.0230  0.1422
17730W        W35934  14.086   7.761   3.584 -0.0895 -0.2335  0.0269
17731W        W35935  10.100  11.807  12.892  0.0969 -0.0267  0.1530
17732W        W35936   5.823  14.534  13.920 -0.1511  0.1861  0.0150
17733W        W35937   8.814   6.478   1.698  0.0417 -0.1974  0.3553
17734W        W35938  17.823  17.824  14.225 -0.0301  0.0903  0.1264
17735W        W35939   2.731  11.719  11.776 -0.1795  0.0540 -0.3307
17736W        W35940   9.561  17.794   3.906  0.3059 -0.1284  0.2263
17737W        W35941  18.067  14.152   3.265 -0.0553 -0.2027 -0.0819
17738W        W35942   1.179  13.993  13.357  0.1109  0.0397 -0.1180
17739W        W35943  15.406   8.838   0.073 -0.0749 -0.0538  0.0617
17740W        W35944   3.478   8.814  10.256 -0.0451 -0.0381  0.1803
17741W        W35945  15.107   4.118  13.162  0.2790 -0.0470 -0.0865
17742W        W35946   0.377  11.453   1.924  0.1706  0.0214  0.1455
17743W        W35947  17.882   7.527   3.807 -0.2243 -0.1252 -0.0757
17744W        W35948  16.598   8.126  12.298  0.0555 -0.0443  0.0265
17745W        W35949   7.731  15.869  12.789 -0.1743  0.1040  0.1653
17746W        W35950   4.768  10.982  13.934  0.1610 -0.1415 -0.0042
17747W        W35951  15.141   8.416  14.453  0.0091 -0.0778  0.3283
17748W        W35952   8.120   4.681  14.144  0.0874 -0.0972  0.4202
17749W        W35953  12.572  17.272   2.372 -0.1006  0.1596 -0.3374
17750W        W35954   9.403   4.247   3.131 -0.1130 -0.0697  0.1270
17751W        W35955   0.548  15.191  12.270 -0.1479 -0.1830  0.5132
17752W        W35956  15.014  11.919  15.655  0.3643  0.0699  0.1286
17753W        W35957  17.109  16.605   1.926 -0.2521  0.1756 -0.1155
17754W        W35958  12.481  14.944  11.500  0.1635 -0.0452  0.2360
17755W        W35959  10.989   0.653   0.629 -0.0830 -0.0064 -0.0863
17756W        W35960  17.378   0.004  13.735 -0.1346  0.2674 -0.0450
17757W        W35961   3.132  13.340  11.288 -0.0619  0.0249 -0.1034
17758W        W35962  16.465   3.198   5.144 -0.0521  0.1929 -0.1088
17759W        W35963   2.576   0.081   4.339 -0.2478  0.1224 -0.0508
17760W        W35964   7.073  16.526  13.329  0.0522  0.0654  0.1386
17761W        W35965  14.744   1.035   2.231  0.0595 -0.0569  0.1088
17762W        W35966  12.254   0.145  11.865 -0.5477  0.0689  0.0418
17763W        W35967   3.364   6.343   0.032  0.0837  0.1066  0.2301
17764W        W35968   7.052  17.128  10.933 -0.0481  0.0024  0.0035
17765W        W35969  14.030  12.868   0.321  0.2758  0.5142 -0.0676
17766W        W35970  11.212   2.648   2.117  0.0149  0.2411  0.1046
17767W        W35971   6.142   3.265  13.231  0.1224 -0.0240  0.0933
17768W        W35972  12.657  14.925   1.226  0.2517 -0.2549  0.0263
17769W        W35973  13.200   8.309  15.444 -0.2460 -0.0818 -0.1618
17770W        W35974  17.760   7.926   3.426 -0.0533 -0.0188 -0.0511
17771W        W35975  11.608   9.726  15.438  0.1935  0.0712 -0.3194
17772W        W35976  13.338  12.623   5.265  0.2129 -0.0893  0.1793
17773W        W35977   2.674   5.414  15.544  0.0229 -0.0879  0.1871
17774W        W35978   0.124   2.747  13.105  0.2276 -0.2210  0.0328
17775W        W35979   6.039   0.038  12.484  0.2757 -0.2151 -0.1372
17776W        W35980   8.685   6.759   2.214 -0.0075  0.3874 -0.4312
17777W        W35981   4.109  13.874  14.596  0.1164 -0.0750  0.1369
17778W        W35982   0.749  12.184  13.895  0.0547  0.0540  0.0652
17779W        W35983   9.555   6.185  14.437 -0.2081  0.0719 -0.0272
17780W        W35984   1.622  13.870   4.153  0.0915  0.0889  0.0192
17781W        W35985   5.255   5.777   2.611 -0.1117  0.1010  0.1806
17782W        W35986   6.943   4.112  10.157 -0.0621  0.0045 -0.0797
17783W        W35987  17.002   7.699   1.016 -0.0372 -0.1795  0.4226
17784W        W35988  11.864   4.008  10.399  0.1297  0.1631  0.0614
17785W        W35989  13.759   4.389   1.670 -0.0987 -0.1220  0.1862
17786W        W35990  14.929   0.681  14.068  0.0805  0.2498  0.3248
17787W        W35991   6.267  11.567  13.612 -0.0422  0.2631 -0.4024
17788W        W35992  11.378  17.404   3.192  0.2119  0.1426 -0.1106
17789W        W35993  16.610  16.290  11.040  0.3517  0.0463  0.2002
17790W        W35994   3.750   1.229  11.484  0.0383  0.1433 -0.0166
17791W        W35995  15.179   1.608  14.379 -0.1171  0.2035 -0.2993
17792W        W35996  13.517   1.652  14.533  0.2411  0.1011 -0.0287
17793W        W35997  17.679  13.679   2.186  0.2029  0.1378  0.2004
17794W        W35998  15.754  10.587  15.257  0.0588 -0.0590  0.2469
17795W        W35999  15.899  12.377  15.665 -0.0026 -0.0589  0.0311
17796W        W36000   8.781   5.064  14.501 -0.1983 -0.0119 -0.1216
17797W        W36001   8.456  17.446  12.347  0.1503  0.3674 -0.0298
17798W        W36002  16.720  12.960   0.671 -0.3684 -0.1925 -0.2157
17799W        W36003  11.173   9.971   2.656  0.0115 -0.0657 -0.0081
17800W        W36004   7.843   9.994  11.346 -0.1842  0.0181 -0.1095
17801W        W36005  14.922  11.334   4.649 -0.0507 -0.1804  0.0223
17802W        W36006  11.134  15.888   0.164 -0.0607 -0.2795  0.2180
17803W        W36007   6.869   8.445   2.272  0.0838  0.0536  0.0034
17804W        W36008   2.394  16.853  11.078  0.2342 -0.0301 -0.1003
17805W        W36009  13.782   3.295  11.493  0.2408 -0.0219  0.2547
17806W        W36010   7.904  12.018  14.272 -0.0121 -0.0508  0.0464
17807W        W36011  12.976  13.448  12.278 -0.0267 -0.2319  0.3790
17808W        W36012  17.855   2.721  13.636  0.5337 -0.0426  0.2967
17809W        W36013  15.114   1.457  12.992  0.1661  0.0132 -0.4452
17810W        W36014  14.203   9.141   1.044 -0.0039  0.3887  0.0043
17811W        W36015  17.275  14.364   4.458 -0.2395  0.0382 -0.1411
17812W        W36016  16.643   1.775   4.648  0.0666 -0.0214  0.2199
17813W        W36017   2.484  10.758   4.547  0.0422  0.2633 -0.0046
17814W        W36018  15.188   7.966   1.336 -0.1383  0.0619 -0.1118
17815W        W36019   1.792  16.758   0.086 -0.0434 -0.0855 -0.0262
17816W        W36020   5.636  12.538  11.820 -0.1017 -0.1368  0.1777
17817W        W36021   5.617   7.676  12.391  0.0603 -0.2782  0.2081
17818W        W36022   5.418   0.984   2.253  0.0231  0.1277 -0.2078
17819W        W36023   4.742   6.200   0.998 -0.2107 -0.1555  0.0841
17820W        W36024  15.107  11.792   4.326  0.0825  0.1929  0.0305
17821W        W36025  16.255   7.816  13.770 -0.2731 -0.0211 -0.0994
17822W        W36026  12.901   6.036   0.347 -0.1049  0.0606  0.0587
17823W        W36027  11.347  14.939  12.441 -0.0378  0.0213 -0.2545
17824W        W36028  12.905   0.254  10.849  0.2179 -0.0280  0.0714
17825W        W36029  14.604   8.020  13.197 -0.2079 -0.1760 -0.1779
17826W        W36030   9.737  10.673   0.577 -0.1835 -0.0054  0.0242
17827W        W36031   0.407  12.203   0.595 -0.1611 -0.5093 -0.1634
17828W        W36032  14.922   1.018  12.754 -0.1446  0.2051 -0.0084
17829W        W36033   7.797   7.291  12.117 -0.0955 -0.0520 -0.2306
17830W        W36034  15.951  17.161   2.288 -0.0903 -0.0561  0.3423
17831W        W36035  16.858   2.317  14.811  0.0161  0.3676 -0.0468
17832W        W36036  15.835   8.953   3.112  0.1721  0.0945  0.1374
17833W        W36037  17.651   3.494  13.881  0.0747 -0.2213  0.0952
17834W        W36038  17.862   6.815   5.599 -0.0353  0.1342 -0.1898
17835W        W36039   0.507   8.776   0.625 -0.0069 -0.2545  0.1513
17836W        W36040   5.456  14.699   3.537  0.0181 -0.0405  0.0245
17837W        W36041  14.966   8.559   4.541  0.2471 -0.4668 -0.0043
17838W        W36042  15.990   3.621   1.710 -0.2636  0.0665 -0.2110
17839W        W36043  16.956   7.362  13.496  0.2284  0.2262 -0.0686
17840W        W36044  16.009   8.224  10.737 -0.1242  0.0384 -0.0357
17841W        W36045  11.853  13.875   1.608  0.1514 -0.1347 -0.0251
17842W        W36046  11.886   4.330   0.656 -0.0200 -0.1364 -0.0692
17843W        W36047  17.631   5.514   3.785  0.1847  0.3592 -0.2516
17844W        W36048  14.035  11.505   0.308 -0.0709  0.1856  0.2707
17845W        W36049  10.110  12.039  13.540  0.0671  0.0394 -0.3269
17846W        W36050   5.651  13.859   4.531 -0.0029  0.1238  0.2381
17847W        W36051   5.492   0.429   4.293 -0.3210 -0.1356  0.2663
17848W        W36052  13.981   2.979   1.694  0.0137  0.1675  0.0247
17849W        W36053  10.526  10.893  11.024 -0.2371 -0.0459  0.1956
17850W        W36054  15.336   5.797   2.923 -0.0889 -0.0259  0.0169
17851W        W36055  10.885  17.254  11.927 -0.1842 -0.0139 -0.1614
17852W        W36056  13.554   2.971   3.468 -0.2151 -0.0641  0.1377
17853W        W36057   2.691  17.715  11.088 -0.0841  0.0682 -0.1918
17854W        W36058  10.105   7.047   3.856  0.2353 -0.0591  0.1444
17855W        W36059   0.370  11.203   4.678 -0.0864 -0.1951  0.0205
17856W        W36060  17.866   8.497  14.298  0.1371  0.2255 -0.0811
17857W        W36061  13.493  10.873  14.007  0.1684  0.3123  0.2407
17858W        W36062   7.499   9.263   4.582 -0.1951  0.1231  0.2080
17859W        W36063  16.355  13.147   4.906  0.0828  0.1635 -0.2642
17860W        W36064  16.618  13.591  13.873  0.1384 -0.5838  0.1255
17861W        W36065  12.301  18.116   1.329 -0.0273 -0.0330 -0.1746
17862W        W36066   6.388  18.078   1.072  0.0485 -0.1663  0.2610
17863W        W36067  11.889  10.240  11.706  0.0524  0.0454 -0.1234
17864W        W36068  11.393   7.394  14.000  0.2184 -0.0452  0.0372
17865W        W36069  13.313  12.075   0.748 -0.0087 -0.0996  0.0522
17866W        W36070   7.216   2.594  14.490  0.3309 -0.0975 -0.0711
17867W        W36071  18.185   9.468  12.393 -0.1207 -0.0050  0.0865
17868W        W36072  16.262   9.985   3.116 -0.1093  0.0576 -0.2176
17869W        W36073   7.996   2.855  11.574 -0.1616 -0.2869 -0.0884
17870W        W36074   1.627   5.729   2.534 -0.2956 -0.0167  0.2651
17871W        W36075  10.398   6.905  13.713  0.0232  0.0048 -0.2001
17872W        W36076  11.770   2.646   1.563  0.2620  0.1382  0.0928
17873W        W36077   4.414  14.602  11.773 -0.0272 -0.1780 -0.1811
17874W        W36078   2.856   9.777  12.699 -0.1081  0.0646  0.1602
17875W        W36079  13.524  18.255   3.855 -0.0432 -0.2389  0.2243
17876W        W36080  10.689   8.261  13.097 -0.1552  0.0322  0.2060
17877W        W36081  18.250   2.950  13.779 -0.3490  0.0349 -0.0279
17878W        W36082   2.295   8.156   1.801 -0.0356  0.0857 -0.0342
17879W        W36083   4.891   8.953   0.408  0.1037 -0.0385 -0.0363
17880W        W36084  14.471  12.967  12.036  0.0007  0.1640 -0.0337
17881W        W36085   5.395  10.560   5.320  0.2985 -0.0681 -0.1295
17882W        W36086   5.623   7.584   0.465  0.0390 -0.0106 -0.0188
17883W        W36087  14.730   2.424  12.968 -0.0299  0.1615  0.0655
17884W        W36088   0.456  12.954  11.635  0.1731 -0.2017 -0.2481
17885W        W36089   3.214  12.419   3.696 -0.0656 -0.2292 -0.1986
17886W        W36090  14.301   0.221  11.490  0.0168  0.0188  0.0376
17887W        W36091   6.479   4.556  13.730 -0.3183  0.1686  0.0604
17888W        W36092  12.081   0.843  13.276  0.3524 -0.0218 -0.0908
17889W        W36093  13.597   9.234  11.589 -0.0671 -0.0754  0.0665
17890W        W36094   8.154   6.694   4.854  0.3150 -0.0354  0.1285
17891W        W36095   5.327  10.336  13.680  0.1972 -0.1678  0.0411
17892W        W36096  17.424  14.615   2.642 -0.0399  0.1628 -0.1483
17893W        W36097  13.696   4.784   1.977 -0.1051 -0.0135 -0.0923
17894W        W36098  18.231  16.992   0.149 -0.1736 -0.1505 -0.1666
17895W        W36099  16.591   8.658   2.193 -0.0894 -0.0969 -0.0402
17896W        W36100   0.544   8.131  13.576  0.1865 -0.1704  0.1809
17897W        W36101  18.358   2.020  13.481  0.0708 -0.1630 -0.1749
17898W        W36102  18.266  15.561  12.763 -0.0956  0.0265  0.1797
17899W        W36103   7.915  13.556  14.877 -0.1600 -0.0139 -0.0017
17900W        W36104  17.071  14.179   2.671  0.3234  0.1603 -0.1652
17901W        W36105  16.368   0.341   2.892  0.1358 -0.1532  0.0439
17902W        W36106  16.317  15.456  12.881 -0.3017  0.1402 -0.0908
17903W        W36107  11.947   6.124   0.166 -0.2704 -0.3282  0.0980
17904W        W36108   3.791  11.799   4.297  0.4110 -0.1209 -0.2197
17905W        W36109  14.496  16.895  14.641  0.0258  0.1913 -0.1054
17906W        W36110  13.992   7.869   4.066 -0.2645 -0.0759  0.0886
17907W        W36111  10.969   2.857  13.448 -0.0475  0.3279 -0.2362
17908W        W36112   2.141   9.110  13.224  0.1088 -0.0066  0.1881
17909W        W36113   3.274  15.089  12.952 -0.0587 -0.0321 -0.1752
17910W        W36114  10.891   8.198  12.627 -0.0374 -0.4796  0.6353
17911W        W36115   0.076   1.687   2.341 -0.2526 -0.0864 -0.0561
17912W        W36116   9.792  13.573  13.270 -0.0793  0.1576 -0.1088
17913W        W36117   2.608   5.848   4.297  0.0163  0.4397 -0.1279
17914W        W36118   9.274  17.633  15.640  0.0848 -0.3172 -0.0023
17915W        W36119   3.525   9.813  13.478  0.1086  0.3031  0.1805
17916W        W36120   6.056   7.813   3.151  0.0055  0.0001 -0.0253
17917W        W36121  16.355   3.700   3.212 -0.1199 -0.1736 -0.3365
17918W        W36122   4.871   9.017   1.590  0.2452 -0.4544  0.2927
17919W        W36123   3.323   1.260  12.803  0.2164 -0.1657 -0.0971
17920W        W36124  12.810   5.323  12.490 -0.1697 -0.0228 -0.0896
17921W        W36125   2.819   8.163  10.944  0.1396 -0.0534  0.1249
17922W        W36126   9.665   3.074  14.804 -0.4991 -0.4161 -0.1841
17923W        W36127   2.051  10.761   2.132  0.0073  0.1590  0.0643
17924W        W36128  17.619  13.202  12.568  0.1666 -0.1916  0.3259
17925W        W36129  14.057   6.565   2.559 -0.2987 -0.5542 -0.0041
17926W        W36130  17.099  14.792   0.649  0.1056 -0.0369 -0.0885
17927W        W36131  12.592  11.449   4.597  0.2059  0.1432  0.0207
17928W        W36132  17.845  15.976   0.966  0.1545  0.0877 -0.1826
17929W        W36133   6.902   9.875   2.706 -0.1119  0.2858 -0.0290
17930W        W36134  14.786  15.587   1.765 -0.0692  0.2254 -0.0879
17931W        W36135  12.183  14.153  14.744 -0.0909 -0.0495  0.0814
17932W        W36136   9.362   2.673  11.497 -0.1936 -0.0045  0.1543
17933W        W36137  14.473  11.643  10.914  0.0074  0.0813  0.1161
17934W        W36138  15.947   4.502  11.274  0.2879 -0.0704 -0.2539
17935W        W36139   1.410   1.911   4.525  0.2346  0.0866  0.0611
17936W        W36140   4.484  10.198  12.783 -0.0516  0.3915  0.0520
17937W        W36141  18.200   6.474  10.931  0.0609  0.1174  0.2386
17938W        W36142   9.949   9.961  15.538  0.0586  0.0327 -0.1442
17939W        W36143   2.861   1.689  14.271  0.2745  0.3944 -0.0356
17940W        W36144  15.767   7.893   2.690 -0.3061 -0.2137  0.0792
17941W        W36145   2.483   1.045  14.924 -0.0567  0.0582  0.1209
17942W        W36146  15.602   6.548  13.340 -0.0341 -0.2433  0.1406
17943W        W36147   5.834  15.362  14.336 -0.0895 -0.0314 -0.0421
17944W        W36148   9.233   2.171  14.505  0.1817  0.0302  0.0793
17945W        W36149  11.056  10.642  15.003 -0.2710 -0.2115 -0.0802
17946W        W36150   4.523  15.203   2.025  0.1567  0.0973 -0.2239
17947W        W36151  11.633  17.481  12.979  0.0690  0.0079  0.0283
17948W        W36152   9.723  17.654   1.267 -0.0620 -0.4449  0.3266
17949W        W36153  10.530  13.689   5.452  0.3467  0.0143  0.2028
17950W        W36154   5.144   1.928   0.027  0.1584 -0.0051 -0.0922
17951W        W36155   4.526  15.904   0.364  0.2056 -0.0607  0.1886
17952W        W36156  11.317   1.499  11.866  0.0988  0.1089 -0.2696
17953W        W36157   1.829  15.726  13.813  0.0210 -0.1881 -0.1011
17954W        W36158  10.886  12.579  11.792 -0.0653 -0.2830  0.0472
17955W        W36159  12.756  11.811  15.414  0.0730  0.0593 -0.1577
17956W        W36160  13.811  14.969   0.841  0.3080  0.0042 -0.1755
17957W        W36161  13.519   1.796  13.417 -0.1592 -0.2087 -0.2391
17958W        W36162  10.591  16.397   1.800  0.3637 -0.0725  0.2037
17959W        W36163  14.181  15.966  12.962 -0.4243 -0.0639 -0.0726
17960W        W36164   4.215   8.002  12.082 -0.0353 -0.1257  0.0040
17961W        W36165   0.558   5.594   0.131  0.0543  0.0543 -0.1110
17962W        W36166   3.657  18.189   0.929 -0.1504  0.0066  0.0119
17963W        W36167  12.170   3.805   1.246  0.1325 -0.2779  0.3129
17964W        W36168  10.204   1.992   1.400  0.1179 -0.2529  0.0519
17965W        W36169   0.702  11.270  14.878 -0.0532  0.1580  0.1304
17966W        W36170  12.790  15.258  14.853 -0.3594  0.1098  0.1020
17967W        W36171   6.184   0.259  11.606  0.0240  0.0453  0.0564
17968W        W36172  10.346  17.862  13.248  0.1907 -0.0129 -0.0955
17969W        W36173  17.555  11.114   3.425  0.1475 -0.1687  0.1229
17970W        W36174   0.739   3.337   0.066  0.0641  0.2384  0.1513
17971W        W36175   5.376  16.325   3.106  0.0125 -0.2534  0.0756
17972W        W36176   5.859  12.823   2.487  0.1363 -0.0946  0.2397
17973W        W36177   3.124  15.718  13.804  0.2098  0.4021  0.1712
17974W        W36178   1.576   1.810  12.014  0.1907  0.0647 -0.0147
17975W        W36179   1.209   9.983   0.043  0.0265 -0.0649  0.2596
17976W        W36180  14.372  17.986  12.425 -0.0873 -0.1815  0.0316
17977W        W36181  13.209   7.443   0.036  0.1634 -0.1482  0.0994
17978W        W36182  16.110  12.695  14.189 -0.1092  0.4015  0.1621
17979W        W36183  15.500  16.741   4.618  0.1379 -0.2233  0.0265
17980W        W36184   4.072   2.933  13.671  0.0841  0.1308  0.0733
17981W        W36185   7.571  16.151   0.032  0.1477 -0.2204 -0.1835
17982W        W36186  16.453  14.886   4.211  0.1135  0.3320  0.2561
17983W        W36187   6.321  12.385   1.751 -0.3059  0.0100  0.1968
17984W        W36188   9.550   0.226  11.556  0.0372  0.1284  0.2887
17985W        W36189   9.675  18.360  12.038 -0.1414 -0.0145 -0.4305
17986W        W36190   5.576   6.083   3.006  0.1069  0.0764 -0.2413
17987W        W36191  10.771   0.669  11.498 -0.1829 -0.0002  0.3262
17988W        W36192  13.911  10.595   2.529 -0.0240  0.1460  0.3371
17989W        W36193   9.688   2.046   1.128 -0.1257 -0.1230  0.2089
17990W        W36194   0.031   2.156   4.118  0.1000 -0.0633 -0.1343
17991W        W36195   7.029   3.035  12.096 -0.0968  0.2027  0.1176
17992W        W36196   5.469   6.126   1.620  0.1916  0.1477  0.0591
17993W        W36197  16.690  16.521  11.483  0.0009  0.1577 -0.0422
17994W        W36198  18.088  13.451  12.440  0.3917 -0.2894  0.0233
17995W        W36199   2.233   1.016  11.426  0.0984  0.0599  0.1407
17996W        W36200  17.558  14.139  11.602  0.0456 -0.1430 -0.2091
17997W        W36201   4.313  16.409   4.391  0.1286 -0.1052  0.3429
17998W        W36202  16.364  10.202  11.074 -0.0434  0.1270 -0.1062
17999W        W36203  18.177  15.938   0.567  0.4626 -0.2226  0.0028
18000W        W36204  13.881   3.942  10.448 -0.1446 -0.4164  0.0441
18001W        W36205   1.713  16.812  13.002  0.1944  0.1340  0.1568
18002W        W36206  13.055   3.397  11.013 -0.1023  0.1970 -0.0707
18003W        W36207  18.178   8.288  14.800 -0.0631  0.0662  0.2426
18004W        W36208   7.891  15.692   0.154 -0.1879 -0.0205  0.2683
18005W        W36209  15.285   2.996   0.815 -0.0792  0.0065  0.2338
18006W        W36210   1.353   9.702  12.897  0.1732  0.1719  0.1397
18007W        W36211   5.926   8.720  11.268 -0.3682  0.0402 -0.0043
18008W        W36212   0.723   9.171  12.486 -0.0505 -0.3973  0.1344
18009W        W36213  12.467  15.819   4.075 -0.2211  0.0733  0.1755
18010W        W36214  13.995   2.828  14.780 -0.2181 -0.0897  0.2929
18011W        W36215   4.633  13.452  13.140 -0.1303 -0.0062  0.0082
18012W        W36216   6.597   8.983   2.396  0.0162 -0.1471 -0.0584
18013W        W36217  15.703   3.961   2.185  0.0418 -0.1367  0.0043
18014W        W36218   3.362  13.749   1.436  0.0234  0.1724 -0.4797
18015W        W36219  10.151  14.978  11.039  0.1424 -0.3158  0.0461
18016W        W36220   5.288  15.905  12.191  0.2898 -0.1824 -0.1530
18017W        W36221  17.815  10.578  11.871  0.0945 -0.1005 -0.1360
18018W        W36222   4.081   0.300   2.252 -0.1998 -0.0173  0.0055
18019W        W36223  12.646  16.578  11.110 -0.0538  0.2230 -0.0034
18020W        W36224   9.073   0.570   1.176 -0.0988 -0.0597 -0.0419
18021W        W36225   0.274  14.644  12.892 -0.2017  0.1487 -0.2455
18022W        W36226   4.179  10.924  13.265 -0.1290 -0.0939  0.2727
18023W        W36227   3.657   2.038   0.265  0.0022  0.0679  0.0105
18024W        W36228  11.850  10.953   4.108 -0.0429  0.1591 -0.0621
18025W        W36229  12.439  12.460  14.070 -0.0501 -0.3248 -0.1142
18026W        W36230   8.875  12.013   0.839  0.0634  0.1894  0.2084
18027W        W36231  14.401  13.744   2.756 -0.0047  0.1371  0.1671
18028W        W36232  16.296   8.059   1.372 -0.1656 -0.2713  0.1135
18029W        W36233   3.701   5.067   2.701  0.0147  0.1624 -0.3638
18030W        W36234   4.908   7.577  12.762  0.2583  0.2151 -0.1388
18031W        W36235  11.737   8.419   3.958  0.2040 -0.2096 -0.0694
18032W        W36236   9.999   1.596   5.386 -0.2475 -0.0990 -0.1713
18033W        W36237  16.704  14.089  12.129  0.2153 -0.2407  0.2953
18034W        W36238  16.219  12.177   4.178  0.0827 -0.1981  0.1322
18035W        W36239   0.921   3.618  12.127  0.2188 -0.1045  0.0282
18036W        W36240   5.276   5.169   0.014 -0.1339 -0.1631  0.0841
18037W        W36241   5.655   6.458  12.983  0.2205 -0.0478 -0.1164
18038W        W36242   7.188   2.842  15.014 -0.0303 -0.2982  0.0600
18039W        W36243   9.441   0.040   1.944  0.0337  0.0442  0.2601
18040W        W36244   2.827  10.190   4.788  0.2454  0.2456  0.4703
18041W        W36245   9.153   5.379  14.593 -0.1960 -0.3497  0.1066
18042W        W36246  16.102   5.570   2.281  0.0098  0.1554 -0.0838
18043W        W36247  11.160   0.644  13.528  0.2340 -0.3097  0.0049
18044W        W36248  17.588   4.705   2.963 -0.1231 -0.3743  0.1296
18045W        W36249   4.377   0.496   2.688  0.2982 -0.1345  0.0757
18046W        W36250   5.523   6.993   5.779  0.0860 -0.0017  0.1414
18047W        W36251  15.985   5.063  15.051 -0.2464  0.0616 -0.0437
18048W        W36252   3.490   7.164  10.952 -0.0788  0.0426 -0.0074
18049W        W36253  12.796   4.375  14.845  0.2479  0.0903 -0.0653
18050W        W36254  11.388   2.889   3.771 -0.1900 -0.0708 -0.1490
18051W        W36255   7.620  16.634   3.436  0.4352  0.3184  0.2620
18052W        W36256  16.689   8.999  12.542 -0.1153 -0.0289  0.0377
18053W        W36257   7.915  11.983   3.325  0.0896  0.2793  0.1117
18054W        W36258  11.831  17.944   4.297  0.0490  0.2900  0.2023
18055W        W36259  14.941   2.294  11.473  0.0246  0.0146  0.0766
18056W        W36260   1.737   3.876   1.741 -0.0514  0.1006  0.0428
18057W        W36261  15.186   2.017  13.067  0.3403  0.0366  0.0082
18058W        W36262  17.252   2.179   1.233  0.0638  0.0474  0.1964
18059W        W36263   0.420  13.011  15.449 -0.0055  0.1467  0.1352
18060W        W36264   7.254   3.698  14.529  0.3049 -0.4187 -0.2231
18061W        W36265   5.961  13.586   2.238 -0.2328 -0.0392 -0.1866
18062W        W36266  13.256   6.072  12.974 -0.1553  0.3063 -0.0671
18063W        W36267  15.713  11.236   2.288 -0.1239  0.1347 -0.0144
18064W        W36268   7.152  15.367  11.599  0.0209  0.2635  0.2499
18065W        W36269   3.048   6.431  13.125 -0.1644  0.3163 -0.2106
18066W        W36270  15.342   6.246  14.686 -0.1465  0.0540  0.1353
18067W        W36271   0.079   9.021  13.181 -0.1738 -0.0713  0.0189
18068W        W36272   9.116   8.394   1.592  0.1958  0.4259  0.0904
18069W        W36273   4.799  15.318   3.355  0.0294  0.2322 -0.3226
18070W        W36274  11.298  14.231   3.674  0.2243  0.0873 -0.1086
18071W        W36275  12.645   8.312   1.063  0.0921 -0.0980  0.1304
18072W        W36276  11.142   5.900   4.593 -0.0694 -0.1099  0.3477
18073W        W36277   2.501   9.041   2.942 -0.0608 -0.0445 -0.0825
18074W        W36278  11.190   8.602  12.250  0.2183 -0.1394  0.0147
18075W        W36279   2.261   2.570  13.028  0.1070  0.1994  0.0384
18076W        W36280  14.410   2.909  12.642 -0.0055  0.1525  0.1771
18077W        W36281   5.847   3.205  11.493 -0.0926 -0.0590 -0.3595
18078W        W36282  12.232   9.560   4.812  0.0611 -0.0806  0.1539
18079W        W36283  15.081   7.081   3.492 -0.1483 -0.1214 -0.0989
18080W        W36284   8.876   9.388   0.197 -0.0464 -0.1464 -0.1535
18081W        W36285   2.368  15.978  11.466 -0.0198  0.0037 -0.0576
18082W        W36286  13.499  17.729   2.133 -0.2123  0.1318  0.2786
18083W        W36287   0.235   6.313  11.774 -0.3057 -0.0072 -0.1344
18084W        W36288   7.876  10.900  15.448  0.0009 -0.1808 -0.2604
18085W        W36289  17.750   9.743  14.778  0.2982  0.0415 -0.3610
18086W        W36290   4.175   7.003  11.642  0.1803 -0.2132  0.2294
18087W        W36291  13.935   2.663   3.555 -0.0166 -0.0332 -0.0812
18088W        W36292   5.839  14.314  15.567  0.1829 -0.0606 -0.3058
18089W        W36293  14.773   3.065   4.553 -0.2078 -0.2919  0.0746
18090W        W36294   6.889  15.318  15.214 -0.2496  0.0389 -0.0456
18091W        W36295   8.782  11.461  12.390 -0.3802  0.0753 -0.3526
18092W        W36296  12.975   0.414  15.602 -0.1695 -0.1981 -0.1711
18093W        W36297  13.824  14.268   3.927  0.0897 -0.1208  0.1924
18094W        W36298   6.737  14.823   1.071  0.1940 -0.0063 -0.1701
18095W        W36299   3.374  12.071   4.490 -0.1485 -0.1159 -0.0763
18096W        W36300   8.140   2.764   2.440  0.1275 -0.1730  0.1407
18097W        W36301   1.365   5.977  15.728 -0.1976 -0.2587 -0.3714
18098W        W36302  14.552   1.423   1.218  0.2155  0.0663  0.0823
18099W        W36303   6.950   4.178   0.972 -0.1782  0.1344 -0.3652
18100W        W36304   2.364  16.688   3.949  0.0886 -0.0509  0.0040
18101W        W36305   0.412   2.026  13.878  0.0190 -0.3456  0.0172
18102W        W36306   4.316   9.422   0.063  0.0092 -0.0191  0.1450
18103W        W36307  12.656  16.681  11.824 -0.2324 -0.0386  0.2351
18104W        W36308   6.698   5.947   2.815  0.1256  0.1257 -0.0894
18105W        W36309  17.786  17.228  15.593 -0.2843 -0.2664  0.0606
18106W        W36310  18.340   3.173  13.299  0.1161  0.1781  0.1785
18107W        W36311   8.684   4.038   1.260 -0.0596 -0.0126 -0.4727
18108W        W36312  15.751  13.110   4.040 -0.1026 -0.0341  0.2944
18109W        W36313   6.549  10.430  14.252 -0.0720  0.1590 -0.0994
18110W        W36314   8.097   5.869   0.475  0.1558 -0.0470 -0.0121
18111W        W36315  17.146   7.385  12.170  0.1827 -0.1115 -0.0547
18112W        W36316  14.908  14.741  14.101 -0.0495  0.3199  0.0282
18113W        W36317   2.325   2.031   4.102  0.0639  0.0341  0.1764
18114W        W36318  10.089  16.100  13.396  0.0980  0.0486  0.0545
18115W        W36319  15.148   5.032  13.953  0.1436  0.1140 -0.0166
18116W        W36320   9.441  14.813  12.583 -0.0716  0.1159 -0.0853
18117W        W36321   1.303   9.689   1.982 -0.2322 -0.2306 -0.2065
18118W        W36322  13.367   2.103   2.628 -0.2222 -0.0328  0.2919
18119W        W36323  12.444   3.996  13.199  0.1669  0.1000  0.1476
18120W        W36324  16.848   5.542  12.595  0.2212  0.0592  0.0394
18121W        W36325  12.815   5.747  12.852 -0.2308 -0.0661 -0.2500
18122W        W36326   3.129   6.966   3.585  0.1539  0.2022 -0.1399
18123W        W36327   0.972  13.911   1.966  0.2520  0.0616 -0.0459
18124W        W36328   1.224   6.966  12.197 -0.1158 -0.0378 -0.1620
18125W        W36329   0.553   2.165  11.126 -0.0594  0.0313  0.0929
18126W        W36330   7.016  10.634  15.189 -0.1104  0.0883  0.0856
18127W        W36331   5.601  14.123  14.140 -0.2696 -0.1456 -0.1052
18128W        W36332  15.090   7.487  12.395  0.0482  0.0607  0.0286
18129W        W36333  12.056   5.121  15.013  0.0467 -0.2287 -0.2243
18130W        W36334  10.829  11.729  11.514  0.1537  0.3190  0.0486
18131W        W36335   8.695   0.490  12.380  0.1481  0.1149 -0.1457
18132W        W36336   5.053   6.757   0.111 -0.0419  0.2375 -0.0414
18133W        W36337   0.364   6.458  13.232 -0.2066  0.4792  0.1396
18134W        W36338   6.606  13.473   1.587 -0.1089  0.2991  0.1266
18135W        W36339  17.280   1.749  12.198 -0.2799  0.1757 -0.1271
18136W        W36340   4.269   2.089   1.684  0.1374  0.0056 -0.0659
18137W        W36341   9.168   8.011   5.569  0.0884 -0.3720  0.0107
18138W        W36342   4.575   0.255   3.124 -0.0483  0.1025  0.1210
18139W        W36343  10.802   4.290   2.000 -0.2974 -0.1379 -0.0671
18140W        W36344   2.836  12.576  14.625  0.2476 -0.2227  0.1004
18141W        W36345  17.417   9.584   1.177  0.0225  0.0296 -0.3771
18142W        W36346   9.113   1.564  13.435  0.2547 -0.1035  0.1031
18143W        W36347  11.165   7.562   3.809  0.2219  0.1798  0.1022
18144W        W36348   2.177  18.174  11.548 -0.3550  0.2464 -0.1070
18145W        W36349  11.902   8.020  10.986 -0.1307  0.2050  0.2875
18146W        W36350  17.998   4.921  12.651 -0.0231 -0.2625  0.1536
18147W        W36351   2.065  17.604  13.410  0.3674  0.0293 -0.1263
18148W        W36352  11.016  10.550  14.181 -0.0431 -0.2357 -0.1903
18149W        W36353  10.568   4.705   2.044  0.1930  0.3337  0.0825
18150W        W36354   6.448   7.513   3.292 -0.0302  0.0148 -0.0082
18151W        W36355  11.324   8.438   0.251  0.2527  0.4614  0.1517
18152W        W36356  10.733   7.908   3.732 -0.0686 -0.1010  0.0407
18153W        W36357  15.266   5.088  13.482 -0.2259 -0.2135 -0.0402
18154W        W36358  13.099  17.800   3.713 -0.2022  0.0014 -0.2368
18155W        W36359  14.141  17.321  11.945  0.0499  0.0298  0.2137
18156W        W36360   5.088   9.846   1.647 -0.1120 -0.2248 -0.1559
18157W        W36361   4.281   6.199  14.451  0.2973  0.3228  0.1288
18158W        W36362  12.288  17.095   4.339 -0.1480 -0.1696  0.0157
18159W        W36363  17.981   1.363  15.258 -0.3382 -0.1933 -0.0175
18160W        W36364  15.861   7.120   0.520  0.2557 -0.4629 -0.2107
18161W        W36365  10.943  13.745   1.530  0.0393 -0.0268  0.2616
18162W        W36366   7.463  16.059   2.394  0.1338  0.1337  0.0624
18163W        W36367   1.630  14.557  12.727  0.0105  0.0149 -0.0123
18164W        W36368  15.166  12.488  13.806  0.2237 -0.0725  0.1054
18165W        W36369   0.592   3.419   3.375 -0.1532 -0.0974  0.0167
18166W        W36370  11.077  13.999  14.890 -0.2170  0.1156  0.2239
18167W        W36371   6.559   0.015  13.802 -0.3795  0.1233  0.2541
18168W        W36372  11.613   1.506   3.344  0.1504 -0.1574  0.0845
18169W        W36373  15.833   8.014   0.434  0.4483 -0.0290 -0.1060
18170W        W36374   7.165   5.079   1.405  0.0002 -0.3385  0.0470
18171W        W36375  17.187   0.565  11.406  0.2537 -0.1280  0.2903
18172W        W36376  17.389   0.246  15.657  0.0077 -0.0803  0.1552
18173W        W36377   0.060  10.618  12.487 -0.0004  0.1363  0.0456
18174W        W36378   6.905  11.974  12.776  0.1650  0.2405 -0.0875
18175W        W36379   9.194   0.592  11.431  0.2334 -0.1750  0.4735
18176W        W36380  10.892   6.776   4.326 -0.0419 -0.0867 -0.0219
18177W        W36381  17.980  14.220   2.037 -0.0307  0.1045  0.0574
18178W        W36382   9.261  18.289  10.663 -0.1271 -0.3517 -0.0998
18179W        W36383  14.132   1.289   4.012  0.0664 -0.0165  0.0649
18180W        W36384   4.471  15.650   0.774  0.1141  0.0945  0.0138
18181W        W36385  16.641   3.913  14.103 -0.2533  0.1308  0.1838
18182W        W36386   8.641  10.093   1.499 -0.0003 -0.0194  0.0964
18183W        W36387   4.998  16.378   2.406  0.0988  0.1360  0.1776
18184W        W36388  15.840   5.535   3.251 -0.1475 -0.0270  0.1301
18185W        W36389   5.835  13.128  12.298 -0.0733 -0.3294  0.0193
18186W        W36390   9.171  17.760  15.163  0.4528 -0.0689  0.0092
18187W        W36391  14.575   1.517   3.135 -0.0584  0.0885  0.0238
18188W        W36392   3.302   7.185  13.591 -0.0030 -0.0992 -0.1838
18189W        W36393   4.461   2.516  11.536  0.0872 -0.0584 -0.0425
18190W        W36394   3.408   8.615  10.745  0.3158  0.0133  0.0458
18191W        W36395  14.877  10.413   4.415 -0.1908  0.2864 -0.0952
18192W        W36396  11.258  12.337  10.580  0.0387  0.4442  0.0492
18193W        W36397   0.226  13.070  13.069 -0.0203 -0.1358 -0.0973
18194W        W36398  11.938   5.709  14.357  0.0019 -0.0968  0.2836
18195W        W36399   0.521  11.302  15.428  0.2047 -0.1573  0.0881
18196W        W36400   7.763  11.540   2.642  0.0979 -0.3645  0.0922
18197W        W36401  14.557  11.587   2.728 -0.1592 -0.2851 -0.1013
18198W        W36402   6.111   7.754   3.662 -0.3135 -0.0528 -0.2892
18199W        W36403   2.195   5.525   3.214  0.1871 -0.3296 -0.1685
18200W        W36404   8.954   8.898  13.194 -0.1792 -0.2517 -0.0044
18201W        W36405   5.287   6.629   2.269 -0.0538 -0.0148 -0.1346
18202W        W36406  12.913   9.995   4.901 -0.1613  0.0033  0.1655
18203W        W36407   8.156  13.131   0.908  0.3548 -0.0486  0.4491
18204W        W36408   5.293  12.313  12.343 -0.0409  0.1017  0.1201
18205W        W36409  15.565  15.405   2.318  0.0923 -0.1063 -0.0814
18206W        W36410   2.211   1.960  12.307  0.0310  0.3350  0.1377
18207W        W36411  12.516   4.467   2.827  0.1574 -0.0654 -0.0946
18208W        W36412   7.628   5.147   3.852  0.1994 -0.1713 -0.2149
18209W        W36413   8.069   3.170   2.182 -0.0931  0.1552 -0.1417
18210W        W36414  15.305   4.251   1.910  0.2242  0.1043 -0.0093
18211W        W36415  17.349   5.426  12.618  0.3547 -0.0976 -0.1642
18212W        W36416  10.179  12.572   2.749  0.2201 -0.1391 -0.2811
18213W        W36417  10.226  14.201  15.221 -0.1215 -0.0072 -0.0864
18214W        W36418  16.643   8.297   3.187 -0.3006 -0.0442  0.0549
18215W        W36419  18.339  11.601  13.055 -0.1546 -0.0447  0.0223
18216W        W36420   8.513  14.613  15.717  0.1072  0.2343 -0.2356
18217W        W36421  13.140  11.588  12.077 -0.1339  0.1676 -0.0624
18218W        W36422  18.041   0.071   1.194 -0.0815 -0.2115  0.2418
18219W        W36423  11.970   6.596   2.817  0.1637  0.3112  0.0027
18220W        W36424   1.061  17.162   1.394  0.1911 -0.2102 -0.1629
18221W        W36425  15.512   8.068   4.816  0.0784  0.1387 -0.4416
18222W        W36426  13.996  15.342   1.736  0.1283 -0.1357 -0.1523
18223W        W36427   3.687  12.809   2.968  0.3024  0.0038 -0.1312
18224W        W36428  17.874  13.360   3.205 -0.1445 -0.0118 -0.1738
18225W        W36429   3.402   9.594   4.030 -0.3241 -0.2503 -0.0436
18226W        W36430  15.791   4.464  10.361  0.0454 -0.1837 -0.1413
18227W        W36431  14.281   2.237  15.683 -0.2163  0.2005 -0.0912
18228W        W36432   5.844   0.063  15.524 -0.6049  0.0712 -0.0380
18229W        W36433  14.287   4.536  11.180 -0.0254 -0.1518  0.0913
18230W        W36434  10.992   9.742   5.835  0.0319 -0.0562 -0.1200
18231W        W36435   4.870  15.595  13.304  0.2611  0.1481  0.0256
18232W        W36436  18.091   9.901   3.222 -0.0888  0.0334  0.0360
18233W        W36437  17.587  12.586  15.283  0.2642 -0.0011 -0.2208
18234W        W36438   9.021  15.910  14.096  0.0912  0.0066  0.0397
18235W        W36439   6.861  18.289   3.470  0.0772 -0.3897 -0.2431
18236W        W36440   4.511   0.060   1.479 -0.1240 -0.1196  0.2574
18237W        W36441  13.470  10.793  14.911 -0.1819  0.0587  0.1155
18238W        W36442   3.437   9.867  11.839 -0.1253 -0.2029 -0.0963
18239W        W36443   0.628   3.616   2.447 -0.2564 -0.1032 -0.2148
18240W        W36444   6.652  11.699  13.165 -0.0980  0.1315  0.0517
18241W        W36445   1.443   0.079   3.153  0.2441 -0.0362 -0.4031
18242W        W36446  17.484  17.081  14.611  0.2375 -0.0980  0.2859
18243W        W36447   6.787  11.620   2.248 -0.2955  0.0855  0.0096
18244W        W36448   7.046   9.722   2.187 -0.0052  0.3420 -0.1347
18245W        W36449  10.795  14.245  12.500 -0.0454  0.0425 -0.0359
18246W        W36450   0.121  17.053   2.857  0.1140  0.1077 -0.0214
18247W        W36451   6.498   5.614  13.021  0.1272 -0.2200 -0.2928
18248W        W36452  11.459  10.082   4.034 -0.1861 -0.4694  0.2972
18249W        W36453  14.109  16.640  15.509 -0.0730 -0.5004  0.0087
18250W        W36454  17.142   5.153   0.064 -0.0343  0.0735  0.0094
18251W        W36455   5.348  10.342   0.432  0.0666  0.0086 -0.0992
18252W        W36456   7.727   9.507   2.545 -0.0021 -0.2069  0.2398
18253W        W36457   7.282  11.566   5.544  0.0359 -0.0943 -0.3879
18254W        W36458   0.353   5.762   2.086  0.1572 -0.0882  0.0004
18255W        W36459   7.988   4.854  11.379 -0.1002  0.2863 -0.1050
18256W        W36460   3.949   9.223   0.363 -0.1508 -0.4022 -0.0053
18257W        W36461   2.213   1.921   0.004 -0.1513  0.1866  0.1562
18258W        W36462   7.392  13.582   3.236 -0.0662  0.0130 -0.0038
18259W        W36463  15.058   8.991   3.840 -0.2320  0.1171 -0.0187
18260W        W36464  10.804   2.970   4.456 -0.1963  0.5061 -0.1712
18261W        W36465   9.438   9.028  12.038 -0.1958  0.4711 -0.1064
18262W        W36466   0.447  10.252   4.456 -0.0189  0.0732 -0.2691
18263W        W36467   2.392  14.392   0.205 -0.2214 -0.0339 -0.0585
18264W        W36468   1.636  16.826   4.606 -0.1806 -0.0966  0.1914
18265W        W36469  17.442   9.215  11.507 -0.3160  0.0054  0.0807
18266W        W36470  12.135   2.012  10.865  0.3461  0.1465 -0.2612
18267W        W36471  10.591   1.179  11.710 -0.1510 -0.3032 -0.1628
18268W        W36472   0.626   5.047  15.252  0.1093 -0.1598 -0.1559
18269W        W36473   1.123   4.029   0.348 -0.1712 -0.2376 -0.1088
18270W        W36474   4.577   2.763   2.159 -0.2127  0.0273 -0.2274
18271W        W36475  16.495  16.553   0.099  0.2024 -0.0450  0.0115
18272W        W36476   6.336   1.119   0.367 -0.1719  0.1794 -0.0584
18273W        W36477   4.929  15.275  13.730 -0.0673  0.3461 -0.0487
18274W        W36478   7.297   0.594  12.319 -0.1261 -0.0636 -0.0458
18275W        W36479   7.874  16.227  12.489  0.3284  0.2156 -0.4033
18276W        W36480  16.795  10.577  13.444 -0.0666  0.0931 -0.0570
18277W        W36481  16.532  12.555   3.358 -0.2422  0.1611  0.2245
18278W        W36482   5.955  12.498   5.028 -0.1483  0.0833 -0.3314
18279W        W36483   8.180  15.753   1.477  0.3921  0.1288  0.1307
18280W        W36484   5.951  13.234  12.904  0.2180  0.0500 -0.0810
18281W        W36485  12.571  13.623  13.301  0.1651  0.0564 -0.0823
18282W        W36486  15.004  15.300  13.447  0.0954  0.3484  0.1367
18283W        W36487   5.539  12.370  15.258 -0.1545 -0.1226  0.0002
18284W        W36488   7.360   9.991  11.539  0.0871 -0.2677  0.1740
18285W        W36489   5.121   6.136  13.285 -0.0672  0.0917  0.0208
18286W        W36490  12.811  14.670   4.638 -0.1156  0.0226 -0.0757
18287W        W36491   0.040  13.119  11.496  0.0024 -0.0702 -0.1387
18288W        W36492   5.120  10.967   3.063  0.1286 -0.2856  0.5024
18289W        W36493  13.628   3.846   1.337  0.1829 -0.0391 -0.2071
18290W        W36494  11.394   5.138   1.611  0.0320  0.0315 -0.1972
18291W        W36495  17.120   1.572   3.013  0.0139  0.0711  0.0091
18292W        W36496  17.601  10.912   5.350  0.2056  0.0084 -0.1172
18293W        W36497   0.242   3.458  12.880  0.1567 -0.0863 -0.0941
18294W        W36498   1.895  11.037  11.806 -0.0845 -0.4158 -0.1584
18295W        W36499  12.982   1.937   0.298 -0.4313  0.0225  0.1076
18296W        W36500  13.396  14.324   4.420 -0.0048 -0.1104 -0.1336
18297W        W36501   0.924  15.567   2.105  0.0579  0.1212 -0.0218
18298W        W36502   0.391  17.156  14.102  0.1944 -0.3126 -0.2535
18299W        W36503   9.506   8.269  12.539  0.0513 -0.1364 -0.1977
18300W        W36504  15.002   0.024  15.125  0.0629 -0.1415 -0.3765
18301W        W36505  12.110   6.603   3.639 -0.3005  0.0185  0.0787
18302W        W36506  16.902   1.991   4.266  0.1636 -0.1071  0.0211
18303W        W36507  11.086  13.283  15.113  0.2163  0.2283 -0.0586
18304W        W36508  15.060   6.657   2.384  0.3133  0.0431 -0.1109
18305W        W36509   6.035   3.530  15.075  0.2259  0.2070 -0.0290
18306W        W36510   1.183   6.845   3.294 -0.1372  0.1272  0.2068
18307W        W36511   4.744  10.223   1.573 -0.0327  0.1853 -0.1676
18308W        W36512   3.823  10.602  15.592  0.0578  0.2999  0.0757
18309W        W36513  11.565   9.118   5.169  0.0140  0.0646 -0.1235
18310W        W36514   8.956   0.163  11.504  0.2080  0.1210 -0.3172
18311W        W36515   8.169  11.699  13.632 -0.1379 -0.0953 -0.0988
18312W        W36516   8.490   9.089   4.432 -0.0527  0.2359  0.1688
18313W        W36517   1.897   4.581  11.586  0.2938  0.0307  0.3497
18314W        W36518  13.555  17.564  13.642  0.0012 -0.0416  0.0774
18315W        W36519  10.314   1.672  11.553  0.0842 -0.3327  0.0220
18316W        W36520  14.991   5.192   4.616  0.2929 -0.1239 -0.2869
18317W        W36521   3.949  14.306   0.860  0.1063  0.0644  0.0097
18318W        W36522   1.585  17.229   0.158  0.4401  0.1688  0.0415
18319W        W36523   5.669  16.946   1.597 -0.1655 -0.0764  0.0788
18320W        W36524   6.792  11.901  15.320  0.0177  0.0026 -0.2346
18321W        W36525   5.690  17.825   4.529  0.4414 -0.1077  0.0347
18322W        W36526  17.833   2.500   0.759 -0.0023 -0.2185  0.0564
18323W        W36527   8.293   2.446   3.280  0.2482  0.2236 -0.0216
18324W        W36528  12.418   9.949  15.563  0.1114  0.2717 -0.2655
18325W        W36529  10.480  11.613  13.423 -0.1342 -0.3089 -0.0256
18326W        W36530  17.022   2.109  14.285  0.2306 -0.2432  0.2227
18327W        W36531   6.431   8.572  14.287 -0.2546 -0.0845  0.2566
18328W        W36532  16.171   4.433  10.806 -0.0999  0.0819  0.1103
18329W        W36533  17.329  11.748  14.113  0.1426  0.0213  0.1546
18330W        W36534  16.639   8.571   4.200  0.0207 -0.1540  0.0295
18331W        W36535   4.464   4.704   5.729  0.2124 -0.3434 -0.1177
18332W        W36536  15.035  14.674   4.072  0.1278  0.1451  0.0714
18333W        W36537   0.232   8.916   3.863  0.2260 -0.1986  0.2744
18334W        W36538   1.893  15.594   0.686  0.1002 -0.2170  0.0056
18335W        W36539  16.742  12.160   3.095 -0.0067  0.2526 -0.2723
18336W        W36540  13.059  13.772   0.994 -0.0099  0.2730 -0.2576
18337W        W36541  10.309   9.581  11.670 -0.0377 -0.0004 -0.2810
18338W        W36542  15.147   0.450  10.775  0.0110 -0.1925  0.0697
18339W        W36543  14.967  11.100   5.155 -0.1723  0.0885  0.1747
18340W        W36544  11.095  14.549   1.895  0.1440 -0.1556  0.1678
18341W        W36545   9.603   9.256   0.785 -0.2656 -0.3043 -0.0370
18342W        W36546  13.019   6.406   4.340 -0.0704 -0.2031 -0.1310
18343W        W36547  10.940  14.387   3.980  0.2794  0.3100  0.0326
18344W        W36548  10.019  10.184  11.031  0.1298 -0.0136  0.1232
18345W        W36549  14.405   7.413   2.804 -0.1503  0.1421  0.0556
18346W        W36550   7.189   5.380   2.325  0.2096  0.1959 -0.2786
18347W        W36551   1.681  17.962   2.968  0.1428  0.1793 -0.0280
18348W        W36552  17.362   1.197  13.129 -0.3295 -0.1260 -0.2287
18349W        W36553   0.522  16.090  11.174  0.0447  0.2332 -0.1652
18350W        W36554   5.861  10.257   2.700  0.1555 -0.0313 -0.0670
18351W        W36555   9.113   2.663  15.238  0.0142 -0.0883 -0.0975
18352W        W36556   1.888  14.196  15.364 -0.1411  0.3272  0.0915
18353W        W36557  16.091  10.637  14.632  0.0514  0.3756 -0.1857
18354W        W36558  10.105   3.842   0.832  0.0713 -0.1187 -0.2876
18355W        W36559   0.787   8.688  12.584 -0.1842 -0.1563 -0.1198
18356W        W36560  14.867  10.730  11.989  0.0118 -0.0834 -0.2448
18357W        W36561   9.571   9.917   0.202  0.1235  0.0360 -0.2115
18358W        W36562   2.702  10.528  13.702 -0.1780 -0.2717 -0.0185
18359W        W36563  16.885  10.300  10.954  0.0208 -0.0145 -0.0221
18360W        W36564   0.541   3.867   0.492  0.3000  0.0824  0.1857
18361W        W36565  18.175  11.577   0.576 -0.1709 -0.0933 -0.2828
18362W        W36566  13.018   7.615  12.286 -0.0980  0.0443 -0.0831
18363W        W36567  12.149   0.416   1.929 -0.0456  0.4274 -0.1179
18364W        W36568  10.610  10.685   3.591  0.0833  0.1336 -0.0965
18365W        W36569   3.844   0.531   4.582  0.0036 -0.0833  0.0088
18366W        W36570  12.279   5.941   5.291  0.3148  0.0362  0.0068
18367W        W36571  14.683  13.305   2.560  0.2283 -0.0840 -0.0501
18368W        W36572   1.221   7.420  11.327 -0.1622 -0.2071  0.1495
18369W        W36573  17.264  11.951  15.006  0.1830  0.3054 -0.1981
18370W        W36574   8.522  14.008  14.020  0.0100  0.2996  0.2435
18371W        W36575   3.280   1.512   0.207  0.2633  0.2011  0.0174
18372W        W36576   6.253  15.557   4.565  0.0094  0.3104  0.0972
18373W        W36577   1.209   8.299   5.736  0.0478 -0.0762 -0.2496
18374W        W36578   4.222   5.499   0.359  0.3001  0.0275 -0.0818
18375W        W36579   8.823   2.597  13.258  0.4321 -0.1579 -0.0082
18376W        W36580   8.333   2.852   5.009  0.3009  0.0038 -0.3529
18377W        W36581   2.414   1.943   3.377  0.1260 -0.1804  0.1524
18378W        W36582   7.677  10.074  10.351 -0.0565 -0.0530  0.0075
18379W        W36583  11.698   8.986   3.871 -0.0006  0.2058  0.0322
18380W        W36584   9.353   2.967  14.421  0.1392 -0.3422  0.1316
18381W        W36585  12.165  14.599  13.676 -0.1209 -0.0553  0.0681
18382W        W36586  15.953  15.331   3.741  0.1539  0.0602 -0.1765
18383W        W36587  17.082  11.536   2.223 -0.0225 -0.0344 -0.3157
18384W        W36588   1.287  15.910  13.226 -0.1971  0.1539 -0.0539
18385W        W36589  16.169  13.646  11.854 -0.1495 -0.1253  0.0949
18386W        W36590   0.940  12.129   1.458  0.0482  0.1347 -0.0132
18387W        W36591  14.569   1.724   0.748 -0.2347 -0.0874  0.1786
18388W        W36592  12.235  13.148   2.376 -0.1202  0.2990 -0.1592
18389W        W36593   7.751   7.007   1.209 -0.0218  0.1495  0.1837
18390W        W36594   6.886   4.071   2.448  0.1392  0.0214 -0.0510
18391W        W36595  15.460  16.312  12.253  0.1245 -0.0740 -0.0748
18392W        W36596   7.614   7.645  12.687 -0.0453  0.0342 -0.1230
18393W        W36597   8.398   2.419  14.060  0.0361 -0.3212  0.0973
18394W        W36598  15.758   2.045  13.703  0.0208 -0.1010 -0.1066
18395W        W36599   4.033  17.989   0.173  0.3809 -0.0116 -0.0214
18396W        W36600   1.765   7.804   0.091 -0.0219  0.1507 -0.1716
18397W        W36601   5.132   9.956   1.174  0.3250  0.1692 -0.1103
18398W        W36602   8.568  15.746  14.037 -0.0084 -0.2961 -0.1471
18399W        W36603   8.583   9.453   4.763  0.3075  0.3099 -0.2993
18400W        W36604   4.871   3.328  12.581  0.0247  0.2430 -0.2929
18401W        W36605   1.576  14.214   5.092  0.1143  0.1976 -0.0435
18402W        W36606   4.455   3.425  15.114 -0.1752  0.1322  0.0813
18403W        W36607  11.409  10.143  15.654  0.1582 -0.0211  0.1317
18404W        W36608   1.245   2.138  11.202  0.0378 -0.2144  0.1433
18405W        W36609  13.089   4.634   0.853  0.1864  0.2118  0.0917
18406W        W36610  18.076  15.322  12.256 -0.0517  0.0991 -0.0498
18407W        W36611  12.691   0.107  13.601 -0.0246 -0.1640  0.1647
18408W        W36612  12.155   3.595  14.205  0.3138 -0.3167  0.0120
18409W        W36613   8.619  12.659  15.725  0.0895 -0.0092 -0.3244
18410W        W36614  14.018  13.536   3.544 -0.0551 -0.1494  0.2632
18411W        W36615  18.079  11.441   4.553 -0.1168 -0.1889 -0.2138
18412W        W36616  13.165  14.862   2.455  0.0439  0.0829 -0.0224
18413W        W36617   2.208   5.888   2.872  0.0481 -0.0311  0.1171
18414W        W36618  11.775   9.291   4.459  0.2201  0.0249  0.1147
18415W        W36619   5.091  10.015   4.058 -0.2479 -0.2280  0.4107
18416W        W36620  18.003   9.663   4.154  0.0515 -0.0666 -0.2241
18417W        W36621  17.894   0.745  14.372  0.0380 -0.1169  0.2192
18418W        W36622  12.046  12.742   3.580  0.2933 -0.1875  0.0317
18419W        W36623  18.151  17.150   3.549  0.0238  0.1378 -0.2887
18420W        W36624   0.743   2.773   1.261  0.0604 -0.0709 -0.1597
18421W        W36625  15.361   0.823   0.279  0.0948 -0.0348  0.0186
18422W        W36626   7.537  12.137   0.154  0.4479  0.1015  0.1219
18423W        W36627   0.377   2.316  13.298  0.1842 -0.2131 -0.1016
18424W        W36628  15.833  17.069  13.852  0.0885 -0.1571 -0.0392
18425W        W36629  10.863  11.325   2.289  0.1119  0.1331  0.0510
18426W        W36630  14.983  18.015  14.113  0.0632 -0.0841  0.1401
18427W        W36631   2.796   3.225   1.703 -0.1269 -0.4451  0.0269
18428W        W36632   9.458   8.379   1.162 -0.2493 -0.0758  0.0931
18429W        W36633  13.337   6.604   6.202 -0.0643  0.0156  0.2396
18430W        W36634   8.235   1.245   3.875 -0.0387 -0.3345 -0.2447
18431W        W36635   0.978  17.664   3.685 -0.2552  0.0564 -0.0048
18432W        W36636   9.938   6.116  12.690 -0.3466  0.1731  0.0079
18433W        W36637   0.717  12.514  11.506  0.1200  0.2220  0.1352
18434W        W36638   6.485  15.088  15.475 -0.1273 -0.0359 -0.0520
18435W        W36639  15.487  14.700  12.424  0.1484  0.0154 -0.0209
18436W        W36640   3.358  14.603   1.578 -0.1511 -0.1956  0.0879
18437W        W36641  11.498  10.865  15.094  0.3962  0.2644  0.1401
18438W        W36642   4.296   8.794  11.837 -0.0729  0.0309  0.1301
18439W        W36643  13.783   5.069  12.306 -0.1941 -0.1560  0.3171
18440W        W36644   4.704   0.862  13.047  0.1747 -0.0275  0.1176
18441W        W36645  13.191  14.061   4.910 -0.0666  0.5047  0.4532
18442W        W36646   6.562  13.497  11.801  0.2539 -0.2225  0.1868
18443W        W36647  13.814  14.176   2.588 -0.0430  0.0594 -0.2601
18444W        W36648  14.907  15.959  15.109  0.2869  0.3092 -0.2976
18445W        W36649  15.800   0.360   1.550  0.2057  0.1362 -0.3428
18446W        W36650  11.887   6.297  12.019 -0.2295  0.3341 -0.1867
18447W        W36651   6.754   7.297  12.504 -0.1357 -0.2415 -0.0002
18448W        W36652   7.973  12.939   4.444  0.0873  0.2677 -0.0074
18449W        W36653   2.047  16.676  14.243  0.0234  0.0146  0.0887
18450W        W36654  11.072   6.022   1.479 -0.3400  0.0891 -0.3689
18451W        W36655   7.164   0.208  11.914 -0.0907 -0.0474 -0.0105
18452W        W36656   3.402   5.792   3.831  0.2445  0.1185 -0.2790
18453W        W36657   5.540   4.326  11.143  0.0555  0.0412  0.2806
18454W        W36658  14.673   7.326  11.504 -0.0213 -0.0390 -0.0195
18455W        W36659   7.777   9.005   2.324 -0.1583  0.0280  0.0862
18456W        W36660  14.094   7.198  10.704 -0.0344 -0.0607 -0.2269
18457W        W36661  16.868  17.936   1.351  0.1286 -0.2325 -0.2467
18458W        W36662   8.181   3.788  14.677  0.0587  0.0918  0.0826
18459W        W36663  12.970  12.817  11.510 -0.0843 -0.0247  0.3319
18460W        W36664  15.865  15.067   1.503 -0.1084  0.2716  0.1020
18461W        W36665  13.656   0.373  11.445  0.2436  0.0468  0.1973
18462W        W36666   7.779   2.100   5.537  0.1527 -0.1373  0.0695
18463W        W36667   1.474   3.410  13.671 -0.0180  0.3026 -0.1852
18464W        W36668  11.739   0.916  12.926  0.3461  0.0229 -0.0555
18465W        W36669   7.517   6.718  12.955  0.0411 -0.0448 -0.0895
18466W        W36670   5.157   8.088  14.211 -0.0277  0.2043 -0.5549
18467W        W36671   6.296  12.143   3.042 -0.1243  0.0183 -0.2888
18468W        W36672   9.192   1.853  14.908 -0.0649  0.0669  0.1696
18469W        W36673  18.103   4.659  14.898 -0.4039 -0.1229 -0.0133
18470W        W36674   2.303   1.060   0.221  0.4188 -0.0359  0.2145
18471W        W36675  10.517   2.460   3.324  0.1830  0.1055 -0.0250
18472W        W36676  11.243   2.081  12.502  0.5645  0.0292  0.1567
18473W        W36677   4.626  10.791  13.436  0.3506  0.1528 -0.2368
18474W        W36678  12.188   3.805  11.626  0.0427 -0.0914 -0.1185
18475W        W36679  11.202   0.858  15.359 -0.3815  0.2557 -0.1621
18476W        W36680   9.186  10.475   2.459  0.1442 -0.1568  0.0862
18477W        W36681   5.619   0.441   0.192 -0.0067  0.2750  0.1914
18478W        W36682   2.669  11.313   3.658 -0.0659  0.0637  0.4315
18479W        W36683  10.226  11.831  12.335  0.0470 -0.0256  0.0414
18480W        W36684   9.277  17.898   1.222 -0.2938 -0.0610 -0.3332
18481W        W36685  17.014  18.170  14.865 -0.2098  0.0228  0.0301
18482W        W36686  16.356   9.356  12.568  0.2793 -0.0525  0.1326
18483W        W36687   9.441  15.798  14.427 -0.0121 -0.0574  0.3057
18484W        W36688   9.541  10.267  12.512  0.2185  0.3482  0.1475
18485W        W36689   9.718  14.085  11.712 -0.1666  0.0275 -0.1501
18486W        W36690   2.606   2.689  14.785  0.1591 -0.0870  0.0463
18487W        W36691   1.856   8.355  15.571  0.1194 -0.0446  0.0028
18488W        W36692   9.881   3.834  12.247 -0.1248 -0.1247  0.1144
18489W        W36693  11.981  13.433   1.924 -0.1522 -0.1867  0.2162
18490W        W36694  17.753  15.375  15.378  0.3233  0.0088 -0.0282
18491W        W36695   7.246  13.155   2.315  0.1591  0.1795  0.0868
18492W        W36696  14.527  14.819   4.773  0.0725  0.2758  0.3809
18493W        W36697   2.471   7.424   1.146  0.1118  0.0801  0.0437
18494W        W36698  15.041  16.206   2.236  0.1384 -0.2192 -0.2471
18495W        W36699  13.370  15.626   2.663  0.0782 -0.0022 -0.3057
18496W        W36700   0.823  13.723   3.322 -0.1766  0.5083  0.0624
18497W        W36701  10.590   2.383   3.836  0.0720  0.2292 -0.3119
18498W        W36702   2.538   5.340  11.784  0.3726 -0.0925  0.3302
18499W        W36703   6.972  10.870  13.788 -0.1138 -0.1969 -0.3461
18500W        W36704  16.218   3.687  13.867  0.1686 -0.1366 -0.1926
18501W        W36705  12.507   8.028   3.377  0.0002  0.2479 -0.1297
18502W        W36706  12.739   1.142   5.420  0.0157 -0.1273  0.2384
18503W        W36707   4.728  17.595   3.766 -0.0252 -0.5037  0.0769
18504W        W36708   0.813   8.666  11.578 -0.1277 -0.0763 -0.1956
18505W        W36709  15.065   7.422  12.931  0.1121  0.0287  0.0988
18506W        W36710   0.418   3.546   4.388 -0.0696  0.1730  0.1008
18507W        W36711   7.206   8.667   0.097 -0.1782  0.4170 -0.1972
18508W        W36712  11.405  13.178   0.247 -0.1157  0.1547 -0.0875
18509W        W36713   1.714   2.641   2.293 -0.2614  0.1756 -0.2006
18510W        W36714  17.427   0.445  13.982  0.0810 -0.1401  0.4044
18511W        W36715  15.222   0.439  13.731 -0.1406 -0.2244 -0.1363
18512W        W36716   2.036  14.252   2.496 -0.0544  0.1541 -0.2444
18513W        W36717  15.569  17.772   4.532  0.1135 -0.2769 -0.0961
18514W        W36718  15.897  17.715   1.393  0.1920  0.1042 -0.2021
18515W        W36719  14.122  16.566   2.473  0.0758  0.0388 -0.0319
18516W        W36720  12.544   5.045   1.286  0.1233 -0.4896 -0.0445
18517W        W36721  16.852  17.044   4.742 -0.0958  0.0249 -0.2162
18518W        W36722   8.173  16.862   0.632  0.1367 -0.0016  0.2397
18519W        W36723  17.001   5.200   2.979 -0.4325 -0.0167 -0.1657
18520W        W36724   9.421  17.276   2.709 -0.0721  0.1427 -0.2692
18521W        W36725  11.515   5.841   1.234 -0.0949  0.4865  0.1793
18522W        W36726   8.686   6.336   3.195  0.1505 -0.0123  0.0632
18523W        W36727  12.173   4.021  15.449 -0.2517  0.0718 -0.1230
18524W        W36728   1.145  13.499   3.662  0.0254  0.4637 -0.1144
18525W        W36729  14.804  11.900  11.202 -0.0500  0.2231  0.1352
18526W        W36730   4.986   3.670  13.395  0.1182 -0.1386 -0.2995
18527W        W36731  12.886  11.927  13.643  0.0605  0.1035 -0.2833
18528W        W36732  15.334  16.395   1.258 -0.3305 -0.0493  0.0263
18529W        W36733  10.496   4.245  12.035  0.0522 -0.3308  0.0685
18530W        W36734   3.255  17.281   4.073 -0.1447  0.2224  0.1882
18531W        W36735  14.576   3.726  11.576  0.0728 -0.0275  0.0264
18532W        W36736   9.226  11.226  15.062  0.3167 -0.2774 -0.2042
18533W        W36737  10.686  13.980   3.089  0.2370 -0.2152 -0.0915
18534W        W36738   8.436   0.425   4.220  0.0524  0.0184  0.1880
18535W        W36739   0.851   3.703   4.738 -0.1095 -0.3212  0.0545
18536W        W36740  10.282   5.886   3.402  0.0345 -0.0742 -0.0550
18537W        W36741  16.240   5.537   0.837 -0.2561  0.1136 -0.1009
18538W        W36742  17.666   1.247  14.531 -0.0431  0.1246 -0.0375
18539W        W36743  15.159  13.907  13.502  0.1022 -0.0928 -0.4417
18540W        W36744   7.477   3.313  14.960 -0.1760  0.0892 -0.0968
18541W        W36745  14.516   9.114   2.158  0.1288  0.0731 -0.1923
18542W        W36746   7.406   0.167   4.675  0.0523  0.0945 -0.1440
18543W        W36747  14.899   7.573  14.429 -0.1803 -0.1181  0.2202
18544W        W36748  16.251   1.253  13.705  0.0808  0.3650  0.2570
18545W        W36749  17.015  14.435  12.365  0.0848  0.2101  0.2925
18546W        W36750   5.367  18.029  11.367  0.0044  0.0884 -0.1029
18547W        W36751  17.448   7.380  13.321  0.2492  0.0760  0.2994
18548W        W36752  15.207   9.544   2.329  0.0374  0.3034 -0.0078
18549W        W36753   8.692   0.681  12.863 -0.1512 -0.3302 -0.0903
18550W        W36754  11.977  13.890  15.065  0.1625 -0.1018 -0.2730
18551W        W36755  11.747  16.114   3.458  0.1306  0.1114  0.1137
18552W        W36756   5.583   8.582   2.197 -0.2064 -0.1574  0.2468
18553W        W36757  16.826   2.985   2.676 -0.3129  0.3483  0.0118
18554W        W36758   5.494  12.483  14.726 -0.0378  0.2662 -0.3900
18555W        W36759  17.722  13.659   4.750  0.2510 -0.2108  0.1419
18556W        W36760  10.866  14.995   2.448 -0.0555  0.0753 -0.2521
18557W        W36761   0.217   7.606   2.706  0.0868 -0.0071 -0.2876
18558W        W36762   1.641  15.122  11.539 -0.1500 -0.2763 -0.1613
18559W        W36763   8.013  17.176  11.306  0.1821 -0.2031 -0.1952
18560W        W36764   3.593   0.117   0.532 -0.2639 -0.2363  0.1626
18561W        W36765   5.091  13.873  13.712  0.1321 -0.0649  0.2902
18562W        W36766   8.582  13.120   3.053  0.0217 -0.1270 -0.0173
18563W        W36767  13.915  17.730  13.295 -0.0807 -0.2277  0.1485
18564W        W36768   5.009   1.056  15.204  0.6522 -0.0313 -0.1491
18565W        W36769  16.938   6.642   2.041  0.1448  0.1068 -0.0452
18566W        W36770   9.262   1.361  12.639 -0.2079 -0.3292  0.0041
18567W        W36771   7.821  12.622  11.118  0.1105 -0.0370  0.1286
18568W        W36772   7.834   7.622  11.367 -0.1273  0.0541 -0.1923
18569W        W36773  10.051  11.799   2.645  0.0354 -0.2602 -0.0492
18570W        W36774   1.729   9.444  13.213 -0.1076 -0.1764 -0.2631
18571W        W36775  11.037  11.988  15.559  0.1507 -0.0576  0.0389
18572W        W36776   4.528  18.156   0.142  0.1253 -0.2045  0.1560
18573W        W36777   7.680  11.306   5.235  0.2575  0.2816 -0.0812
18574W        W36778   0.608  16.601   3.530 -0.0503 -0.0596  0.0101
18575W        W36779   9.447   0.051   0.929  0.2589  0.0964  0.1594
18576W        W36780   2.074  17.281  11.499  0.0363  0.4083  0.1236
18577W        W36781  18.360   0.350   2.024 -0.0702  0.0421 -0.1544
18578W        W36782  17.517  11.943   0.190 -0.1087 -0.1402  0.0703
18579W        W36783   0.147   0.212  11.203 -0.2239 -0.1452 -0.0965
18580W        W36784  14.117   7.756   3.024 -0.1980  0.0170  0.3097
18581W        W36785  12.141  16.689   1.288 -0.0910  0.0641 -0.1350
18582W        W36786  10.324   2.903   0.767 -0.0372 -0.1958  0.1596
18583W        W36787  14.353   5.786  15.444 -0.0860  0.3577 -0.0596
18584W        W36788  16.285   3.645   2.177  0.0015  0.2613 -0.1640
18585W        W36789  17.036   8.056  12.096 -0.0265 -0.1423  0.0926
18586W        W36790   5.661   1.782  11.720  0.4500 -0.2084  0.0679
18587W        W36791  10.768  14.298  13.660 -0.2105 -0.0589  0.2019
18588W        W36792  12.356   7.761   5.966  0.0434 -0.1525  0.1904
18589W        W36793  17.794   0.759  15.312  0.0254  0.0611 -0.0282
18590W        W36794  10.679   2.222  14.867  0.1792 -0.0305 -0.1224
18591W        W36795  12.512  11.293  10.283 -0.1138 -0.1326 -0.2551
18592W        W36796  15.342   5.289  14.394 -0.3611 -0.1404  0.1993
18593W        W36797  15.690  16.947   3.129  0.0406  0.0189 -0.0029
18594W        W36798  12.821   8.929  14.418 -0.2881  0.1478 -0.2997
18595W        W36799   6.342   8.222   4.894 -0.1025  0.1288 -0.0385
18596W        W36800   7.827  15.991   4.880  0.0672 -0.2862  0.1809
18597W        W36801   9.504   0.609  14.856  0.1263  0.0850  0.0815
18598W        W36802  11.559   0.273   3.624 -0.0725 -0.3646 -0.2732
18599W        W36803  14.272  11.233  13.269  0.0563 -0.0403  0.1972
18600W        W36804   1.138   9.317   1.671 -0.1445  0.0055  0.0158
18601W        W36805  14.575   4.468  12.808  0.2625  0.1534  0.0953
18602W        W36806   4.093   8.232   0.560 -0.4073  0.0792 -0.0933
18603W        W36807   4.390   4.167   2.028 -0.0829 -0.0161 -0.1561
18604W        W36808  11.359  16.619  12.642  0.0956 -0.0933  0.1184
18605W        W36809  15.936   7.533  12.720 -0.2944 -0.2475  0.2903
18606W        W36810   0.162   6.480   4.650 -0.4046 -0.3105 -0.0273
18607W        W36811   8.617  13.596  12.503 -0.3745 -0.0762  0.1630
18608W        W36812  15.590  10.148   3.559 -0.2086 -0.2304  0.5038
18609W        W36813   8.655  15.333   0.697  0.0289  0.1311  0.0127
18610W        W36814   4.076  14.689   0.609  0.2064 -0.1337 -0.3911
18611W        W36815   9.294  14.904  12.112 -0.2664  0.0852  0.0959
18612W        W36816   0.175   9.359  11.514 -0.1436 -0.0186 -0.0965
18613W        W36817  15.546   4.754  15.246  0.1080  0.0484 -0.0764
18614W        W36818   9.182  17.467   3.807  0.1988  0.0967  0.0180
18615W        W36819  17.703  14.515   3.428 -0.0213 -0.0204  0.1971
18616W        W36820   3.345  15.609   2.757  0.0733  0.0861 -0.1538
18617W        W36821  14.236   8.857   2.658 -0.1966 -0.2550  0.2315
18618W        W36822   2.137   1.831   2.432 -0.1468 -0.1957 -0.2824
18619W        W36823   5.130  13.333   2.879 -0.0188  0.0411 -0.0629
18620W        W36824   8.984  12.487  14.616 -0.1803  0.0817 -0.3217
18621W        W36825   2.657   3.719   3.402  0.0855  0.3428  0.3160
18622W        W36826  12.546  13.700   0.975 -0.1696  0.0138  0.1217
18623W        W36827  13.169   2.406  13.523  0.1031 -0.1034  0.2884
18624W        W36828   5.102  17.062   4.685 -0.0843  0.0749 -0.0278
18625W        W36829   0.580  18.170  13.834 -0.0002 -0.0438 -0.0642
18626W        W36830  11.767   3.568  11.282  0.0398  0.4340 -0.0966
18627W        W36831   8.043   3.414   5.929  0.3845  0.0177 -0.2314
18628W        W36832  12.423   1.794   1.808 -0.0880  0.0429  0.1967
18629W        W36833  17.324   1.760   2.215  0.0116  0.2880  0.1625
18630W        W36834   9.975  16.433  12.651 -0.0983  0.0845  0.1588
18631W        W36835   9.434   5.998  11.357  0.2377  0.1511 -0.2266
18632W        W36836   8.862   0.186  15.241 -0.2851  0.1714  0.2789
18633W        W36837  15.618   0.199  13.586  0.1714 -0.2605 -0.1106
18634W        W36838   0.803   8.863  12.040 -0.1166 -0.0014 -0.3225
18635W        W36839  14.316  13.080   3.413 -0.1428 -0.0030 -0.1254
18636W        W36840   4.005   7.731   4.246  0.1450 -0.0268 -0.0620
18637W        W36841  16.668  12.505   0.144 -0.1491 -0.0020  0.1682
18638W        W36842  10.751  16.173   3.527 -0.0711  0.1089  0.2454
18639W        W36843   6.378  11.126   4.070  0.0265  0.1105 -0.1720
18640W        W36844  13.849   2.030  15.372 -0.0989  0.3370 -0.0883
18641W        W36845   0.062  16.174   4.539 -0.1116 -0.0423  0.1221
18642W        W36846  13.393   7.308   0.527  0.0959  0.2709  0.0685
18643W        W36847  14.092  18.244   3.962  0.1639  0.0873  0.1733
18644W        W36848  16.709   0.450   3.250  0.3900  0.0318  0.0853
18645W        W36849  16.069   4.178  14.087  0.2478 -0.2312  0.0686
18646W        W36850   1.202  10.818  13.632 -0.0353 -0.0218 -0.0048
18647W        W36851  11.545  14.356   2.243  0.0088 -0.1762 -0.0664
18648W        W36852   3.952  12.211  11.238  0.0305  0.2759 -0.3094
18649W        W36853   3.122  16.387   0.147  0.0333  0.0449  0.0933
18650W        W36854   0.930   5.670   3.951  0.3347  0.0584  0.3404
18651W        W36855   9.789  16.547   4.076 -0.1666  0.2452  0.4254
18652W        W36856  11.201  12.519  12.597 -0.0409 -0.1030 -0.0080
18653W        W36857  12.497  18.050   2.339  0.1468 -0.0816  0.0048
18654W        W36858  12.770   9.620   4.658 -0.2710 -0.1373  0.2424
18655W        W36859  11.828  18.156  15.232  0.0514 -0.1074  0.0040
18656W        W36860   7.886   1.582   0.689 -0.0044 -0.0431  0.0804
18657W        W36861  11.218  15.300   4.375 -0.2988  0.5866  0.0710
18658W        W36862  12.507   0.670  11.703  0.0855  0.0632 -0.1771
18659W        W36863  16.496   7.693   1.017  0.0748  0.1841  0.2921
18660W        W36864  15.783   7.920  13.080 -0.1734  0.0387  0.0639
18661W        W36865   7.065  10.514   3.082 -0.0896  0.0213 -0.1393
18662W        W36866   4.364   9.783  12.596 -0.3002 -0.1016  0.2528
18663W        W36867   2.064  10.438   1.262  0.0604  0.1031 -0.1035
18664W        W36868   9.063  10.977  15.614 -0.0325 -0.5066  0.2949
18665W        W36869   0.981   7.038  11.185 -0.0472 -0.0492 -0.2649
18666W        W36870  11.870   2.348   1.124 -0.0144  0.0953  0.0036
18667W        W36871   7.395   9.649   2.863 -0.0066  0.0510 -0.1759
18668W        W36872   5.208  18.346   3.181  0.1262  0.2389 -0.1546
18669W        W36873   9.711  18.143  11.296 -0.1315  0.0305 -0.0858
18670W        W36874   4.357   0.028  13.948 -0.1733  0.2453  0.0526
18671W        W36875  14.059  18.269  12.127  0.0665 -0.1407 -0.1384
18672W        W36876   7.624  17.097   3.279 -0.2157  0.0078  0.2467
18673W        W36877   1.769   8.795  11.525 -0.2100  0.1588  0.3673
18674W        W36878   1.257  17.644   1.603 -0.0615 -0.0176  0.0490
18675W        W36879   9.243  12.676  15.031  0.1783 -0.4651  0.0256
18676W        W36880   5.306  12.007  10.126 -0.0377  0.0113  0.3151
18677W        W36881  10.721  17.200  11.234  0.0869 -0.0630  0.0203
18678W        W36882   1.581   1.116  12.839  0.1144  0.1991  0.0319
18679W        W36883  11.918   4.262   2.152 -0.1425 -0.0688 -0.1651
18680W        W36884   1.795   4.481  12.748  0.1284  0.2714  0.0520
18681W        W36885  14.270  11.627  12.335 -0.2436 -0.1482 -0.2098
18682W        W36886  15.411   6.992   0.912 -0.0240  0.0805  0.3096
18683W        W36887   7.833   1.672   1.434  0.0903  0.1775  0.0250
18684W        W36888  17.334   0.380   0.957  0.3751 -0.2071 -0.0619
18685W        W36889   1.491  13.190   0.151  0.0175 -0.1089  0.2804
18686W        W36890  12.503  14.592   3.199  0.3350  0.0402  0.1560
18687W        W36891   3.815   1.297   3.397 -0.1046  0.0009  0.2908
18688W        W36892   9.428  13.837  14.239 -0.2031 -0.1772  0.3192
18689W        W36893  15.437  17.537  14.199 -0.1126 -0.0045  0.0688
18690W        W36894   3.791   3.615  13.050 -0.1234  0.3634 -0.1684
18691W        W36895   2.255   4.967  14.917  0.0127  0.3697  0.1655
18692W        W36896   3.587   5.359   0.133  0.1987  0.0120 -0.0632
18693W        W36897   9.764  12.255  15.576 -0.1761 -0.2675  0.1534
18694W        W36898   5.709   6.040   0.576  0.1705  0.1595  0.1672
18695W        W36899  10.849   1.201  12.146  0.1818  0.0339  0.1825
18696W        W36900  11.520   9.813  11.709 -0.1190  0.2189 -0.1676
18697W        W36901  12.226  17.464   0.302  0.3614  0.3222 -0.1889
18698W        W36902  17.937   8.098   4.340 -0.1256  0.2561  0.1378
18699W        W36903  17.313   6.707   4.123  0.3570  0.2840  0.2150
18700W        W36904   2.787  17.667  14.693 -0.0855 -0.0220 -0.1826
18701W        W36905  13.526   6.266   0.120  0.1129  0.0130 -0.0770
18702W        W36906  12.254   9.153   4.372  0.2162 -0.0146 -0.1946
18703W        W36907  14.565   9.623   1.030  0.0885  0.3558 -0.0720
18704W        W36908   2.792   1.191   0.304  0.0482  0.0158 -0.1965
18705W        W36909   5.307   2.344   4.000  0.1124  0.0716  0.1881
18706W        W36910  14.303   6.392   0.670  0.1467 -0.2777  0.1903
18707W        W36911   7.172  17.931  14.488  0.0379 -0.1743 -0.0124
18708W        W36912   5.921  16.569   1.352 -0.3807 -0.3534 -0.0919
18709W        W36913   3.856   2.187  10.485  0.3486  0.0627 -0.0997
18710W        W36914   4.086   3.540  12.082 -0.4540  0.1779 -0.2761
18711W        W36915  12.224  11.622   2.864 -0.2271 -0.2002  0.4030
18712W        W36916  18.158  16.042  14.411  0.2737  0.0149  0.0364
18713W        W36917  12.932   4.636  11.954  0.1076  0.1284  0.0011
18714W        W36918   7.635   4.873   2.966 -0.1855 -0.0781 -0.2076
18715W        W36919  11.340   3.490  12.024  0.1974  0.0578 -0.1504
18716W        W36920  15.617   8.592   4.458  0.0610  0.2615 -0.1602
18717W        W36921   5.185   1.040  14.618 -0.0529  0.3383  0.1623
18718W        W36922  14.932  10.749  13.126 -0.1778  0.0862  0.1341
18719W        W36923   7.551  13.310  15.010  0.0017  0.0893 -0.0075
18720W        W36924  11.731   7.984  14.493 -0.0824  0.2632 -0.1409
18721W        W36925   1.643  10.983   1.876  0.1059  0.0751  0.2604
18722W        W36926  14.249  11.243  14.578 -0.1732  0.1224  0.3358
18723W        W36927  14.660   1.734   4.321  0.1625  0.2274 -0.0201
18724W        W36928  17.965   3.508   2.468  0.0907  0.3958  0.0407
18725W        W36929   8.914   6.127  11.531 -0.1175  0.3111 -0.0382
18726W        W36930  10.783   1.106  13.527  0.0535 -0.2212 -0.0912
18727W        W36931  12.728   4.208  13.846 -0.2304  0.1453 -0.0781
18728W        W36932   9.376   1.338  12.134 -0.0381 -0.2729  0.0987
18729W        W36933  14.245  16.645   1.161 -0.0202  0.1374 -0.0125
18730W        W36934   2.045   3.670  10.442 -0.0167 -0.1463 -0.2707
18731W        W36935   8.630  11.593   2.137  0.0752 -0.2547  0.0898
18732W        W36936   1.967   6.931  14.336 -0.2291 -0.2486  0.0447
18733W        W36937  11.953   0.589   4.578 -0.3677  0.2920 -0.1898
18734W        W36938  10.996  17.535   1.909  0.0052  0.0972 -0.0975
18735W        W36939   2.211  11.960  13.507  0.2446  0.2688 -0.0583
18736W        W36940  15.254   7.821   2.811 -0.0139  0.1501 -0.2746
18737W        W36941  13.902  14.947   5.085  0.1938 -0.0274 -0.0178
18738W        W36942   8.087  15.549   1.890 -0.3275 -0.1152  0.2380
18739W        W36943  14.579   0.567   3.239  0.1192 -0.1731 -0.1402
18740W        W36944   9.685   7.813  15.220 -0.1243 -0.1470  0.0502
18741W        W36945   2.487  14.571  11.693  0.0729  0.1058  0.0539
18742W        W36946  17.460   9.634  12.000 -0.0311 -0.2237 -0.2666
18743W        W36947   7.469   4.918  11.021  0.1081 -0.2632  0.0828
18744W        W36948   2.944   8.439   2.205  0.0898 -0.2173  0.4603
18745W        W36949  17.014  16.018   3.562 -0.0198  0.4668  0.1869
18746W        W36950  17.338   7.201  11.612  0.3787  0.2847  0.1490
18747W        W36951  17.149  18.375   2.279  0.1195 -0.1611  0.0691
18748W        W36952  12.039   3.175  14.543 -0.1481 -0.2347 -0.2319
18749W        W36953   1.606   9.646  15.057  0.1956  0.1624 -0.0362
18750W        W36954   2.547   9.975   1.239 -0.0568 -0.2833 -0.0558
18751W        W36955   7.649   0.656  15.023  0.4277 -0.0693  0.0384
18752W        W36956   1.823  17.578  11.209  0.0117  0.0041  0.1163
18753W        W36957  17.359  18.008   1.474  0.4395 -0.0296 -0.1932
18754W        W36958   1.252   2.574  15.314 -0.0311 -0.1353 -0.0654
18755W        W36959   3.515   6.462   5.741  0.0148 -0.0505 -0.3639
18756W        W36960   1.953   8.402   2.021 -0.1039  0.1161 -0.0269
18757W        W36961  17.349   3.743   1.312 -0.2163 -0.1962 -0.1045
18758W        W36962   6.208  12.259   0.813  0.0007 -0.0642  0.0905
18759W        W36963   9.608   2.523  13.461 -0.2952 -0.0766  0.1863
18760W        W36964   5.430   8.888   0.495 -0.4709  0.1168  0.0128
18761W        W36965   1.383  15.527   3.309  0.2435 -0.0340 -0.1313
18762W        W36966  11.557  11.094  12.647  0.5721  0.0733  0.4827
18763W        W36967   8.022  15.399  12.060 -0.0410  0.1110  0.1939
18764W        W36968   8.216  10.242  14.911 -0.0551  0.2135 -0.0528
18765W        W36969  16.797  14.588  15.525 -0.1543  0.1062 -0.2380
18766W        W36970  10.941  14.472   0.527  0.0531  0.0863  0.0752
18767W        W36971  17.180  16.770   4.390  0.1761 -0.0405 -0.4157
18768W        W36972   0.264   1.858  13.137 -0.1666 -0.1084  0.1362
18769W        W36973   9.338  12.254  15.229  0.1878 -0.3097  0.1086
18770W        W36974   7.418   0.869   1.043  0.0461 -0.1583 -0.0798
18771W        W36975  16.982   4.380  14.536 -0.0168  0.1511 -0.0359
18772W        W36976  16.593   0.954  15.037  0.1203  0.1009 -0.3012
18773W        W36977  12.531   6.816   0.115 -0.0431 -0.0495 -0.0438
18774W        W36978  16.628  10.954   2.837 -0.2521  0.0847 -0.3559
18775W        W36979   1.169   8.042   2.506  0.1417  0.3697 -0.1192
18776W        W36980  17.359  10.076  10.872 -0.0903 -0.0302  0.0962
18777W        W36981  11.828  16.145  12.810 -0.1764 -0.0467  0.2054
18778W        W36982  15.795   7.296   0.974 -0.2982  0.3444 -0.1770
18779W        W36983  17.991   8.061  15.714  0.2297 -0.0952 -0.2429
18780W        W36984   9.445   1.729   2.767  0.2166  0.1886 -0.1995
18781W        W36985   5.241  12.981   1.842 -0.1220  0.0906 -0.1379
18782W        W36986   5.749   8.455  12.071  0.1013  0.3770 -0.0433
18783W        W36987   0.561   5.776   2.581  0.1319  0.1813  0.0168
18784W        W36988  11.931   7.789   4.633  0.2427  0.1473  0.4197
18785W        W36989  17.131  18.088   4.014  0.0044  0.1372 -0.1953
18786W        W36990   0.628   3.859  10.882  0.0908 -0.2293  0.1368
18787W        W36991   4.407  13.597  15.564 -0.0720 -0.0219  0.1944
18788W        W36992   3.349  16.878   0.912 -0.2361 -0.1444  0.1858
18789W        W36993  14.276   4.250   1.865 -0.1073 -0.1238  0.1154
18790W        W36994  13.893   1.715  10.750 -0.0973  0.2778  0.0009
18791W        W36995  14.610  16.010   2.605  0.0531 -0.0023  0.2369
18792W        W36996  14.277  11.979   2.349 -0.0826  0.1450  0.4838
18793W        W36997   2.600   2.173  12.958  0.0180 -0.1346 -0.1516
18794W        W36998   6.406  13.824   4.879  0.1000 -0.2194  0.0996
18795W        W36999  12.103  15.671  12.766 -0.0373 -0.0805  0.1486
18796W        W37000  15.618  17.103  12.105  0.1031  0.2249  0.2119
18797W        W37001  10.089  10.909   2.522 -0.0409 -0.3498 -0.0270
18798W        W37002   3.272  16.355   3.846 -0.0951 -0.0430  0.0723
18799W        W37003   7.794   0.375  13.269  0.2451 -0.0152 -0.0650
18800W        W37004  17.104   3.349   0.423 -0.0161 -0.0556  0.1394
18801W        W37005   9.147   7.600   2.550 -0.2306 -0.1572  0.2212
18802W        W37006  10.025  12.780  15.553 -0.3732  0.0247 -0.2504
18803W        W37007   2.822   7.857   1.274  0.0185  0.0457  0.1289
18804W        W37008  15.952   6.604   0.668  0.0628 -0.1363  0.1014
18805W        W37009   2.004  13.628   3.779  0.0257 -0.1183 -0.0937
18806W        W37010   8.790  14.697   0.395 -0.1185 -0.4931 -0.0582
18807W        W37011  14.977  17.595  14.370 -0.0440 -0.0996  0.0806
18808W        W37012  15.888  11.780  14.629 -0.0768  0.0071  0.0829
18809W        W37013   8.524  11.956  15.052 -0.1273 -0.1819 -0.2141
18810W        W37014   3.812  12.699   1.057  0.2015 -0.4425  0.1392
18811W        W37015   7.301   5.494  15.475  0.0877  0.1119 -0.0569
18812W        W37016   3.345   8.515  12.201 -0.1337  0.0444  0.0279
18813W        W37017  16.350   5.616  13.322  0.1867  0.0554 -0.1807
18814W        W37018  15.429   8.669  13.127 -0.4378 -0.0388 -0.1921
18815W        W37019   3.151   1.991   4.650 -0.1071  0.0420  0.0711
18816W        W37020  16.247  11.591  13.784 -0.0427  0.1167  0.1248
18817W        W37021  11.550  18.109   0.662 -0.0022 -0.2201 -0.0551
18818W        W37022  15.120   0.926   1.773  0.0976  0.0826  0.1571
18819W        W37023   3.845  18.340  15.254  0.3086  0.3040 -0.0902
18820W        W37024  10.796   3.256   0.441  0.0085 -0.0900 -0.1579
18821W        W37025   2.732   5.825  11.623 -0.3885  0.0569 -0.2112
18822W        W37026   8.464  15.524   4.019  0.0539  0.1419 -0.0056
18823W        W37027   0.987   9.296   2.165 -0.0253 -0.1170  0.2148
18824W        W37028   9.726  16.644   0.932  0.2396 -0.0690 -0.0928
18825W        W37029   6.982   5.563  14.008 -0.0236 -0.2217 -0.1477
18826W        W37030   7.554   7.942  15.530 -0.0084  0.1688  0.0961
18827W        W37031   2.322  13.958  12.569 -0.0814  0.1490 -0.0262
18828W        W37032  14.164  12.586   1.231  0.0214 -0.2010  0.1061
18829W        W37033   6.288   6.216  14.289  0.2340  0.0677  0.3119
18830W        W37034   7.031  16.168   0.155  0.0060 -0.0147 -0.0636
18831W        W37035  16.440  16.230   1.023  0.0013  0.0744  0.0612
18832W        W37036   6.571   7.804   2.838  0.1206 -0.3884 -0.0932
18833W        W37037  16.416   0.625  14.161  0.2382  0.1686  0.0825
18834W        W37038   4.574   8.815  13.278  0.1405 -0.2823 -0.0434
18835W        W37039  11.824   5.197   3.783  0.0730 -0.0778 -0.1254
18836W        W37040  12.215   1.609  14.615 -0.0088 -0.2826  0.1370
18837W        W37041   7.379   9.067  11.822 -0.1262  0.3653 -0.1520
18838W        W37042   7.742  15.797   2.735 -0.1729 -0.0887  0.3714
18839W        W37043   3.909  12.482  11.821 -0.1899 -0.1965  0.1353
18840W        W37044   4.561  16.761   1.515  0.1829  0.2976 -0.0980
18841W        W37045  15.227  12.087  12.750 -0.3622 -0.0538 -0.0061
18842W        W37046  12.174   0.064   2.371  0.0860 -0.0727 -0.2338
18843W        W37047   3.628  13.571   4.666  0.0204  0.0150 -0.2225
18844W        W37048   5.748   5.758  14.997  0.2074  0.1891 -0.0632
18845W        W37049  15.198   2.208   1.355 -0.1894  0.2006  0.0254
18846W        W37050  17.419   3.467  13.410 -0.2346  0.0173  0.1769
18847W        W37051   7.234   6.784   5.243 -0.2203 -0.1900 -0.0865
18848W        W37052   5.625  15.630  13.930  0.2027  0.2961  0.0237
18849W        W37053   4.724   1.191   1.680 -0.1922  0.1272 -0.2945
18850W        W37054   1.351  16.902   1.723 -0.0669 -0.4240 -0.0191
18851W        W37055   4.009   8.887  12.395  0.0763  0.0288  0.0123
18852W        W37056  16.640   0.623  14.623 -0.2175  0.0556 -0.1332
18853W        W37057  15.366   5.544  12.666  0.2386  0.0518 -0.2091
18854W        W37058  12.986   7.305  14.009  0.1095 -0.3939  0.3119
18855W        W37059  14.832   3.599   1.959 -0.0536  0.0008  0.0916
18856W        W37060   2.280   3.639  11.313  0.0610 -0.0269 -0.0852
18857W        W37061  14.712   3.046   2.012  0.2055 -0.0208  0.3018
18858W        W37062  15.874   0.342  14.008  0.0156  0.1242  0.0702
18859W        W37063   3.808   1.867   0.790 -0.2449 -0.1472  0.1734
18860W        W37064  17.855   2.982   2.612 -0.2308 -0.4941 -0.0016
18861W        W37065   9.074   6.643   3.054 -0.2178  0.2396 -0.0447
18862W        W37066   2.533   6.291  15.346  0.1774 -0.0918  0.0690
18863W        W37067  12.616   6.229   4.664  0.0280  0.2440  0.1322
18864W        W37068  18.016  17.614  12.889  0.2625 -0.2688 -0.1602
18865W        W37069   5.255  10.090  15.045  0.0952  0.0972  0.0558
18866W        W37070   0.863  17.735  11.357  0.0755 -0.0036  0.0356
18867W        W37071   4.065  17.340  11.739  0.1921  0.1202 -0.1009
18868W        W37072  16.888   4.873   2.207  0.0487 -0.0705 -0.1466
18869W        W37073  17.697   5.259   1.269  0.2232  0.1626 -0.0002
18870W        W37074  16.299   3.120  10.219 -0.0880  0.1090 -0.2316
18871W        W37075  18.336  11.949  15.196 -0.0319 -0.2264 -0.1569
18872W        W37076   7.495   5.956   1.261 -0.0190 -0.2308  0.2275
18873W        W37077   9.147   7.370   1.628  0.0059  0.2714 -0.0332
18874W        W37078   5.812   9.469  14.254 -0.0732 -0.2456 -0.3396
18875W        W37079   8.367  13.190  10.786  0.1076  0.1226  0.3000
18876W        W37080   3.650  13.592  12.785  0.1961  0.2518 -0.0321
18877W        W37081  14.603  10.107   2.008  0.0408 -0.0181  0.3596
18878W        W37082  10.217  16.418   2.707  0.0041 -0.1579  0.1276
18879W        W37083   1.570  15.832  14.482 -0.1936 -0.0867  0.0015
18880W        W37084  10.962   1.120  12.619 -0.3487 -0.1740 -0.0122
18881W        W37085   5.927   9.783   3.014  0.0380  0.1460  0.0519
18882W        W37086  13.538  11.565  15.360  0.2655 -0.2430  0.4122
18883W        W37087   3.718  15.254   3.230 -0.3841  0.0985  0.0422
18884W        W37088  13.597   6.050  11.448 -0.0686 -0.0771 -0.1623
18885W        W37089  14.023   8.989  11.352 -0.1043 -0.2026  0.0226
18886W        W37090   5.117   8.723   2.382 -0.1676  0.2021 -0.1088
18887W        W37091   8.970  13.194  13.615 -0.0828  0.0933 -0.2413
18888W        W37092  17.566  11.316   4.533  0.0242 -0.0316 -0.2936
18889W        W37093  11.940  16.821  14.494  0.1949  0.3430 -0.2243
18890W        W37094   7.215   0.336   3.467  0.0551 -0.1041  0.2488
18891W        W37095  15.232  13.947  15.572 -0.1385  0.0379 -0.0931
18892W        W37096  17.585   7.710   1.584  0.1486 -0.1470  0.1146
18893W        W37097  11.498   4.538  11.274  0.0258  0.2674  0.0305
18894W        W37098  14.493   2.039  13.931 -0.0419 -0.0644  0.2509
18895W        W37099   3.579   0.905   3.696 -0.0903 -0.2572 -0.1183
18896W        W37100   3.811  10.814  14.573  0.0663 -0.2010 -0.3492
18897W        W37101  14.727   6.752   3.304 -0.1176  0.1035  0.2893
18898W        W37102   5.481   7.512  10.839 -0.0813  0.0475  0.1147
18899W        W37103  11.448  16.831  15.622  0.0049  0.0168  0.2798
18900W        W37104   4.121  15.614  11.357 -0.0402 -0.1733 -0.1687
18901W        W37105   1.192   3.356  12.448  0.1491 -0.0304  0.1834
18902W        W37106   4.889  12.608  12.174 -0.0088  0.1415 -0.0794
18903W        W37107   0.443   0.675  14.465 -0.2876 -0.0882  0.1933
18904W        W37108   0.796  11.765  14.852  0.1159 -0.0938 -0.2553
18905W        W37109  14.971  13.625   0.768  0.0636 -0.1199  0.2396
18906W        W37110   8.525  10.823   3.910  0.1340 -0.0330  0.0654
18907W        W37111  10.639  12.590   3.004  0.1271  0.0041  0.2744
18908W        W37112  17.194  14.228  13.952  0.1974  0.0027 -0.1511
18909W        W37113  16.611   9.870  12.904 -0.1115 -0.1488  0.1653
18910W        W37114   3.314   9.403  12.807 -0.1782  0.0439  0.0407
18911W        W37115   6.295   1.243   1.479  0.0488 -0.0709 -0.0497
18912W        W37116   5.008  17.852  13.326  0.0204 -0.0564  0.2908
18913W        W37117   7.527   7.425   3.279  0.0111 -0.0870 -0.0013
18914W        W37118  14.431  16.233  15.241  0.1295 -0.0217 -0.1033
18915W        W37119   0.879   0.065   0.491 -0.0045  0.1720 -0.1122
18916W        W37120   3.759   9.855  14.503 -0.0385  0.0165 -0.1887
18917W        W37121   2.149   2.370  14.846  0.0129 -0.0442  0.0061
18918W        W37122  15.775   6.015  14.371 -0.2802 -0.1278 -0.0038
18919W        W37123   6.741   7.948  15.596 -0.0137  0.2885 -0.0558
18920W        W37124  12.687  18.338  12.210  0.0367  0.0274 -0.0678
18921W        W37125   3.037   2.297  12.807  0.0411  0.0589 -0.0921
18922W        W37126   8.677  16.391  10.766 -0.2544  0.0443 -0.0858
18923W        W37127   6.937   4.616  15.501  0.2193  0.1169 -0.2021
18924W        W37128   2.806   0.088   0.216  0.0782  0.1086 -0.3085
18925W        W37129  17.031  17.657   3.001  0.3958  0.0120  0.1406
18926W        W37130  10.102  16.243  12.156 -0.2602 -0.3642  0.1518
18927W        W37131   3.994  13.775  11.489  0.2033 -0.2989  0.0262
18928W        W37132   0.317   8.465  14.352 -0.4788  0.0292 -0.0898
18929W        W37133   8.695  13.131   2.291 -0.0613  0.1566 -0.0830
18930W        W37134  17.652   4.411   0.803 -0.1825  0.3395 -0.1678
18931W        W37135   2.438  15.974  12.052 -0.1071  0.0002 -0.2079
18932W        W37136   1.651  16.319   3.517  0.0970 -0.0003 -0.1345
18933W        W37137   6.272   9.000   3.805 -0.0102  0.2137  0.0881
18934W        W37138  12.158   8.026   1.928 -0.1289  0.0013 -0.2083
18935W        W37139   5.977   5.623  13.058  0.2864  0.1509  0.1608
18936W        W37140   8.130   2.202  12.082 -0.1124 -0.0122 -0.1832
18937W        W37141  13.924   7.427   4.341 -0.1344 -0.3504 -0.0712
18938W        W37142   8.453   1.508  11.088 -0.0185 -0.1345 -0.1173
18939W        W37143   9.067   5.920  14.408 -0.1185 -0.0826 -0.2192
18940W        W37144  11.490  10.745  14.279  0.2886 -0.0162 -0.0331
18941W        W37145  12.149  15.619  14.913 -0.2505 -0.4582 -0.0350
18942W        W37146   4.268   8.986   2.377  0.0336 -0.0321  0.1378
18943W        W37147   9.362  11.645  13.203  0.2400 -0.0410  0.1692
18944W        W37148  15.423   6.073  13.181  0.1186  0.0227 -0.2880
18945W        W37149  17.589   6.364   4.429 -0.1049 -0.0305  0.0555
18946W        W37150   4.520  10.323   0.149  0.1667  0.0126  0.1280
18947W        W37151   0.620  17.965  10.926  0.2520  0.2194  0.1621
18948W        W37152   4.821   4.628  11.882 -0.1484 -0.0667  0.0584
18949W        W37153   4.626  16.465   4.048 -0.1795 -0.2482 -0.0647
18950W        W37154  17.571   3.852   4.934 -0.0371 -0.1797  0.0426
18951W        W37155   1.634  11.438   4.513 -0.2150  0.0992 -0.1524
18952W        W37156   3.351  10.979  10.648 -0.2189  0.5753  0.0608
18953W        W37157   4.575  18.129   3.054 -0.0619 -0.0102  0.0405
18954W        W37158  13.631  16.975  12.103 -0.1004 -0.0594  0.2009
18955W        W37159  17.777   3.547   4.233  0.3336  0.2104 -0.1180
18956W        W37160   4.038  14.682   3.794 -0.0162 -0.1040 -0.0335
18957W        W37161  15.053  17.409   3.421 -0.1742  0.2585  0.1879
18958W        W37162  12.972   5.157  11.037  0.2495 -0.1369  0.2522
18959W        W37163  14.473   2.574   2.551  0.3363 -0.0478 -0.1605
18960W        W37164   5.994   4.410  13.776  0.0726  0.0706  0.0457
18961W        W37165   2.216   5.941  10.820 -0.1413  0.1403  0.1897
18962W        W37166   6.767   2.501  11.217 -0.0622 -0.2123 -0.0168
18963W        W37167  18.280   3.101  12.770 -0.1826  0.1195 -0.1289
18964W        W37168   9.031   1.941   2.539 -0.0150 -0.2389 -0.2278
18965W        W37169   3.819  12.905  14.410 -0.2348 -0.1250 -0.0541
18966W        W37170   6.819  14.496   3.568 -0.2390  0.0017 -0.1579
18967W        W37171   1.600   7.794   2.194 -0.1691 -0.0036 -0.0502
18968W        W37172   2.277  14.251  10.483  0.0742  0.0074  0.0594
18969W        W37173   5.758  17.349  11.631 -0.1972  0.0806 -0.0243
18970W        W37174   3.475   1.804  15.569 -0.0852 -0.0641  0.0177
18971W        W37175  15.872   1.457  13.973 -0.3437 -0.1126 -0.1502
18972W        W37176   6.849   9.702   4.297  0.1800  0.1524 -0.0939
18973W        W37177  17.676   4.931  13.533  0.0200 -0.1356 -0.0599
18974W        W37178  14.061   4.158  15.226 -0.0789 -0.0967  0.0837
18975W        W37179   8.142  17.396  13.260 -0.0158 -0.0217  0.2911
18976W        W37180   9.629  11.704   1.952  0.0617  0.0886 -0.0106
18977W        W37181   4.175   6.651   2.835 -0.2377 -0.1345  0.0199
18978W        W37182   8.926  10.305   4.642  0.2588  0.1210  0.0078
18979W        W37183  14.688   4.204   3.758  0.2261  0.0547 -0.2587
18980W        W37184   7.256   8.555  11.192 -0.1630 -0.0254  0.0185
18981W        W37185  14.718  17.415   4.352  0.0708 -0.0562  0.2049
18982W        W37186   4.225   6.678   4.856 -0.2431 -0.2724 -0.2276
18983W        W37187  12.980  15.581   0.540  0.0259 -0.2620  0.3040
18984W        W37188  13.099   3.642   3.726 -0.0878  0.0564  0.2165
18985W        W37189   6.606   0.905   5.675  0.4624  0.3510 -0.0994
18986W        W37190  13.113   7.046   2.176  0.0011 -0.0420  0.0026
18987W        W37191  10.935   6.576   5.467  0.1458  0.0365 -0.0638
18988W        W37192   1.826  12.770  12.915 -0.0400  0.2146 -0.1442
18989W        W37193   3.615  17.166   0.612 -0.2398 -0.1241 -0.2611
18990W        W37194   2.312   7.840  14.047 -0.3654  0.5288  0.3358
18991W        W37195   7.889   1.997  11.602 -0.0062 -0.0177  0.0159
18992W        W37196   6.981   5.538  12.788 -0.0412 -0.2506 -0.2563
18993W        W37197   7.705   2.142   1.332  0.0532  0.0271 -0.1473
18994W        W37198   0.858   5.755  12.227  0.1271  0.1552 -0.1354
18995W        W37199   8.949   8.029   2.251 -0.3108 -0.1349  0.0185
18996W        W37200   1.730   8.405  12.326 -0.0544  0.2742  0.4238
18997W        W37201  14.316  17.726  15.174  0.4067 -0.0385  0.2636
18998W        W37202  15.108  10.650   3.735  0.0114 -0.2722  0.1511
18999W        W37203   6.655  17.309   0.140 -0.0268 -0.0031  0.1205
19000W        W37204   1.783  12.349   5.578  0.0448 -0.0618 -0.0897
19001W        W37205  12.060   6.951  14.935  0.1840  0.0351  0.2895
19002W        W37206  14.437   8.071   0.917  0.1004 -0.3825 -0.0029
19003W        W37207  11.680  15.275   4.648  0.0629  0.0543  0.0004
19004W        W37208   8.423  12.033   1.893  0.1363  0.2238  0.0961
19005W        W37209   3.131   7.990  15.283  0.2180 -0.1916 -0.2547
19006W        W37210  17.574  11.418  13.779  0.2173 -0.1214 -0.0319
19007W        W37211  16.498  11.950  12.680 -0.0697 -0.0643 -0.0542
19008W        W37212   0.558  15.882   2.884  0.3061 -0.2436 -0.0244
19009W        W37213   2.682   3.218  15.578  0.3301 -0.0326  0.0434
19010W        W37214  10.059   2.516  10.950  0.0673  0.0827 -0.1945
19011W        W37215  10.065   3.364   1.001 -0.3988 -0.0087 -0.0818
19012W        W37216   1.854   8.679  13.329  0.5052 -0.1700 -0.1141
19013W        W37217  18.156   1.179   3.780 -0.2332 -0.3337 -0.0645
19014W        W37218   0.377   7.171  11.255  0.1897 -0.1446 -0.0271
19015W        W37219   9.849   0.811   5.047  0.0907 -0.0353  0.0673
19016W        W37220   7.838  13.008  11.674  0.2161 -0.0968 -0.1426
19017W        W37221   5.795   1.241  14.840  0.2933  0.1947 -0.2640
19018W        W37222   7.293  14.649   4.188 -0.1186  0.0341  0.0243
19019W        W37223   6.028   3.729  13.152 -0.1029 -0.1751 -0.2607
19020W        W37224   2.679   0.808   1.500  0.1893  0.0682  0.2391
19021W        W37225   6.388   2.152   1.714  0.3318 -0.0995 -0.0386
19022W        W37226  15.480   6.060  12.631  0.3243 -0.2160  0.0828
19023W        W37227  16.424   5.791   0.041 -0.1603 -0.1998 -0.1823
19024W        W37228   3.264   1.202   3.446  0.1105 -0.1280  0.0310
19025W        W37229   7.185   2.604  12.609  0.1492  0.2249  0.2940
19026W        W37230   7.933  11.202  13.184  0.1060 -0.1213 -0.3838
19027W        W37231  11.882   4.348   4.265  0.3047 -0.0700 -0.1686
19028W        W37232  11.413  13.362   2.585 -0.0708  0.0679 -0.1785
19029W        W37233   1.537   0.887  14.516  0.1264 -0.1551 -0.3191
19030W        W37234   2.108  16.954  15.210 -0.1565 -0.0601  0.3075
19031W        W37235   6.263  13.656  11.458  0.2898 -0.0212 -0.1215
19032W        W37236  16.216   8.703  15.437 -0.1866  0.0640  0.0744
19033W        W37237   8.042   4.343  11.429  0.0927 -0.0421  0.0126
19034W        W37238  10.777  13.642   0.700  0.0700 -0.0883  0.1903
19035W        W37239   3.065   5.485   3.098 -0.2071  0.3048 -0.0343
19036W        W37240  16.643  17.934   0.792 -0.2512  0.0842 -0.0244
19037W        W37241  11.286  18.127   1.136  0.0759  0.3308 -0.1732
19038W        W37242   0.428   4.516  14.554 -0.1154  0.2569  0.1062
19039W        W37243   6.430   0.387   4.001 -0.3121 -0.1586 -0.0337
19040W        W37244  17.635  11.137   1.806  0.1007 -0.0661  0.0263
19041W        W37245  11.786   9.507   4.992  0.1489 -0.0486 -0.2552
19042W        W37246   1.797   8.610  11.055  0.3976  0.1254 -0.0425
19043W        W37247   9.142  10.431  13.368 -0.4413 -0.0335  0.0302
19044W        W37248   8.714  16.002  13.026 -0.1216 -0.1293  0.0024
19045W        W37249  11.969  16.387  13.734 -0.0344  0.3540 -0.1264
19046W        W37250  14.520   5.844  14.901  0.0836 -0.0234 -0.4079
19047W        W37251   2.232  11.558  11.768  0.0754  0.0251 -0.0416
19048W        W37252  12.157  10.318  12.648  0.3071  0.6976  0.4846
19049W        W37253   1.916  11.822  13.947 -0.0645 -0.1073  0.4235
19050W        W37254  15.686  18.251  12.631 -0.2783 -0.2389 -0.2521
19051W        W37255   4.388   2.902  10.071  0.0817 -0.0672 -0.0928
19052W        W37256   8.931   7.564   5.428 -0.0273  0.0122  0.0587
19053W        W37257   3.152   2.973  14.858 -0.0009 -0.0269 -0.0642
19054W        W37258  11.978  12.039   2.961  0.0771 -0.1183 -0.0926
19055W        W37259  13.134  10.176   4.420  0.0503 -0.1411 -0.1944
19056W        W37260   1.035  11.631   1.438 -0.1444  0.1910  0.0666
19057W        W37261   0.993   5.372   1.242 -0.2820 -0.0209  0.2575
19058W        W37262   1.681  12.171   3.174 -0.0705  0.0453 -0.1990
19059W        W37263   3.247  14.369  14.276  0.0251  0.0088  0.0509
19060W        W37264  18.055  15.435  11.147  0.2253 -0.1394  0.0586
19061W        W37265  11.713   7.395  12.762 -0.1575  0.1346 -0.2521
19062W        W37266  12.311   2.974  13.438 -0.1534 -0.2239  0.0938
19063W        W37267  10.578  17.733   2.945 -0.0036  0.0273 -0.0784
19064W        W37268   1.128   2.974   5.380  0.1765 -0.2254  0.0466
19065W        W37269  14.995  15.676  12.780 -0.0487  0.0665 -0.0068
19066W        W37270   3.117  12.002  12.665  0.1657 -0.0473 -0.0964
19067W        W37271   1.756  15.684   4.211  0.1506  0.0255 -0.2675
19068W        W37272   2.540   0.226  15.548 -0.1316  0.1913 -0.1131
19069W        W37273   4.929   8.079  13.527  0.2090  0.0201 -0.1754
19070W        W37274  15.298   7.150   4.301  0.1571 -0.0656  0.0985
19071W        W37275  12.093   8.165   4.347  0.0898 -0.0952 -0.2067
19072W        W37276   1.307  14.606   1.268  0.1142  0.2230 -0.1241
19073W        W37277  10.052   6.681   0.939  0.0034 -0.2805  0.0609
19074W        W37278   6.745  13.378  11.354  0.2890  0.0389 -0.1731
19075W        W37279  12.870   0.477   3.777  0.1146  0.2865  0.3815
19076W        W37280  17.118   3.670   3.471  0.2091 -0.1983  0.5277
19077W        W37281   6.242   8.428  12.081  0.0933 -0.2576 -0.0073
19078W        W37282   2.369  16.089   1.570 -0.0635  0.0390  0.1016
19079W        W37283   4.496  12.621   2.724 -0.0092 -0.1540 -0.3318
19080W        W37284   6.235   8.640  13.780 -0.0977 -0.3157  0.0656
19081W        W37285  14.059   1.353   9.933  0.0583 -0.1394 -0.0626
19082W        W37286   4.017   5.444  12.427  0.0188 -0.0335 -0.2952
19083W        W37287   1.115  14.424  12.685  0.1391 -0.0144  0.2031
19084W        W37288  10.382  14.628  13.837 -0.0474  0.1043 -0.0815
19085W        W37289  15.745   7.976  12.492 -0.1674  0.2871 -0.1787
19086W        W37290  16.122  13.165  12.564 -0.0579  0.1526  0.1848
19087W        W37291   4.975  11.855  11.523  0.4316 -0.1600  0.1608
19088W        W37292   0.314   5.757  12.577 -0.0731 -0.0134 -0.0759
19089W        W37293   5.667   8.514   0.316  0.1764  0.1033  0.2206
19090W        W37294  17.984   1.311  11.397 -0.1565 -0.0351  0.1582
19091W        W37295  15.433   3.003  14.657  0.4610 -0.0439  0.1381
19092W        W37296   7.002   2.698   2.922 -0.0644 -0.0737  0.1105
19093W        W37297   5.912  10.048   4.428 -0.1859 -0.0706  0.5669
19094W        W37298  16.671  11.844   1.599 -0.0662 -0.2221  0.0175
19095W        W37299  17.125  18.307  11.744 -0.0668 -0.0155 -0.0623
19096W        W37300  17.918   9.042   2.990  0.0239  0.0544 -0.2004
19097W        W37301   9.239   5.386  12.638 -0.0955 -0.3892  0.1290
19098W        W37302   9.400   1.471   3.195 -0.0900 -0.0883  0.1852
19099W        W37303   1.652  13.936   2.947 -0.0110  0.0117 -0.0702
19100W        W37304   2.686  14.762  15.677 -0.0432 -0.2070 -0.0901
19101W        W37305  15.681  12.728   0.861  0.1574  0.0081  0.2927
19102W        W37306   3.596   7.922   2.733  0.1738 -0.0634 -0.1379
19103W        W37307   1.738  18.351  15.189  0.0150  0.1467  0.1517
19104W        W37308   4.900   9.812  11.100  0.2133 -0.4288  0.0790
19105W        W37309   5.258  12.336  15.655 -0.0295  0.4710  0.1400
19106W        W37310  11.097  10.625   3.443  0.1353  0.0061  0.1136
19107W        W37311  12.484   8.902   0.237  0.0463 -0.0509  0.0372
19108W        W37312  11.325  13.694  14.246  0.2915 -0.2137 -0.1441
19109W        W37313  10.517   8.121   2.383 -0.4757 -0.1610 -0.3247
19110W        W37314   3.362  12.891   1.263 -0.2151  0.2918  0.0591
19111W        W37315   2.350   9.611  11.860  0.2864  0.2397  0.1095
19112W        W37316   7.165  15.180   4.327  0.0746  0.2821  0.4612
19113W        W37317   0.633  10.395  13.005 -0.0062 -0.0409 -0.1845
19114W        W37318   3.850  14.274  14.813  0.1236  0.1340 -0.1304
19115W        W37319  15.411  12.613   1.307  0.1484 -0.1305 -0.2371
19116W        W37320   9.889   7.042   0.081 -0.0700  0.1310 -0.2718
19117W        W37321  18.080  11.091   0.013 -0.3914 -0.0389  0.0242
19118W        W37322  11.092   1.648   3.571  0.1311  0.0147  0.0448
19119W        W37323  12.241   0.936  15.270  0.0103  0.0310 -0.0682
19120W        W37324  11.694   9.639   4.024  0.0137  0.1538 -0.3608
19121W        W37325   3.685   2.279  14.707 -0.0660  0.0752  0.1002
19122W        W37326   9.095  12.201   4.354 -0.2656 -0.0104 -0.0437
19123W        W37327  10.676  16.723  14.381 -0.0815 -0.0395 -0.1844
19124W        W37328   0.450  12.820   5.453 -0.2460 -0.1714 -0.0567
19125W        W37329  15.348   6.554  15.705  0.0521 -0.1513  0.1750
19126W        W37330   1.018  18.037  14.111  0.2475 -0.2996 -0.1305
19127W        W37331  15.118  16.270   4.155 -0.0357  0.0010 -0.0395
19128W        W37332   0.530   5.756   3.644  0.2780  0.0470  0.0425
19129W        W37333  12.997   3.051   2.555 -0.4343  0.2930 -0.0294
19130W        W37334  11.389  13.401   4.267  0.1590 -0.0093  0.0861
19131W        W37335   4.180  12.293   2.269 -0.4010  0.0426  0.2765
19132W        W37336  16.725  13.471   4.656  0.2032  0.4325  0.0298
19133W        W37337   5.987  18.219  11.451  0.0621 -0.2052 -0.2494
19134W        W37338  11.500  15.630   5.202  0.1397  0.0370 -0.1786
19135W        W37339  10.784  12.435  12.326 -0.3649 -0.0683 -0.1130
19136W        W37340  12.841   5.310   0.955 -0.1003  0.1850  0.1389
19137W        W37341  16.420  16.315   4.598 -0.2039 -0.0159 -0.0889
19138W        W37342   4.997  17.619  12.513  0.1341  0.0853  0.1186
19139W        W37343  10.240  18.356   2.569  0.2197  0.1381  0.0092
19140W        W37344   4.170   6.920  15.630 -0.2334  0.1854 -0.2334
19141W        W37345  14.065   3.431   4.165  0.0715 -0.0915  0.0452
19142W        W37346  17.511  10.354   4.694 -0.1545 -0.0129 -0.1999
19143W        W37347   0.970   4.688  12.562  0.1816  0.0105 -0.2417
19144W        W37348  17.295  13.366  15.574 -0.0462  0.1177  0.3411
19145W        W37349  17.087   7.016   2.806 -0.1090 -0.1134 -0.1044
19146W        W37350  15.292  15.167  11.898 -0.0765  0.1755 -0.1435
19147W        W37351  16.216   4.696   3.264  0.1925 -0.2343  0.0671
19148W        W37352   9.035  11.010  12.106 -0.1153  0.1027  0.6192
19149W        W37353   9.835  10.477  12.892  0.2434  0.0002 -0.1948
19150W        W37354   0.689  15.410  15.377 -0.1993 -0.0879  0.0945
19151W        W37355   3.333   7.187   1.343 -0.0330  0.0992 -0.0675
19152W        W37356   5.364   8.458   2.743  0.1754 -0.0055 -0.1543
19153W        W37357  16.299  14.901   1.306  0.1212 -0.0631  0.0162
19154W        W37358  16.202  18.182   2.307  0.4445  0.0068 -0.0863
19155W        W37359   5.424   4.532   3.465  0.2122 -0.1671  0.0224
19156W        W37360   0.233  10.661  13.464  0.2651  0.0686 -0.0552
19157W        W37361  15.271   2.600   3.758  0.0967  0.1299 -0.1217
19158W        W37362  15.970   5.325  11.621 -0.0625 -0.0872  0.2348
19159W        W37363  12.394   1.543  12.017 -0.1675  0.1676  0.0672
19160W        W37364   5.204   1.271   1.313 -0.3966 -0.0498  0.0264
19161W        W37365   5.112   7.727  11.096  0.1801  0.2467 -0.1166
19162W        W37366  10.944   3.438   1.375  0.0322  0.0539  0.0246
19163W        W37367   3.485   3.707   3.282  0.3223  0.0938  0.2893
19164W        W37368   3.450  13.212  14.693 -0.1869  0.0690  0.0932
19165W        W37369  17.952  13.893   4.296  0.0587  0.1795 -0.3094
19166W        W37370  17.489   1.894   1.583  0.0430 -0.1473 -0.2979
19167W        W37371  13.216   6.159  13.461  0.1173 -0.0601 -0.0883
19168W        W37372  13.183  10.569   3.783  0.1170 -0.2054 -0.3004
19169W        W37373   1.007   0.364   3.380  0.1382 -0.0981 -0.2951
19170W        W37374  15.185   3.029  11.753  0.1304  0.0584 -0.0749
19171W        W37375  11.267  16.321  11.587  0.0235 -0.0760  0.0573
19172W        W37376  11.492   1.463   4.582  0.0306 -0.0187 -0.1168
19173W        W37377   3.803   9.252  12.709 -0.0508  0.1158 -0.0204
19174W        W37378  14.059  15.512   4.202 -0.0575 -0.0966  0.1241
19175W        W37379   6.380   9.687   0.682 -0.0459 -0.2246  0.3976
19176W        W37380  13.327  17.937   4.255  0.1861  0.0663 -0.3055
19177W        W37381  13.245   1.234   0.626 -0.0579 -0.0637 -0.1805
19178W        W37382  16.056   7.611   0.668 -0.0287  0.1430 -0.0908
19179W        W37383  15.458  10.192  13.567 -0.1905 -0.2889 -0.1365
19180W        W37384  16.976   1.774  10.708 -0.1341  0.3769  0.2162
19181W        W37385  13.671  15.455  11.965  0.0339  0.0484 -0.0336
19182W        W37386  16.227  13.951  15.672 -0.3707  0.2106 -0.1082
19183W        W37387   5.787   4.294   1.645 -0.1595  0.0985  0.1896
19184W        W37388   5.371   9.053   3.586 -0.0834  0.1140  0.0001
19185W        W37389  18.115   4.661   2.768 -0.1374 -0.1623  0.0395
19186W        W37390  11.457  15.536  12.023 -0.2321  0.1375  0.2980
19187W        W37391   4.355  14.836  14.215 -0.1560  0.1202  0.0905
19188W        W37392   1.420  16.812   3.408 -0.1264  0.0236 -0.1180
19189W        W37393   5.030   0.147  12.389  0.1344  0.0821 -0.0051
19190W        W37394  14.872  16.460   1.305 -0.1715  0.0071  0.0415
19191W        W37395  14.964  17.837  12.133  0.4079 -0.0917 -0.1730
19192W        W37396   6.863  15.207  11.241  0.2840 -0.1435  0.2490
19193W        W37397   8.805  12.260   2.950  0.2432  0.0695  0.0954
19194W        W37398   1.232  13.439  13.094  0.0974  0.2565  0.0798
19195W        W37399  10.821   6.393  14.290 -0.0833  0.1539  0.1313
19196W        W37400   9.498   7.375  14.325 -0.0238  0.0112  0.3159
19197W        W37401   6.949  15.956   1.035  0.1553 -0.2359  0.0976
19198W        W37402   7.798  10.621   0.505  0.0024 -0.1360 -0.2175
19199W        W37403  17.317  10.020  13.648 -0.1035  0.2160  0.1944
19200W        W37404   2.291   0.478   2.254  0.0876  0.0615 -0.2511
19201W        W37405  17.097   7.745  13.083 -0.1471 -0.3439 -0.0216
19202W        W37406   8.126   9.889   0.673 -0.1005  0.1868 -0.3682
19203W        W37407   3.885  12.311   2.689 -0.0943 -0.3829  0.2224
19204W        W37408   5.350  10.290   1.911  0.0673 -0.0702  0.0340
19205W        W37409   0.422   9.907   2.438  0.3900 -0.0023 -0.0378
19206W        W37410   9.044  10.981   1.683  0.1702  0.2182 -0.2235
19207W        W37411  12.471  11.056   0.380 -0.0440  0.1222 -0.0935
19208W        W37412   7.552  10.164  15.230 -0.4609 -0.0037 -0.0097
19209W        W37413   3.587  14.639   4.567  0.0655  0.2801  0.1395
19210W        W37414   3.905   1.262   1.615  0.0287 -0.3570 -0.0521
19211W        W37415   2.299   1.902   4.669 -0.0113  0.0169  0.0930
19212W        W37416   4.809   0.831  13.975  0.0455 -0.2735 -0.1184
19213W        W37417   9.871   9.409   5.732  0.0383 -0.0861  0.0058
19214W        W37418   4.897  10.478  12.576  0.0971 -0.0505  0.5100
19215W        W37419  10.609  14.074   0.505  0.1273  0.0339  0.1484
19216W        W37420  12.153   1.177   2.853  0.2781  0.1495 -0.1231
19217W        W37421  10.256  14.998  15.210 -0.5562  0.1275 -0.1137
19218W        W37422  15.260  13.400  11.980  0.1707 -0.1327  0.2003
19219W        W37423  11.145  14.639   9.980 -0.0503  0.0374 -0.0576
19220W        W37424   3.602  11.147   0.641  0.3155 -0.0536 -0.2250
19221W        W37425   3.196  16.100   2.596  0.3916 -0.0501  0.0529
19222W        W37426  13.090  11.289   3.314  0.1024  0.0245  0.1715
19223W        W37427  17.603   1.602   4.253  0.0995  0.0588  0.2271
19224W        W37428   2.349   6.128  12.502  0.1151 -0.2509 -0.2763
19225W        W37429   3.041   5.333  11.702 -0.0912  0.1605 -0.0062
19226W        W37430   7.330   8.337   2.510 -0.2103 -0.0060 -0.0044
19227W        W37431  16.953   2.927  11.609 -0.0633  0.1907 -0.1428
19228W        W37432  14.437  13.711   4.788 -0.0086  0.1435 -0.0421
19229W        W37433   0.129   1.892  11.118  0.2520  0.0068 -0.0246
19230W        W37434   1.695  11.013  15.031 -0.4323 -0.0102 -0.1620
19231W        W37435  16.537   3.223  13.125  0.2508 -0.1772  0.1739
19232W        W37436   9.244   1.451  15.230  0.2067 -0.0303  0.3540
19233W        W37437  17.893   5.386  12.972  0.1329  0.0465  0.2317
19234W        W37438   8.477  14.791  14.129 -0.1861 -0.2655  0.2520
19235W        W37439   2.529   8.293  12.517  0.3336  0.1509  0.0412
19236W        W37440  18.239   0.945  11.667 -0.1587  0.1533  0.0080
19237W        W37441  11.213   8.012  10.478  0.1191  0.1904 -0.0545
19238W        W37442  15.844   6.837   2.484 -0.2792  0.0490  0.0922
19239W        W37443  16.313  12.362   1.616 -0.1015  0.0173 -0.1930
19240W        W37444  11.348   9.052   3.362  0.0829 -0.1021  0.1464
19241W        W37445   5.568  10.247   4.728  0.1561  0.0342  0.2007
19242W        W37446  10.297  12.776   2.260 -0.0091 -0.1101 -0.0296
19243W        W37447  17.736   2.754   1.161 -0.1240 -0.1745  0.0914
19244W        W37448   6.745  17.028  11.308  0.1177 -0.3236  0.2348
19245W        W37449   5.096   8.222  11.168  0.2278  0.2772  0.0788
19246W        W37450   6.347  18.300   3.232 -0.0777 -0.1890  0.2125
19247W        W37451  10.082   7.297  13.584 -0.1243  0.2404 -0.1185
19248W        W37452   4.641   6.574  14.650 -0.1644 -0.2561  0.3140
19249W        W37453  13.060  12.996   2.562  0.1170  0.1124 -0.0766
19250W        W37454  13.560   8.191  14.288 -0.3405  0.0508  0.0382
19251W        W37455   0.401   6.681   2.561 -0.2676 -0.0484  0.1980
19252W        W37456   7.861   4.405   4.739  0.1282 -0.1434  0.1789
19253W        W37457  15.400   7.975  13.795 -0.3867  0.0212  0.2218
19254W        W37458  13.292   2.150   0.769 -0.1122  0.1517 -0.1702
19255W        W37459   3.996   2.271   2.517  0.0275  0.0117  0.1987
19256W        W37460   2.886   0.956   2.958 -0.0342 -0.1953 -0.1776
19257W        W37461   3.376   4.483   3.274 -0.2509  0.2556  0.3065
19258W        W37462   8.369  14.225  11.354 -0.1035 -0.0341  0.0679
19259W        W37463  12.068   4.411   2.614 -0.1964  0.0948 -0.0883
19260W        W37464   0.404   8.205   1.998  0.0410 -0.0971 -0.0100
19261W        W37465   8.503   1.395   0.605 -0.1945 -0.1814 -0.1194
19262W        W37466  13.680  10.202   1.935  0.0148 -0.1493  0.1323
19263W        W37467   5.416   8.842   5.120 -0.1874  0.1338  0.1364
19264W        W37468  10.373   6.547  11.741  0.1923 -0.1981 -0.0828
19265W        W37469  13.494  13.257  12.026 -0.1445  0.0337  0.0429
19266W        W37470  12.048  15.097  13.530  0.4405  0.1358 -0.1549
19267W        W37471  15.157   2.955  15.682 -0.0917  0.0308 -0.0949
19268W        W37472  18.288   1.352  11.980 -0.0080  0.1978 -0.0061
19269W        W37473  12.252  12.385  12.853  0.1588 -0.1649  0.0875
19270W        W37474  11.566  15.775   2.579 -0.1013  0.1097  0.1162
19271W        W37475   1.386   4.503  10.694 -0.0452 -0.1428  0.1939
19272W        W37476   4.058   4.363  15.712 -0.0885  0.0675  0.3246
19273W        W37477  12.135   7.096  13.018  0.1511  0.1244  0.2017
19274W        W37478  11.765   6.957   0.492  0.0533  0.0619 -0.0088
19275W        W37479   9.091  14.599   4.250  0.2218 -0.1203 -0.2138
19276W        W37480  12.667  12.381  11.612  0.2960  0.0242 -0.2818
19277W        W37481   9.023  14.390   3.103 -0.0841  0.1578 -0.2659
19278W        W37482  12.627   1.998  14.454  0.0543  0.1279 -0.0363
19279W        W37483  17.315  10.790   1.638  0.3531  0.0948  0.3627
19280W        W37484  13.259  16.326  13.832 -0.3577 -0.1311  0.1213
19281W        W37485  17.092   2.002  13.407  0.1153 -0.3464  0.0513
19282W        W37486   6.063  13.895  14.048 -0.1235  0.2209 -0.0828
19283W        W37487  12.195  13.140  15.398  0.1409 -0.2044 -0.0250
19284W        W37488  14.737  15.210   2.456 -0.2506 -0.2021 -0.2991
19285W        W37489   1.776  12.704   0.301  0.0220  0.0834 -0.2824
19286W        W37490   9.958   7.577   0.946  0.2234  0.1977  0.0385
19287W        W37491   1.464  13.750   0.121  0.1099 -0.0996 -0.1828
19288W        W37492  14.844  12.368  12.967  0.2054  0.1069 -0.0503
19289W        W37493   9.513  16.177  12.679 -0.1007 -0.1699 -0.1380
19290W        W37494   9.238   3.303   2.333  0.1419 -0.1407 -0.0660
19291W        W37495  12.935   8.520  14.715  0.1575  0.0565  0.0471
19292W        W37496  14.711  12.959   3.884  0.1624 -0.2011 -0.2811
19293W        W37497  12.637   0.082   2.649 -0.2743 -0.1698 -0.0601
19294W        W37498   3.406  12.519   2.610  0.1752 -0.1892 -0.0224
19295W        W37499   8.292   4.051   2.084 -0.0039 -0.0284 -0.0933
19296W        W37500  11.742   7.685  13.674 -0.2362  0.1928  0.3210
19297W        W37501   9.097   9.263  12.878  0.2433 -0.0355 -0.1405
19298W        W37502  10.951  12.283  11.368  0.1730 -0.0140 -0.1789
19299W        W37503   6.210  16.165   3.014 -0.2698  0.0008 -0.2133
19300W        W37504   5.721  10.744   9.775 -0.0444  0.3379 -0.0642
19301W        W37505  10.586   6.725   2.113 -0.3231  0.2279 -0.1826
19302W        W37506   0.300  15.169   0.195 -0.1899  0.0364 -0.1412
19303W        W37507  11.987  17.116  13.038 -0.0196 -0.1079  0.2175
19304W        W37508   3.320   5.739   1.248 -0.0143 -0.1305 -0.0337
19305W        W37509  10.971   2.493  12.224 -0.1296 -0.2356 -0.1758
19306W        W37510   0.020   4.667  12.916  0.1282  0.0344  0.0823
19307W        W37511   8.162   5.180   4.018  0.0128 -0.0419  0.1457
19308W        W37512  12.003  10.040   3.680 -0.2495 -0.4688  0.0263
19309W        W37513   7.096  14.578   2.020  0.1182 -0.2056  0.1196
19310W        W37514  16.838   2.673  10.784  0.1520  0.1637 -0.2203
19311W        W37515  10.174  18.136   0.632  0.2267  0.0150 -0.1659
19312W        W37516  12.771   9.992   1.565  0.0196  0.0794  0.1680
19313W        W37517   3.141   7.702   0.442  0.0276  0.0643 -0.0783
19314W        W37518   4.234  17.341   4.201  0.3363 -0.0934 -0.0333
19315W        W37519  18.037   5.140   4.111 -0.1627  0.0173 -0.1048
19316W        W37520  16.864  10.654  12.445 -0.1527  0.0403  0.4276
19317W        W37521   5.832   8.696   5.384 -0.0094 -0.1768  0.0951
19318W        W37522  14.896   1.809   1.176  0.0029  0.0475 -0.0388
19319W        W37523   5.899  15.761   1.107 -0.1743 -0.0064 -0.1014
19320W        W37524  17.009  10.647  14.871 -0.2529  0.2192 -0.3009
19321W        W37525   5.692   3.835   9.911 -0.2452  0.1312 -0.1345
19322W        W37526   5.836   8.635  14.911 -0.1672 -0.1394 -0.1992
19323W        W37527   2.889  14.068  12.846  0.0823 -0.0301  0.3401
19324W        W37528   2.207  18.273   0.841  0.3170 -0.2060 -0.1906
19325W        W37529   0.094  10.997  14.257 -0.1198 -0.3810  0.0876
19326W        W37530   0.314  11.619  11.170  0.2425  0.3166  0.0200
19327W        W37531  13.071   8.574  12.906  0.0226 -0.1937  0.1610
19328W        W37532  10.941   3.242   4.861  0.3226  0.2134 -0.0574
19329W        W37533   9.494  11.496  13.685 -0.3100  0.5234 -0.1309
19330W        W37534   3.047   2.726  15.287 -0.0569 -0.2369 -0.1187
19331W        W37535  15.122   3.044   3.305  0.0430 -0.3023  0.1692
19332W        W37536   0.644  13.122  12.694 -0.0018  0.1637 -0.1130
19333W        W37537   0.810  14.751  11.852  0.0656  0.0579  0.2152
19334W        W37538  15.983  10.262   2.740  0.1333  0.2980  0.0069
19335W        W37539   8.176   9.366  11.963  0.2910 -0.1691  0.1704
19336W        W37540   9.214  10.136   3.441 -0.3250 -0.1434 -0.2686
19337W        W37541   6.882  13.025  13.830 -0.0633 -0.3166  0.1415
19338W        W37542  14.964   0.384  11.686  0.2774  0.1491  0.2668
19339W        W37543  14.536  16.622  12.857 -0.2766 -0.2514 -0.1335
19340W        W37544  15.799   1.439   0.878  0.2680  0.3592  0.0301
19341W        W37545   0.679   9.869  15.071  0.0232 -0.0746  0.2634
19342W        W37546   5.927  17.457   2.674 -0.0497  0.0035  0.2389
19343W        W37547   6.462   6.831   2.820  0.1028 -0.0975  0.1263
19344W        W37548   5.461   7.542   4.679  0.1481 -0.0518 -0.0073
19345W        W37549   2.956   2.153   2.048 -0.1187 -0.0006 -0.0305
19346W        W37550  12.156   7.155  12.057 -0.0449 -0.0888  0.0864
19347W        W37551  13.307   9.401  14.469 -0.2137 -0.3529  0.0418
19348W        W37552   3.038   3.166  11.265 -0.0779 -0.2557  0.3724
19349W        W37553   4.020  14.918  10.895 -0.0923 -0.2015 -0.1652
19350W        W37554   6.889  13.254  13.350 -0.0854 -0.1965 -0.1756
19351W        W37555  16.928   7.808   3.312  0.0410 -0.0253  0.0898
19352W        W37556   3.793  13.200   3.770 -0.2850  0.0544 -0.3314
19353W        W37557  11.600  12.310  13.479 -0.0689  0.0667  0.3185
19354W        W37558  10.273   6.093   4.787  0.1117 -0.1838 -0.2608
19355W        W37559   1.873   6.351  14.990 -0.1928  0.4395  0.2924
19356W        W37560   1.064  16.861   4.221  0.0800 -0.1112  0.0745
19357W        W37561   9.412   2.054   4.762  0.3115 -0.0859  0.4163
19358W        W37562  15.410   0.170  15.475 -0.0727 -0.2615  0.1383
19359W        W37563  11.643  13.841  14.617  0.1875 -0.1574  0.2073
19360W        W37564  14.738   0.778   4.184  0.1702  0.0358 -0.2884
19361W        W37565  16.787   4.487  13.525 -0.2250 -0.0923  0.2275
19362W        W37566   7.124  14.231  12.775 -0.0829  0.1770  0.1932
19363W        W37567  18.205   2.641   2.891 -0.5888 -0.2151 -0.0515
19364W        W37568  11.517  17.528   4.442  0.0122  0.1539  0.0463
19365W        W37569  11.552   0.312  12.645 -0.0474  0.2197 -0.1091
19366W        W37570  12.241  11.843   3.311  0.0909  0.0641  0.0431
19367W        W37571   7.335   1.601   3.663  0.1251  0.2885  0.0724
19368W        W37572   5.875   5.085  14.290 -0.2089  0.0183  0.0607
19369W        W37573  14.274   9.764  11.560  0.0256 -0.2405  0.0567
19370W        W37574   7.996   5.499   5.805 -0.2015 -0.1699  0.0578
19371W        W37575   6.460   0.426  15.305  0.3333 -0.3211  0.4501
19372W        W37576  17.249   9.437   3.523  0.0576 -0.1081 -0.1123
19373W        W37577  13.899   8.410  12.646  0.2509 -0.2224 -0.0615
19374W        W37578   0.448   0.915  14.894  0.1141 -0.1240  0.3041
19375W        W37579  13.638   7.501  11.106  0.3537  0.0652  0.2022
19376W        W37580  16.800  13.508   3.092  0.0098 -0.1646  0.0585
19377W        W37581  17.813   9.228  11.893 -0.2231 -0.0693 -0.0365
19378W        W37582   2.416  12.382  11.733  0.2586 -0.3149  0.3008
19379W        W37583  10.332   7.273   0.236 -0.0153 -0.1765 -0.1217
19380W        W37584   1.807   3.657   4.488  0.0646  0.0074 -0.0298
19381W        W37585  17.571  12.253  14.782 -0.1071  0.2005  0.0246
19382W        W37586   1.938   7.458   3.674 -0.0460 -0.0147  0.1286
19383W        W37587  14.247  17.053   2.667  0.2674 -0.0628  0.0274
19384W        W37588  13.733   6.446  12.750  0.0496 -0.0618  0.3730
19385W        W37589   9.948   4.283   1.043 -0.1504  0.2439 -0.0176
19386W        W37590   0.342   4.928  14.289  0.0133  0.0892 -0.2053
19387W        W37591   7.760  10.362  13.513 -0.0668 -0.0275 -0.0886
19388W        W37592  17.032  14.508   1.140  0.0124 -0.0769 -0.0494
19389W        W37593  14.979  16.582   4.518  0.0060 -0.0945  0.1461
19390W        W37594   3.544   7.050  11.608 -0.0354  0.0623  0.0202
19391W        W37595   0.207  11.898  14.687  0.0581  0.1852  0.0896
19392W        W37596  10.081  13.505  11.966 -0.0164  0.0952 -0.0687
19393W        W37597   5.773  16.587   1.932  0.1343 -0.1823 -0.2509
19394W        W37598   7.086  14.714  14.486  0.1979 -0.0312 -0.0784
19395W        W37599   9.098   3.733   1.351 -0.4084  0.2905 -0.3557
19396W        W37600   4.723   4.889  10.401 -0.0813 -0.0494  0.4606
19397W        W37601  10.494  10.561   6.193 -0.4517 -0.1605  0.0356
19398W        W37602  13.418   4.572   1.360  0.2145  0.0429 -0.0943
19399W        W37603   2.885   8.969  15.381 -0.0001  0.2169  0.0140
19400W        W37604  17.026  11.642  13.714 -0.2019  0.1762  0.1343
19401W        W37605   1.758  15.220  12.024 -0.1608  0.1570  0.1322
19402W        W37606   4.676  14.275   2.595 -0.0745  0.0227 -0.2058
19403W        W37607   8.855   7.544   1.985 -0.0636  0.4253  0.1214
19404W        W37608   5.147   5.243   1.820 -0.1145 -0.1957  0.0124
19405W        W37609   0.926   1.600   4.763 -0.1975 -0.1646  0.1649
19406W        W37610  11.435   3.210  15.637 -0.0925  0.0297  0.1805
19407W        W37611   3.735  15.804  15.599 -0.1230  0.1440 -0.1915
19408W        W37612   5.186   0.971  11.344  0.4415 -0.1418 -0.1190
19409W        W37613  15.247  10.710   0.549 -0.4199  0.1120 -0.0291
19410W        W37614   2.657  12.742  11.507 -0.3191 -0.0550  0.0123
19411W        W37615  11.872  13.400   0.613  0.2660 -0.0306 -0.1634
19412W        W37616   0.794   2.519   3.553 -0.1551  0.0415  0.0483
19413W        W37617   4.748   7.783  14.018 -0.2004  0.0128  0.0293
19414W        W37618   4.049  10.775   2.924 -0.0936 -0.1684 -0.3094
19415W        W37619   2.048   7.153  15.579 -0.0626 -0.2106  0.0629
19416W        W37620   9.017   1.857  12.343 -0.0706  0.0008  0.0699
19417W        W37621  15.409   7.749  12.748  0.0129  0.0239 -0.0147
19418W        W37622  18.108   7.213   2.194  0.1155  0.0404 -0.2494
19419W        W37623   6.316   8.928   1.108 -0.0953  0.1002 -0.1147
19420W        W37624   2.592   3.340  12.207 -0.0524 -0.0146 -0.1667
19421W        W37625  13.865  16.020  11.143 -0.0602 -0.0747 -0.0278
19422W        W37626  18.245   9.759  11.468  0.2187  0.0779  0.2727
19423W        W37627  11.166  16.448  12.196 -0.3285 -0.3079  0.0124
19424W        W37628   4.491   8.842   1.862 -0.0685 -0.0786 -0.2973
19425W        W37629   7.299   1.627  14.195  0.0514  0.3498 -0.2045
19426W        W37630  10.420   9.872  14.643 -0.0894  0.0751 -0.0971
19427W        W37631  11.747   0.158   2.114 -0.2356 -0.0614  0.1765
19428W        W37632   2.923   1.429  11.029 -0.1053 -0.1457 -0.0316
19429W        W37633   1.856   7.064   0.325  0.0474 -0.1376  0.2809
19430W        W37634   2.577   4.413  15.525  0.1894  0.1301  0.0135
19431W        W37635   8.035  14.556  13.232 -0.0264  0.2195 -0.1075
19432W        W37636   0.669   5.635   1.707  0.1812 -0.4215  0.1248
19433W        W37637   1.463  14.159  12.501 -0.3101  0.1744  0.2432
19434W        W37638  10.117   8.115  13.379 -0.2115  0.0588 -0.2815
19435W        W37639   8.496   7.384  12.850 -0.0298  0.0736 -0.1663
19436W        W37640   9.054  13.781   4.854 -0.0032  0.0586  0.3749
19437W        W37641  14.141   1.375  11.076  0.3456  0.1992  0.3084
19438W        W37642   5.734   6.868   2.287  0.1461  0.1160  0.2310
19439W        W37643   1.250  11.646  13.650 -0.1093  0.2068  0.1925
19440W        W37644   0.864  16.226  15.172 -0.0632 -0.1267 -0.0417
19441W        W37645  18.039   0.476  14.890 -0.0361 -0.2881 -0.1910
19442W        W37646   9.563  12.943  13.612  0.2664  0.1217 -0.1377
19443W        W37647   3.275  13.572   2.565  0.0965 -0.2119 -0.1970
19444W        W37648   5.028   9.119  15.078  0.3758 -0.1792  0.2923
19445W        W37649   7.883   0.764   3.025 -0.2931  0.0129 -0.0802
19446W        W37650  11.105   1.237  14.979  0.1434  0.2434  0.2426
19447W        W37651   3.690  15.300   2.067 -0.4333 -0.3225 -0.1171
19448W        W37652   2.853   7.126   2.826 -0.0096  0.1432  0.0220
19449W        W37653   6.583   1.375   0.997  0.2138 -0.5873  0.0691
19450W        W37654   2.627  15.130   0.291  0.1116  0.2875  0.0477
19451W        W37655   1.601   0.557  12.788 -0.0558 -0.0436 -0.2156
19452W        W37656  12.077   2.075  14.512 -0.3283 -0.0112 -0.1376
19453W        W37657  16.406   3.346  11.053 -0.2958 -0.3225  0.0119
19454W        W37658   5.372  12.994  12.799 -0.0088 -0.0804  0.0107
19455W        W37659  14.555   6.605   2.533 -0.1850  0.1318  0.0226
19456W        W37660   7.722   5.835   0.851  0.0050  0.1767  0.5116
19457W        W37661  17.078   9.627   0.830  0.4826  0.1570 -0.0587
19458W        W37662   1.439  16.409   0.888  0.1227 -0.1130 -0.1727
19459W        W37663  12.360  16.283   1.576  0.1393 -0.1742  0.2432
19460W        W37664   9.355   8.603  14.781 -0.2418 -0.0471 -0.0309
19461W        W37665   0.282  12.588  11.212 -0.0547  0.1049  0.3242
19462W        W37666   0.256  13.332   0.058  0.2735  0.2769 -0.1295
19463W        W37667   3.431   7.243   0.209  0.0696  0.1367  0.0392
19464W        W37668   9.851   4.776  13.040  0.0130 -0.0719 -0.1328
19465W        W37669  12.162  17.547  14.727  0.4680  0.1289  0.2663
19466W        W37670   5.198  10.612   3.402  0.0161  0.2470 -0.2884
19467W        W37671  12.234   1.564  11.034 -0.1544  0.3918 -0.3484
19468W        W37672  13.553  13.993   1.632 -0.0267 -0.0333  0.1173
19469W        W37673   3.828   6.455   4.559 -0.0171  0.2673 -0.0916
19470W        W37674  12.701  13.854  11.555 -0.0292 -0.0714  0.0893
19471W        W37675   2.999   6.475  10.558  0.1233  0.0631 -0.0273
19472W        W37676   8.996  17.596  13.640  0.0827  0.3024  0.0068
19473W        W37677   9.559  17.177  12.443 -0.2316 -0.0771 -0.0777
19474W        W37678   3.535   4.402   0.035  0.3434  0.1732  0.2140
19475W        W37679   6.221   2.392  14.710  0.1649 -0.1879 -0.0027
19476W        W37680   9.229   1.863   3.540  0.3389  0.0653 -0.0480
19477W        W37681   0.759  16.755  15.442 -0.1566 -0.1349 -0.2343
19478W        W37682  11.758   5.254  14.617 -0.1908  0.2163 -0.2593
19479W        W37683   0.212   8.098  14.005  0.3223 -0.5596 -0.0762
19480W        W37684   4.076  11.487   1.332 -0.1341 -0.0775  0.0293
19481W        W37685  12.384   9.279   0.527  0.0642 -0.1031 -0.0008
19482W        W37686   7.915   8.851  14.543  0.0907 -0.2078  0.1575
19483W        W37687  15.762  16.164  13.739 -0.3312 -0.0214  0.1197
19484W        W37688  10.821   3.623  12.049 -0.2181 -0.0235 -0.0236
19485W        W37689  12.052   7.654   2.744  0.2467  0.0545  0.0168
19486W        W37690   7.723   3.305  12.837  0.0963 -0.0302  0.1756
19487W        W37691   4.990   5.514   3.814  0.0169  0.0941 -0.0156
19488W        W37692   0.124  16.780   0.866  0.0696  0.1908 -0.0356
19489W        W37693   0.202   7.490   4.579  0.0207  0.2109 -0.2268
19490W        W37694  14.295   8.643   3.502 -0.0844  0.6925  0.0965
19491W        W37695  10.663   4.269  15.145  0.2044  0.2002 -0.3222
19492W        W37696  11.622  13.949   0.750  0.2330 -0.0889  0.0051
19493W        W37697   6.515   1.704  13.995  0.1832  0.0027 -0.2480
19494W        W37698  11.597   8.884  10.570  0.0020  0.1453  0.2112
19495W        W37699  11.619   6.816   3.653  0.0652  0.1954  0.0557
19496W        W37700  16.194  13.279  13.779 -0.2681 -0.0050  0.0663
19497W        W37701  14.525   8.405  13.951 -0.1906 -0.3142  0.1364
19498W        W37702  13.070  10.206  13.335 -0.3673 -0.4292 -0.2221
19499W        W37703  12.244  15.218  12.542  0.1417  0.4461 -0.0024
19500W        W37704   0.064  14.553   2.607  0.0881 -0.2259  0.1826
19501W        W37705   2.685   6.972   4.167  0.1993 -0.1457  0.0515
19502W        W37706  11.396   8.347   1.255  0.0640  0.2050  0.1005
19503W        W37707  17.775  15.277   4.493  0.0812  0.1674 -0.0172
19504W        W37708   4.385  11.480   4.851 -0.0332  0.4033  0.0671
19505W        W37709   0.718   1.249   5.047 -0.0930 -0.2504 -0.0100
19506W        W37710   9.968   8.125   4.520 -0.0174  0.1104 -0.1137
19507W        W37711  10.410  14.872   4.636 -0.3875  0.1829  0.1797
19508W        W37712  14.971  11.816   3.670 -0.2157  0.2573 -0.3796
19509W        W37713   2.914   4.217  13.124 -0.0799  0.5062 -0.2003
19510W        W37714   0.722  15.374   4.054  0.0089 -0.0557  0.0735
19511W        W37715  13.805  12.472  12.626  0.1353 -0.1404  0.2184
19512W        W37716  10.236   2.428  14.539 -0.1022  0.0608 -0.1054
19513W        W37717  11.453   3.223   2.851 -0.3437  0.1859  0.0840
19514W        W37718   0.339  14.149  13.435 -0.0920 -0.1446 -0.2369
19515W        W37719   5.918   8.918   0.227  0.2815 -0.0005  0.0744
19516W        W37720  18.021   0.232  11.613  0.0328 -0.2737  0.3156
19517W        W37721   6.594   5.966   1.453 -0.1085  0.0694  0.2436
19518W        W37722   2.296  17.458  12.029 -0.3028 -0.0809 -0.0025
19519W        W37723   4.406   3.811  13.600  0.0971 -0.0369 -0.0343
19520W        W37724   2.249   5.271   2.024  0.1235 -0.1846 -0.0454
19521W        W37725  14.801   1.245   5.684 -0.2912 -0.1940 -0.0780
19522W        W37726   2.241  11.769  14.445  0.1373  0.0942  0.1509
19523W        W37727   1.150  15.727  12.661 -0.2585  0.0761  0.1344
19524W        W37728  10.843   0.291  13.332 -0.1369  0.2179  0.0274
19525W        W37729  12.661  17.087   2.842 -0.1970 -0.1349  0.0759
19526W        W37730  10.512  15.444  11.811  0.3522 -0.0087 -0.0603
19527W        W37731  15.837  10.416  13.374  0.0880  0.1699 -0.1010
19528W        W37732   6.276  11.656   3.082 -0.1470 -0.2859 -0.1070
19529W        W37733  10.480  17.624  11.556  0.0459  0.1965 -0.2636
19530W        W37734  14.498  14.503  13.908 -0.1053 -0.1881 -0.2974
19531W        W37735   2.255  15.269   2.889 -0.2930 -0.0686 -0.0190
19532W        W37736  16.544   7.178  14.712 -0.2653  0.0093  0.2868
19533W        W37737  13.074   1.376   4.092  0.0968  0.1966  0.1066
19534W        W37738  15.090   5.794  13.538 -0.2068  0.1089 -0.2637
19535W        W37739  15.792  15.319  13.025  0.0653  0.2344  0.0588
19536W        W37740   6.445   3.494   0.155  0.0089  0.1072  0.3376
19537W        W37741   5.319  14.354   4.354 -0.0157 -0.0265 -0.0238
19538W        W37742   5.394   5.460  10.747 -0.1081  0.2094 -0.1055
19539W        W37743  16.082  18.257  15.369  0.0301 -0.0342 -0.0909
19540W        W37744   7.656   8.378   0.045  0.2599 -0.1940 -0.0083
19541W        W37745   1.262   7.921  14.995  0.0179 -0.1492 -0.2598
19542W        W37746  14.091   5.645   2.170 -0.0955  0.1030 -0.0365
19543W        W37747   5.395  14.825   2.264  0.0637  0.0051  0.0023
19544W        W37748  16.055   3.387   3.829  0.1692 -0.1572  0.1924
19545W        W37749   0.854   1.883  15.081 -0.2568  0.0375  0.6099
19546W        W37750   1.317  10.480  15.635 -0.1724  0.3760 -0.1830
19547W        W37751  14.853  17.865  13.640 -0.3243  0.0342  0.0268
19548W        W37752  13.513  18.197   2.394  0.2538  0.0837  0.0312
19549W        W37753  16.320   3.119  13.786 -0.0493 -0.0146  0.2109
19550W        W37754  12.065  16.309  14.233  0.0439  0.2362  0.0566
19551W        W37755   3.840  13.994  10.120  0.1358  0.0253  0.0546
19552W        W37756   6.846   2.281   2.478  0.1915  0.0340 -0.0482
19553W        W37757   4.693  18.048   1.727 -0.0126 -0.4304 -0.0253
19554W        W37758  17.642   9.218  11.024 -0.0476 -0.2015  0.0918
19555W        W37759   0.840  10.279  12.331 -0.1664 -0.3831 -0.0249
19556W        W37760  17.815   1.438  13.076  0.1601  0.0390 -0.0307
19557W        W37761  10.005   0.810  12.408 -0.0422 -0.2135 -0.0165
19558W        W37762  16.584   3.656  12.360 -0.1651 -0.0067  0.2969
19559W        W37763   1.886   8.299   0.393 -0.0841 -0.0811  0.2014
19560W        W37764   2.312   2.959   0.161 -0.3546 -0.2176  0.2698
19561W        W37765   2.583   0.530  10.399 -0.1744 -0.2529 -0.0397
19562W        W37766  11.819   7.666   5.140 -0.0542 -0.3492 -0.1888
19563W        W37767  14.946   2.389  12.487 -0.0261 -0.3469 -0.0371
19564W        W37768   1.762  16.880  11.657  0.0895  0.0433 -0.0160
19565W        W37769  10.193   4.813   3.235  0.1138 -0.2865 -0.1363
19566W        W37770  17.515  14.294   1.841  0.1148  0.1275 -0.0174
19567W        W37771   8.551   0.080  15.706 -0.0254  0.3374 -0.0795
19568W        W37772   8.650   4.780  15.270  0.1151 -0.1491 -0.1069
19569W        W37773   1.264  13.511   4.132 -0.0273  0.1164 -0.1555
19570W        W37774  13.385   8.751   3.018  0.0790  0.0010  0.1665
19571W        W37775  17.245   9.204  15.248  0.2882 -0.1410  0.2409
19572W        W37776   3.147  15.094   5.224  0.3085  0.5161 -0.1014
19573W        W37777  11.150  13.272   1.072 -0.0097  0.0624 -0.3899
19574W        W37778   8.725   6.533   0.049  0.4791  0.2101  0.2426
19575W        W37779   4.929   2.718  15.195 -0.0626 -0.1881  0.4399
19576W        W37780   6.694   7.674  12.153 -0.2469 -0.0907 -0.1711
19577W        W37781  12.235  17.808  15.271 -0.0361  0.1694 -0.2432
19578W        W37782  15.836   9.128  14.000  0.2214  0.1531 -0.3822
19579W        W37783   0.894   7.704   4.920  0.2072 -0.0004 -0.0631
19580W        W37784   4.037   8.959  15.521  0.1295  0.0925  0.2000
19581W        W37785   6.610  17.252  12.212 -0.1781 -0.0288 -0.0466
19582W        W37786  12.046   9.677  13.403 -0.2999  0.2477 -0.2942
19583W        W37787   9.127  14.538  11.349 -0.0315 -0.0046 -0.0003
19584W        W37788  12.762   8.245  12.194 -0.0112  0.0979 -0.0872
19585W        W37789   5.977   9.770   1.172  0.0999 -0.2077 -0.0405
19586W        W37790   9.953  16.725   2.312 -0.1644  0.1412 -0.0360
19587W        W37791   7.645  11.611   0.291 -0.0459 -0.2721  0.3527
19588W        W37792   7.860   1.455  11.949 -0.1220 -0.2739  0.0097
19589W        W37793  18.192   2.199   0.385 -0.3955  0.2267  0.1752
19590W        W37794  10.815  13.528  11.386  0.3009  0.0981 -0.1751
19591W        W37795   1.045  18.117  14.964 -0.0710 -0.0400 -0.0147
19592W        W37796   5.168   9.664  11.496 -0.0386  0.1662  0.1362
19593W        W37797  15.478  15.175  13.790  0.1663  0.0621  0.1504
19594W        W37798  10.004  16.043   4.222 -0.1953  0.3537  0.1070
19595W        W37799  16.199   7.966  14.227  0.1010 -0.2574 -0.0923
19596W        W37800   5.032   9.544  13.151 -0.0508 -0.1079  0.0510
19597W        W37801  10.423   9.989   0.691 -0.0348  0.0472 -0.3518
19598W        W37802   5.252  10.192  12.695  0.1535  0.2004  0.0154
19599W        W37803  17.519   4.257   0.002 -0.0209  0.0573 -0.0258
19600W        W37804   6.239   5.437  11.744  0.1241  0.0159  0.0890
19601W        W37805  11.655  12.093  11.517  0.1096  0.0160 -0.1366
19602W        W37806   2.329  10.167   1.732  0.2560  0.2499 -0.0190
19603W        W37807   8.392   7.242  11.229 -0.1007 -0.3797 -0.0508
19604W        W37808   1.374   5.595   0.585 -0.0896 -0.2708 -0.3016
19605W        W37809   7.111  10.529   0.347 -0.3110 -0.1518 -0.2737
19606W        W37810   0.408  10.408  14.974 -0.2264  0.0964 -0.2703
19607W        W37811  15.757  16.448   3.218 -0.0446 -0.2645  0.0616
19608W        W37812   3.331   9.532   0.999  0.0263 -0.0768  0.4759
19609W        W37813   2.688   9.980  13.689  0.3471  0.0261 -0.1206
19610W        W37814  13.221   2.971  11.757  0.4611  0.2031  0.2805
19611W        W37815   9.042  17.123   5.189  0.0680  0.1560 -0.2310
19612W        W37816   0.365   2.758  13.563  0.0023 -0.1140  0.1555
19613W        W37817   3.861  12.796   0.015  0.1827  0.1754  0.0253
19614W        W37818  15.470  18.228   0.685 -0.0645  0.1020  0.0559
19615W        W37819  17.484  16.141  14.224  0.0109  0.0113 -0.1068
19616W        W37820   9.783   9.517  15.641  0.1313 -0.0483 -0.0962
19617W        W37821  12.233  17.565   3.517 -0.0296 -0.2228 -0.0269
19618W        W37822   8.105   6.500   3.210  0.2109 -0.2582 -0.1916
19619W        W37823  13.817  18.069  13.611 -0.0991 -0.0417 -0.1355
19620W        W37824  11.092  17.042  10.520  0.1758  0.2798 -0.1178
19621W        W37825  13.827   1.893  14.890 -0.5121  0.0262  0.4518
19622W        W37826  10.065   1.476  14.651 -0.1895 -0.3222  0.0754
19623W        W37827  14.836   6.042   0.340  0.2100 -0.1310  0.0369
19624W        W37828   1.213  18.137  11.995  0.0839 -0.4066  0.0601
19625W        W37829  12.349  14.711   2.201  0.1120 -0.1512 -0.0708
19626W        W37830   3.120  15.458   0.934 -0.1355 -0.1029  0.1585
19627W        W37831  12.385   4.302   3.317  0.0153  0.1366 -0.4089
19628W        W37832  17.715   7.626   2.379  0.2324 -0.0414  0.1675
19629W        W37833  15.903  15.716   0.087  0.2188 -0.0658  0.0876
19630W        W37834   8.583   6.748   4.446  0.1199 -0.0788  0.2300
19631W        W37835  10.197  11.381  14.808  0.2249  0.0453 -0.0285
19632W        W37836   5.092  12.290   4.347 -0.2256  0.0847 -0.0816
19633W        W37837   8.782  11.319   4.331  0.0783 -0.0893 -0.1974
19634W        W37838  17.373  14.282   3.955  0.0015 -0.1239 -0.1326
19635W        W37839  13.506   2.964   0.793  0.0559  0.0681 -0.0643
19636W        W37840  15.174  13.814   0.340 -0.3559  0.0600 -0.1012
19637W        W37841   0.157   6.691  14.498 -0.1371 -0.0741  0.1569
19638W        W37842   0.251  12.270  12.767  0.0306 -0.1480 -0.0473
19639W        W37843  15.095   6.575  13.002  0.2149 -0.1064  0.0216
19640W        W37844   9.675   3.319  15.313  0.0611  0.1060 -0.0106
19641W        W37845   6.249  15.286   2.743 -0.0010 -0.2382  0.0288
19642W        W37846  13.722   6.705   3.618  0.1589 -0.0761  0.1956
19643W        W37847   7.743   0.564  15.528  0.1691  0.1195  0.0279
19644W        W37848  17.583  12.358   2.553  0.0404 -0.1468 -0.0446
19645W        W37849   3.536  16.851   4.550 -0.2928  0.1821 -0.0106
19646W        W37850   4.037   0.668   0.104 -0.4386  0.3606 -0.1673
19647W        W37851   0.303  17.036  11.509 -0.0104 -0.0199  0.0085
19648W        W37852  11.050  10.873   1.954  0.0005 -0.0562 -0.0966
19649W        W37853   5.831  15.076  12.306 -0.2791 -0.0761  0.2124
19650W        W37854  10.616  18.372   0.640 -0.0464  0.3498  0.2413
19651W        W37855  17.315   6.986  13.663  0.2953 -0.3401 -0.1092
19652W        W37856   0.530   1.172   0.697  0.0081  0.2441  0.3293
19653W        W37857   9.853  11.353   3.284 -0.3811  0.1351 -0.1302
19654W        W37858   5.217   5.621  12.732 -0.0895  0.1012 -0.4008
19655W        W37859   9.593   8.054   3.765  0.0006 -0.0149 -0.0881
19656W        W37860   1.658   5.282  12.149  0.1063  0.1855 -0.1166
19657W        W37861  13.017   9.966  15.210  0.4204 -0.2034 -0.0805
19658W        W37862   5.404   8.948   3.038 -0.0115  0.0274  0.1742
19659W        W37863   5.554   3.173  14.385 -0.1078 -0.0572  0.3262
19660W        W37864  17.209  17.441  14.444 -0.0249 -0.0128 -0.2083
19661W        W37865   6.736  13.088   3.496  0.2988 -0.1066 -0.3069
19662W        W37866  15.389   3.304  15.392 -0.2061  0.2554  0.0467
19663W        W37867   7.095   7.645  12.639 -0.2968  0.0841 -0.0193
19664W        W37868  15.217  13.940   4.702 -0.0401  0.0290  0.5214
19665W        W37869   7.247  15.613  14.533 -0.2331 -0.2497  0.1681
19666W        W37870   7.583   5.516   4.989  0.2807  0.0281  0.1089
19667W        W37871   8.912   3.314  11.477  0.0958 -0.0546  0.0797
19668W        W37872  12.601   3.131  11.095 -0.1273  0.0096  0.3165
19669W        W37873  12.719   3.402   1.875  0.1381  0.0785 -0.1319
19670W        W37874  14.449   3.524   2.412  0.0985 -0.2051  0.2201
19671W        W37875   2.176   1.022  15.431 -0.1926 -0.1984 -0.0392
19672W        W37876  17.001  12.726  13.231  0.3153 -0.1332 -0.2734
19673W        W37877  12.612   1.494   3.149  0.0344  0.2477 -0.0195
19674W        W37878   2.099  16.821  12.131 -0.0797  0.2769  0.0042
19675W        W37879   8.799   2.496   3.961  0.1689 -0.2425 -0.1458
19676W        W37880   9.078  11.939  11.189  0.0009  0.2465  0.0624
19677W        W37881  13.103   1.684   1.670  0.0976  0.1652 -0.0034
19678W        W37882   9.879  10.579   4.384  0.0621  0.0320 -0.3617
19679W        W37883  16.688  10.902   0.140  0.0164  0.0422  0.0829
19680W        W37884   7.864  13.792  13.167  0.1434 -0.3627 -0.1617
19681W        W37885   8.640   7.301   3.492  0.1127  0.0474  0.0382
19682W        W37886  17.271  15.053  13.269  0.2665 -0.0847 -0.1771
19683W        W37887  13.467  14.319  13.098 -0.0392 -0.1224  0.2549
19684W        W37888   8.979  13.120   4.329  0.0962  0.2217  0.0692
19685W        W37889   5.044  12.267   3.481  0.2456  0.0724  0.2950
19686W        W37890   3.936  10.025   3.194  0.0968  0.1524  0.2095
19687W        W37891  13.959  17.879   2.404 -0.0429 -0.3725 -0.1406
19688W        W37892   2.484  11.323  14.775 -0.0829  0.0689  0.3484
19689W        W37893  15.786   6.589   5.337 -0.2508  0.0873  0.0446
19690W        W37894   4.935  17.937   2.207  0.1805  0.2501  0.0540
19691W        W37895  15.463   3.401   1.589 -0.1107  0.2775  0.1580
19692W        W37896  17.404  10.324  14.053 -0.0783 -0.1248  0.3069
19693W        W37897  16.677   6.683  15.652 -0.0294  0.0406  0.0594
19694W        W37898  10.057   2.718  13.166  0.1564  0.2752  0.2465
19695W        W37899   0.868   9.001  13.398 -0.0753 -0.3215  0.0449
19696W        W37900  18.110  14.566   0.258 -0.1430  0.0036  0.1809
19697W        W37901  14.691   7.915  14.790 -0.0758  0.0424 -0.0130
19698W        W37902   0.913   5.946  10.265  0.2355 -0.1133  0.2095
19699W        W37903   6.667   1.462   0.251 -0.0384 -0.3164  0.0132
19700W        W37904   7.072  14.707  12.996  0.0903  0.0777 -0.0416
19701W        W37905  12.301   1.058  14.665  0.1814 -0.1166 -0.2041
19702W        W37906   4.906  14.721  12.075  0.0133 -0.0274 -0.0357
19703W        W37907   8.706  12.491   0.444 -0.3150 -0.2078  0.2019
19704W        W37908  16.135   1.766  13.691 -0.1604  0.1863 -0.0480
19705W        W37909   9.386  12.015   1.689 -0.1651  0.3710  0.0690
19706W        W37910   7.788   3.372  11.558  0.1579 -0.1476  0.1041
19707W        W37911   5.199  16.995   2.822 -0.2145  0.0746  0.1329
19708W        W37912   4.001  18.204   2.332 -0.3317 -0.0960 -0.1039
19709W        W37913   9.105   4.987  15.473 -0.3221  0.0474  0.0007
19710W        W37914  12.657  16.592   3.729 -0.0697 -0.0103  0.1002
19711W        W37915  12.095   2.792  14.224 -0.0589  0.2177  0.0871
19712W        W37916  11.480  18.092  13.439 -0.0394  0.0160 -0.2528
19713W        W37917   9.684   1.932   3.213  0.1569  0.4134  0.1761
19714W        W37918   6.699  13.979   0.182  0.3025  0.1962 -0.3209
19715W        W37919   2.325   3.909  10.866 -0.1151  0.1573  0.3732
19716W        W37920   0.329   0.964   1.266  0.1414  0.2567  0.2954
19717W        W37921  12.512  11.080   1.393 -0.3376  0.0319  0.1552
19718W        W37922  10.034  11.337  11.634  0.0620  0.0241  0.0142
19719W        W37923   9.836   2.872  11.548  0.4378  0.1203 -0.0375
19720W        W37924  12.908  13.662   3.881  0.0596 -0.1977  0.2165
19721W        W37925  11.524   9.096   2.033  0.0270 -0.1302  0.1655
19722W        W37926   9.793  17.185  13.839  0.2748 -0.0727  0.0555
19723W        W37927   7.160   9.261   3.116 -0.0387  0.2114  0.1925
19724W        W37928  13.767  10.086   3.234  0.2251  0.4096  0.0204
19725W        W37929  15.101   4.082   3.513 -0.1196  0.0418 -0.1721
19726W        W37930   2.852   8.161  15.699  0.2469 -0.0458  0.0053
19727W        W37931   3.265  17.919   1.813  0.4743 -0.2775 -0.1154
19728W        W37932   2.677   2.062   0.457  0.1657  0.0848  0.2073
19729W        W37933   1.759   3.989   4.086  0.0263 -0.1226  0.0735
19730W        W37934  12.206  17.727  14.178 -0.1976  0.1082  0.1192
19731W        W37935   2.739   5.304  12.545  0.2936 -0.1787 -0.3548
19732W        W37936  12.068  13.631   5.918 -0.0819 -0.0409  0.0176
19733W        W37937   4.390  17.359  13.027  0.0792  0.0590 -0.2031
19734W        W37938   5.537  15.755  12.648  0.1549 -0.0286  0.3116
19735W        W37939  11.772   5.474   1.459 -0.0381 -0.1051  0.3890
19736W        W37940   4.905  17.406  14.269 -0.3064 -0.1269  0.0089
19737W        W37941  17.889   5.188  11.705  0.1077  0.1152 -0.3147
19738W        W37942   7.814   2.380   3.168 -0.1087 -0.3892 -0.0974
19739W        W37943  13.973   1.972   1.557  0.4179 -0.2489  0.1194
19740W        W37944   1.558  10.105   3.037  0.2004 -0.3114 -0.2104
19741W        W37945  12.457   6.199   0.198 -0.1330  0.1563 -0.2350
19742W        W37946  16.621   5.075  12.110 -0.2791  0.0627  0.0265
19743W        W37947   1.770  13.810   2.413  0.1112 -0.0717 -0.2130
19744W        W37948   8.723  10.217   2.040  0.1917 -0.0608 -0.3463
19745W        W37949  11.160  12.750  12.171 -0.0104  0.1414  0.0603
19746W        W37950   3.007   6.289   2.470  0.1738 -0.2866  0.1304
19747W        W37951  17.864   7.774   2.856 -0.1491  0.0527 -0.1356
19748W        W37952  15.207   2.369   4.591 -0.0151  0.0440  0.0187
19749W        W37953  12.351   1.995   3.037 -0.1935  0.2952  0.1913
19750W        W37954   9.872  16.227  11.657  0.0256 -0.3847 -0.1134
19751W        W37955   6.678  11.680   3.907  0.0471  0.1083 -0.3934
19752W        W37956   3.557  12.504  13.433 -0.0870  0.0314 -0.4252
19753W        W37957   0.260  14.435   3.061  0.1137  0.0338  0.2274
19754W        W37958  14.345  14.675  10.477  0.2052 -0.1576  0.0006
19755W        W37959   9.669   5.629   1.538 -0.1372  0.1150  0.1048
19756W        W37960  14.344   8.321  12.867 -0.0875  0.0095  0.1663
19757W        W37961  12.366  12.070  13.824 -0.1624  0.3199 -0.0669
19758W        W37962  17.439  14.762  13.696 -0.0297 -0.0143  0.2656
19759W        W37963   5.481   3.083   2.034  0.2609  0.3403 -0.1956
19760W        W37964   2.740   7.269   3.727 -0.0008  0.1042  0.0367
19761W        W37965   8.878   3.706  15.355  0.4690 -0.2179 -0.0837
19762W        W37966  13.124  10.334  11.129  0.2027  0.2790 -0.0188
19763W        W37967   2.191   7.296  14.023 -0.0997 -0.1170  0.0731
19764W        W37968   8.042  14.344  12.061  0.1357  0.0410 -0.1554
19765W        W37969  10.619   2.996  14.849 -0.2864 -0.1399  0.1389
19766W        W37970   5.904   8.586   4.876 -0.1411 -0.0686 -0.0817
19767W        W37971  14.068  18.311  12.594  0.0287  0.2385 -0.0400
19768W        W37972   9.972  10.863  15.351  0.1250  0.1297  0.0275
19769W        W37973  11.910  17.946  12.421 -0.0004  0.1849 -0.0725
19770W        W37974   9.898   9.021  15.479  0.0412  0.0121 -0.1636
19771W        W37975   8.501  10.326  14.128  0.1707  0.1392 -0.0450
19772W        W37976   0.743  13.767   1.507  0.1356  0.1073  0.1945
19773W        W37977   4.864   4.827  14.214  0.0998  0.0350  0.0179
19774W        W37978   5.073  13.442  14.029  0.1521  0.1579 -0.0818
19775W        W37979  15.891  15.662  13.588  0.2160  0.0764 -0.0365
19776W        W37980   6.962  12.921  10.617 -0.3354 -0.1868  0.3433
19777W        W37981   1.182   1.855   2.200 -0.0645 -0.2367  0.1942
19778W        W37982  14.812   0.879  11.881 -0.1188  0.4120  0.0054
19779W        W37983  17.811  11.683  13.068  0.2066 -0.0933 -0.3375
19780W        W37984  17.108   9.629   4.672  0.0867 -0.1204 -0.1591
19781W        W37985  11.273   0.153   2.336  0.1050  0.2542  0.0799
19782W        W37986  15.224   6.272   4.716  0.1205  0.1291  0.0605
19783W        W37987  15.608  10.050  13.010 -0.0004 -0.0851 -0.1137
19784W        W37988   4.752   9.337   1.003  0.1212 -0.0284 -0.2978
19785W        W37989  13.415  15.817   6.118  0.4910 -0.1964  0.4899
19786W        W37990  15.438  16.778  14.500  0.1532  0.0273 -0.2144
19787W        W37991   6.367  15.196  12.523  0.1026  0.1222 -0.0690
19788W        W37992  10.543  13.512   2.899 -0.1864 -0.2305  0.2151
19789W        W37993  11.947   0.770  14.887  0.0341 -0.0987 -0.0371
19790W        W37994   7.257   5.020  12.532  0.1190 -0.0069  0.1058
19791W        W37995  10.595  17.366  13.906 -0.1250  0.1107 -0.0966
19792W        W37996   8.311  12.646  13.854  0.0249 -0.0405  0.0844
19793W        W37997   6.911  11.536   4.272 -0.0550 -0.1134 -0.1164
19794W        W37998  11.107   6.380   4.633  0.1085 -0.0647  0.2295
19795W        W37999  17.506   8.809   3.126  0.1876 -0.0392  0.2373
19796W        W38000   6.290  16.334  10.865  0.0231  0.2335 -0.0392
19797W        W38001  16.576  11.161   1.057 -0.1700 -0.1474  0.1236
19798W        W38002  13.268   2.780  15.643  0.2063  0.1685 -0.1465
19799W        W38003   9.610   9.872   3.381 -0.0014 -0.2059 -0.3716
19800W        W38004   6.349  15.414  12.967 -0.0711 -0.1465 -0.2641
19801W        W38005  15.434   6.787  13.765 -0.1822  0.0492 -0.3026
19802W        W38006  12.407   4.147   2.332  0.0691  0.1707 -0.1780
19803W        W38007  15.200   1.922  12.554 -0.2062  0.0500 -0.0994
19804W        W38008   3.181  11.245   3.838  0.0240 -0.0134  0.1940
19805W        W38009  13.939   9.105   1.479  0.0117  0.0288 -0.0855
19806W        W38010  11.524   5.540  11.397 -0.1112  0.0801  0.0013
19807W        W38011   8.931   9.250   1.638  0.2542 -0.0418  0.3228
19808W        W38012  12.228  17.142   1.054  0.4379  0.4256 -0.3743
19809W        W38013   8.181   7.081  14.817  0.2951  0.1833  0.4649
19810W        W38014  10.812   1.166  10.756  0.1868  0.0149  0.0900
19811W        W38015  17.609   3.439   1.604  0.1208 -0.0783  0.0925
19812W        W38016  15.863  14.192   2.611 -0.1142 -0.2346  0.0245
19813W        W38017   9.809  11.670   3.701 -0.1890 -0.1423  0.2853
19814W        W38018  10.430  16.450   1.320 -0.2458 -0.3591 -0.0899
19815W        W38019  16.570   5.613  15.285  0.2910 -0.0926  0.2299
19816W        W38020  11.130  10.596   0.944 -0.3097  0.2444  0.1547
19817W        W38021  17.425   8.300  12.734 -0.2711 -0.2720  0.0499
19818W        W38022   3.507  11.740  12.257 -0.2322  0.0395 -0.0217
19819W        W38023   1.598   3.058  13.200  0.1381 -0.2029 -0.0372
19820W        W38024   7.460  18.172  14.205 -0.0929  0.0224 -0.0639
19821W        W38025   2.435  12.455   2.655  0.2300  0.1247 -0.2350
19822W        W38026   2.502   1.481  15.629 -0.2712  0.2961  0.3359
19823W        W38027   8.789   8.021  15.361  0.3057  0.2489  0.1145
19824W        W38028   8.837   7.907   0.609 -0.1253 -0.3754 -0.3037
19825W        W38029  16.818   2.328  11.643 -0.0791  0.2512 -0.3022
19826W        W38030  14.664  11.267  10.287  0.2116  0.0262 -0.4525
19827W        W38031  10.793  15.856  13.790  0.1144 -0.1381 -0.2620
19828W        W38032   8.977  16.864  13.002 -0.0392 -0.1562 -0.0728
19829W        W38033   4.832  12.460   1.142  0.3202 -0.0754  0.0188
19830W        W38034   9.025  16.783  11.836  0.2164 -0.3562  0.2603
19831W        W38035   4.915  15.181  15.429  0.3384 -0.0943  0.3103
19832W        W38036   3.949   6.553   2.432 -0.0208  0.1017  0.0897
19833W        W38037  10.651   9.567  12.036 -0.3691  0.0378 -0.2415
19834W        W38038   6.579   8.219  13.937 -0.1984 -0.0903 -0.1976
19835W        W38039  13.270  16.773  15.527  0.2103  0.3876 -0.2113
19836W        W38040   3.275  17.424  11.935 -0.2176 -0.1978 -0.0328
19837W        W38041  15.412   4.378  12.821 -0.0233  0.1149  0.1758
19838W        W38042   0.835  18.164   3.761  0.2289  0.0759  0.2790
19839W        W38043   4.592  17.102   2.705  0.0455  0.0042 -0.0837
19840W        W38044   3.799   4.518  13.323 -0.0717 -0.0595  0.2889
19841W        W38045  13.678   0.841   2.545 -0.5274 -0.2769  0.0344
19842W        W38046  14.153  18.131  11.616 -0.0633  0.0872  0.0955
19843W        W38047  10.429   1.260   2.688 -0.1451  0.0737 -0.0106
19844W        W38048   0.126   6.396   2.892  0.0920 -0.0530 -0.3071
19845W        W38049  16.901   4.484   3.753  0.2616 -0.2140  0.1088
19846W        W38050   2.216  18.022   1.720 -0.0156 -0.1898 -0.0477
19847W        W38051   6.815   9.963  15.519 -0.0179  0.1132 -0.3164
19848W        W38052  15.092  12.947  14.473 -0.1055 -0.1111  0.3608
19849W        W38053   8.474  11.764   4.344 -0.0492 -0.0802  0.3926
19850W        W38054  14.374  11.394   4.698  0.0088 -0.2331  0.2690
19851W        W38055  14.004  17.170   3.098 -0.1370 -0.4963  0.0608
19852W        W38056   7.808  18.224   4.613 -0.2445 -0.0151 -0.1208
19853W        W38057  12.461  15.410   0.498 -0.1168  0.1316  0.2718
19854W        W38058   4.709  10.121  14.214 -0.0078  0.0951  0.0646
19855W        W38059  14.764   3.258  12.065  0.0455  0.0278  0.0719
19856W        W38060  12.106   2.627   0.301  0.2895  0.2927 -0.0032
19857W        W38061   4.151   1.308   2.447  0.0544 -0.3911 -0.0660
19858W        W38062   0.482  13.655  12.673 -0.0256 -0.2799  0.1000
19859W        W38063  11.164   3.886   1.239  0.1033 -0.0989 -0.1013
19860W        W38064  14.819   4.886  10.668 -0.1489 -0.0230  0.0836
19861W        W38065  13.261   5.432  12.119 -0.0336 -0.2135  0.1536
19862W        W38066  16.342   3.045  15.506  0.0174 -0.2058  0.1494
19863W        W38067  14.308  13.893  12.398  0.1177  0.1635  0.0773
19864W        W38068   6.245   4.170  11.618 -0.1996  0.1206 -0.0606
19865W        W38069   5.390   2.766   0.476  0.1569 -0.1442 -0.1439
19866W        W38070   9.517   4.165   1.350 -0.2311 -0.0497 -0.0128
19867W        W38071   0.772  10.330   0.203 -0.1057  0.2787  0.0477
19868W        W38072  10.116   7.385   4.312 -0.1954  0.0177  0.0918
19869W        W38073  10.377  16.891   2.567 -0.1468 -0.1484  0.1944
19870W        W38074  14.084   7.492   0.208  0.4730  0.2479 -0.2156
19871W        W38075   6.672   3.812  12.633 -0.2118  0.1749 -0.2183
19872W        W38076   6.158   6.722  15.086  0.0728  0.0852 -0.0982
19873W        W38077  12.764   9.114  13.852 -0.1335 -0.1865 -0.0473
19874W        W38078   8.780  16.764   3.940  0.0827 -0.2882  0.0787
19875W        W38079  12.874  13.586   0.601 -0.2623  0.0402  0.0590
19876W        W38080   9.173  11.097  12.637  0.2097  0.1579  0.0090
19877W        W38081   9.970  15.738   1.310 -0.0315 -0.0532 -0.3202
19878W        W38082   9.276   0.321   2.872  0.1541 -0.3282  0.0771
19879W        W38083   5.757   5.851   3.423  0.1047  0.1752  0.0082
19880W        W38084   2.826  11.411  13.648 -0.0492  0.2039  0.2252
19881W        W38085   0.605  14.097  12.064  0.0694  0.0360 -0.1379
19882W        W38086   6.696   3.748   1.361 -0.0819  0.1109  0.0565
19883W        W38087   6.408  17.623   0.758 -0.1466 -0.0035 -0.1079
19884W        W38088  16.837   5.884  10.841  0.0242  0.1625  0.4376
19885W        W38089  13.219  13.249  11.441 -0.0973 -0.1049  0.0129
19886W        W38090  15.178   4.316  14.524  0.2383  0.0956 -0.3627
19887W        W38091   4.494  13.333  15.162 -0.0773 -0.0282 -0.0820
19888W        W38092   6.337   3.714   4.908 -0.1335  0.1912 -0.0297
19889W        W38093   6.315   9.779   3.308  0.1182  0.2037 -0.0002
19890W        W38094  10.283   6.859  14.280 -0.2772 -0.3330  0.3165
19891W        W38095  16.576  15.100   4.646  0.1807  0.2298 -0.1854
19892W        W38096  16.130   1.133  12.398  0.0764  0.5271 -0.1674
19893W        W38097   1.412  16.180   3.993 -0.1175 -0.1690  0.1183
19894W        W38098   8.079   4.869   0.792 -0.0115  0.1670 -0.0900
19895W        W38099  12.840   2.608  11.852  0.0738 -0.0651 -0.3095
19896W        W38100   4.633   8.535   0.617  0.1068 -0.2147 -0.1937
19897W        W38101   7.188   8.418  14.880 -0.3155  0.1694  0.0160
19898W        W38102  17.129   5.054  13.588 -0.1114  0.0397  0.0236
19899W        W38103  15.199  17.367   3.883  0.1191  0.2395  0.0823
19900W        W38104  14.084   1.465   1.364 -0.1445  0.0516  0.1218
19901W        W38105  16.335   0.985   0.270  0.1118 -0.2294  0.3343
19902W        W38106   3.299   4.438  11.361  0.1146  0.0817  0.0302
19903W        W38107  14.373   6.422   4.657 -0.1091  0.1003 -0.0395
19904W        W38108   7.013   3.366  14.936 -0.0872  0.0322  0.3724
19905W        W38109  15.976   9.972  12.014 -0.2535  0.1003  0.0074
19906W        W38110   1.451  16.813   1.155 -0.3295 -0.1024  0.0556
19907W        W38111  13.686   0.036  10.428 -0.1315 -0.1499  0.1690
19908W        W38112   6.535   4.111   5.592 -0.2984  0.1470 -0.0442
19909W        W38113   7.414   4.664  15.542 -0.0480  0.1132  0.0131
19910W        W38114   6.859   0.662  13.245  0.0119 -0.1369 -0.2187
19911W        W38115   4.735   0.585   0.173 -0.2045 -0.0301  0.1947
19912W        W38116   2.351   1.235   0.794 -0.0431  0.1013 -0.2994
19913W        W38117   4.036   1.466  13.256  0.1574  0.0570  0.3819
19914W        W38118   7.080  18.315   3.928  0.3062 -0.0174  0.0843
19915W        W38119   5.771  12.194   0.037 -0.1097  0.0086  0.1070
19916W        W38120  17.838   9.677  15.590 -0.3215 -0.0944  0.4313
19917W        W38121   2.322   7.044  13.066 -0.0963  0.0632 -0.0456
19918W        W38122   0.287   4.867   4.802 -0.2739  0.1059  0.0190
19919W        W38123   1.309  11.742  12.162  0.1272  0.3503 -0.0524
19920W        W38124  15.590   2.217  12.694  0.0264  0.1954 -0.0264
19921W        W38125   3.339   9.604  14.657 -0.0347 -0.1238 -0.1077
19922W        W38126   5.385  10.629  12.673  0.0364 -0.1690 -0.1439
19923W        W38127   7.483   2.265   0.901 -0.0389  0.2453 -0.0274
19924W        W38128  14.796   6.869  12.259  0.2234  0.0532 -0.0762
19925W        W38129   7.867  18.233   3.619 -0.0282  0.0890  0.0448
19926W        W38130   8.374  17.829   0.722 -0.1069  0.2458  0.1564
19927W        W38131   8.842   1.027   2.528 -0.1265 -0.2099 -0.0238
19928W        W38132   5.636  10.888   2.992 -0.3172  0.0576 -0.0625
19929W        W38133  17.249  13.501  14.810 -0.1404  0.1632  0.1765
19930W        W38134  13.811  17.151  13.566 -0.0242  0.0369  0.0109
19931W        W38135   2.145   2.531  11.232  0.0451 -0.2313  0.0828
19932W        W38136  18.267  13.779   1.370  0.0357 -0.1119 -0.0370
19933W        W38137   9.066   4.792  13.627  0.1903 -0.0235  0.2885
19934W        W38138   8.467  17.708  13.784 -0.0145  0.1417 -0.1043
19935W        W38139   4.282   3.043  10.880 -0.1660 -0.0912 -0.0937
19936W        W38140   5.941  16.250  14.031  0.1316  0.0344  0.0447
19937W        W38141   6.671  10.994  10.421  0.0259  0.0776  0.0954
19938W        W38142   9.835  11.497   4.478  0.2388  0.1354 -0.1032
19939W        W38143   7.224  15.089   2.926  0.2575  0.1512  0.3480
19940W        W38144  13.485   9.366  14.940 -0.1434  0.3931  0.0028
19941W        W38145   5.381   3.181   3.113  0.0914  0.1263  0.1912
19942W        W38146  16.995  15.858   2.573  0.5256 -0.2715  0.2097
19943W        W38147  14.883   9.332  13.664  0.2171 -0.3388  0.1061
19944W        W38148   1.608   4.691   2.187  0.0320  0.2503 -0.0479
19945W        W38149   4.446  11.562  12.339 -0.2409  0.0616  0.0740
19946W        W38150   8.379  17.409   2.589  0.1656 -0.2389  0.2626
19947W        W38151  17.110  15.360  12.802 -0.0071  0.0752  0.0384
19948W        W38152  17.505   1.572  11.403  0.2516  0.1260 -0.2878
19949W        W38153   6.127   4.174  13.383 -0.1699 -0.0908  0.2582
19950W        W38154   0.058   2.970   0.122 -0.3419 -0.0019 -0.1778
19951W        W38155   9.047   0.922   3.809 -0.2507 -0.1007  0.0610
19952W        W38156  10.117  13.271  14.335  0.2400  0.0554  0.2618
19953W        W38157   4.276   9.637  15.150 -0.1720  0.0657 -0.2028
19954W        W38158  11.118  14.638  13.749 -0.2690  0.1723 -0.1055
19955W        W38159   8.724   3.052   0.384 -0.2426 -0.0814  0.0060
19956W        W38160  11.163   4.183  12.775 -0.1261  0.3026 -0.1341
19957W        W38161   6.500  17.158  14.311 -0.1564  0.0885  0.0045
19958W        W38162  12.755   9.795   6.125 -0.0386 -0.2619  0.2236
19959W        W38163  15.772   3.057   1.280  0.1031 -0.0679 -0.3237
19960W        W38164  10.373  17.401  12.922  0.0696  0.1784 -0.1221
19961W        W38165  11.341  12.149   4.387  0.1652  0.0530 -0.0400
19962W        W38166  12.945   3.139  14.771  0.0026 -0.1417  0.1804
19963W        W38167   0.845  14.117  14.791  0.1052 -0.0648 -0.3867
19964W        W38168  10.495  18.333   0.187 -0.0448  0.3095 -0.0641
19965W        W38169  10.687  13.038  11.921  0.1030  0.0606  0.1108
19966W        W38170  10.349   2.427   2.002  0.0023  0.0083 -0.0783
19967W        W38171  15.058   8.026  14.105  0.2393  0.0896  0.1908
19968W        W38172  16.034   7.682   1.243 -0.3737 -0.0461  0.1433
19969W        W38173   5.141   7.190   3.172  0.2424 -0.3946  0.0386
19970W        W38174  18.322   2.223  12.245 -0.0452 -0.2100  0.2849
19971W        W38175   4.754  18.350  12.786 -0.2293 -0.0579  0.4415
19972W        W38176   5.022   5.672  13.712 -0.0853  0.0286  0.0112
19973W        W38177  10.753   9.686  12.835 -0.2109 -0.1070 -0.1923
19974W        W38178   5.790  17.405   3.583  0.4154 -0.0790 -0.0796
19975W        W38179   6.359   3.179   2.564 -0.0715  0.0653  0.2014
19976W        W38180   3.843  15.096   0.640  0.3824  0.0283 -0.0781
19977W        W38181  18.004  15.149  13.748 -0.0900  0.0060  0.2458
19978W        W38182   3.090   4.137  10.933 -0.0783  0.1401  0.1827
19979W        W38183  17.167   8.198  10.540  0.0363 -0.1084 -0.0175
19980W        W38184   4.218   1.944   0.017  0.4692  0.0518 -0.0081
19981W        W38185  16.685  18.143  14.488 -0.0696  0.0019  0.3660
19982W        W38186   2.583   7.969   4.330 -0.1365 -0.1915 -0.2619
19983W        W38187  16.755   5.467   0.916 -0.1074  0.0822 -0.1601
19984W        W38188   9.419  10.928   3.871 -0.2722 -0.2313  0.3404
19985W        W38189   0.290   1.564   0.500 -0.2426 -0.0264 -0.1662
19986W        W38190   9.286  13.213   0.434 -0.3592  0.0651 -0.0854
19987W        W38191  10.024  13.688  12.537 -0.0840 -0.0663 -0.1730
19988W        W38192   7.041   8.925  11.490  0.0780 -0.0464 -0.2219
19989W        W38193  13.915  13.646  11.952  0.1011 -0.3963  0.1237
19990W        W38194   0.900   6.107   4.826 -0.0812 -0.2687  0.1749
19991W        W38195   7.022   1.568  10.645  0.3578  0.0874  0.1254
19992W        W38196   4.922   1.295   4.143  0.1127  0.1025 -0.0560
19993W        W38197   6.869  17.751  13.097 -0.1276  0.0845  0.0623
19994W        W38198   7.547   1.892   0.107 -0.2132  0.3451  0.0641
19995W        W38199  15.459   2.938  11.085 -0.1082 -0.2686  0.4521
19996W        W38200  10.409   8.535  12.725  0.0390 -0.0409 -0.4053
19997W        W38201  10.794   0.862  12.977 -0.4239 -0.1944 -0.2259
19998W        W38202  13.053  15.876   2.343  0.2136 -0.0611 -0.0787
19999W        W38203   8.298   9.530   5.238 -0.3392 -0.0032 -0.0448
20000W        W38204  15.910  12.164   1.909 -0.0058  0.1184 -0.1467
20001W        W38205   8.453  17.038   2.997 -0.0513  0.0704  0.1467
20002W        W38206   8.634   3.007  13.044  0.1977 -0.0248  0.1047
20003W        W38207   4.042  12.054  12.883  0.1989  0.0489  0.0978
20004W        W38208   5.120  11.603  13.098 -0.3197 -0.1977 -0.0912
20005W        W38209   4.002   4.259  11.584 -0.3252  0.1829  0.1547
20006W        W38210   3.724   2.495  13.640 -0.1726 -0.0997 -0.4726
20007W        W38211  11.728   1.490  13.016 -0.1097  0.0637  0.1567
20008W        W38212   2.639   7.361  12.144 -0.1591 -0.0773  0.2899
20009W        W38213  13.887   7.854  15.620  0.1605  0.3885 -0.1166
20010W        W38214   9.163  13.684   3.895  0.0719 -0.5362 -0.2335
20011W        W38215   5.568   9.282   2.226 -0.1555  0.0620 -0.0464
20012W        W38216  11.385  10.321   0.388  0.1114 -0.2931  0.0898
20013W        W38217  16.777   4.168   2.139  0.1565 -0.0479 -0.4182
20014W        W38218   2.913   4.729   3.999 -0.3079 -0.0230  0.1102
20015W        W38219   2.950  18.252   2.154 -0.1456  0.0887 -0.1553
20016W        W38220   1.405  14.968   4.344  0.0629 -0.1611 -0.0428
20017W        W38221  15.035  14.036   2.839  0.1389  0.1860 -0.1378
20018W        W38222  15.001  17.917   1.222 -0.0972 -0.1239  0.0359
20019W        W38223   2.384  13.137  13.456  0.0156  0.2160 -0.2583
20020W        W38224   3.330   2.081  13.169 -0.3380 -0.1689 -0.0497
20021W        W38225  13.446   0.433   1.740 -0.0095 -0.1902 -0.3276
20022W        W38226  15.442  18.024  12.102  0.2959  0.1505  0.2903
20023W        W38227  17.969   4.505   4.609  0.1673  0.2458 -0.4675
20024W        W38228   8.132  15.181   4.298  0.2070  0.1038 -0.0204
20025W        W38229  17.140   0.017  11.234  0.1206  0.2297 -0.0650
20026W        W38230   9.215  14.790   1.050 -0.0760 -0.1238 -0.4506
20027W        W38231  17.468   5.317   1.767 -0.0785 -0.0571  0.0293
20028W        W38232  17.749   5.846  10.696  0.0565  0.0568  0.0710
20029W        W38233  18.067  14.497  15.435 -0.0687 -0.1244 -0.0733
20030W        W38234  12.198  14.246   1.569 -0.0994 -0.0698  0.0044
20031W        W38235   1.813  10.745  11.404 -0.1831 -0.0034 -0.0109
20032W        W38236   9.027  16.269   0.764 -0.0208  0.1430 -0.0101
20033W        W38237   7.484   4.446  14.646  0.0932 -0.0337 -0.0404
20034W        W38238   0.296   5.290   2.844  0.1060 -0.2553 -0.2064
20035W        W38239  16.639   8.704  13.829  0.1847  0.2338 -0.0947
20036W        W38240   7.721  10.067  14.755  0.0670  0.2110 -0.1207
20037W        W38241  14.767   3.901   2.519 -0.0065 -0.1358  0.0709
20038W        W38242   6.155   8.149   4.053  0.0093  0.2929 -0.0249
20039W        W38243   0.137  11.169   3.363  0.1777 -0.1668  0.1185
20040W        W38244   7.272   9.647   0.058  0.0814  0.1462 -0.1579
20041W        W38245   7.797  16.037   0.461  0.0137 -0.5055 -0.0646
20042W        W38246   8.548   5.041  12.507 -0.1000  0.1430  0.1433
20043W        W38247   1.479   6.100   1.571  0.0667 -0.0942  0.0330
20044W        W38248   1.504   1.356  13.897  0.1017 -0.1534  0.0544
20045W        W38249   4.327   4.251  15.300  0.3421  0.1552  0.1544
20046W        W38250  11.577   2.660   0.268 -0.3036  0.0489 -0.0140
20047W        W38251  11.758  10.652  12.415 -0.1382 -0.1440  0.0734
20048W        W38252   6.244  10.537   1.378 -0.0599  0.1171  0.0371
20049W        W38253   2.507  13.539   3.599 -0.0464  0.1212 -0.4290
20050W        W38254   4.170   7.152   1.681 -0.1383 -0.2404 -0.0887
20051W        W38255  14.565   8.375   1.688  0.1628  0.0766 -0.4501
20052W        W38256  13.293  11.846   3.145  0.1866  0.2126 -0.1039
20053W        W38257  17.558  15.726   5.326  0.3016  0.2016  0.0591
20054W        W38258   2.066   9.400  15.065  0.2448  0.1787  0.0637
20055W        W38259  13.376   4.141  14.724  0.3997 -0.0670 -0.0019
20056W        W38260  14.306   9.904  12.953 -0.1696 -0.2830 -0.0592
20057W        W38261  17.662  10.386  15.054 -0.2201  0.0225  0.3095
20058W        W38262   7.251  16.141   1.465 -0.0854 -0.0010  0.0507
20059W        W38263   5.324   8.008   0.494  0.0365 -0.0000  0.1180
20060W        W38264   5.403   7.719   0.972 -0.0476  0.3326  0.2502
20061W        W38265  11.727   3.675  12.330 -0.0655  0.0530  0.1496
20062W        W38266   3.723   3.014   3.379 -0.1408 -0.0885 -0.2214
20063W        W38267  16.793   6.065   1.989  0.2264 -0.2065 -0.0249
20064W        W38268   4.172  17.945  11.647 -0.3231 -0.0524 -0.1528
20065W        W38269   8.870   3.431   4.420 -0.0818  0.1639 -0.3255
20066W        W38270  17.116  13.900   4.757  0.0749 -0.0888 -0.2743
20067W        W38271   0.226   1.626   4.308 -0.0637  0.0980  0.1548
20068W        W38272   5.977  11.234   3.272  0.0067  0.1195 -0.1363
20069W        W38273   1.800  18.295   0.018 -0.0037  0.1143 -0.2894
20070W        W38274   4.880  14.161   0.636  0.2410 -0.0759  0.1802
20071W        W38275  18.251   1.458   1.916  0.1699  0.0658  0.1637
20072W        W38276   0.049   1.675  14.402 -0.2220  0.0850 -0.0015
20073W        W38277  16.041  11.842   3.839 -0.0231 -0.4562 -0.0753
20074W        W38278   2.328   5.423   0.786  0.0245  0.1396 -0.0595
20075W        W38279  16.993  18.252  13.350  0.0350 -0.0326 -0.2349
20076W        W38280   2.557   4.216   2.882  0.0952  0.1710  0.1903
20077W        W38281   4.502  14.070  11.836 -0.1660 -0.2542 -0.0513
20078W        W38282   1.969   9.950   1.420 -0.1000  0.0312  0.0559
20079W        W38283   5.373  14.836  12.177  0.1635 -0.5552 -0.0138
20080W        W38284  14.088  16.384   0.776 -0.0713 -0.1347  0.0630
20081W        W38285   4.865   2.630   3.799 -0.2077 -0.2139 -0.1588
20082W        W38286   9.718   8.842  13.855 -0.1444  0.1944  0.1797
20083W        W38287  14.481   8.641   3.033 -0.0842 -0.3885  0.2494
20084W        W38288  10.379  15.986   1.504  0.1050 -0.0999 -0.1467
20085W        W38289   1.394   7.303  13.601  0.1274 -0.0582 -0.2817
20086W        W38290   9.657   2.252  15.673 -0.1759  0.0285  0.0503
20087W        W38291  18.072  13.945  14.137  0.1610 -0.1670  0.0313
20088W        W38292   8.241  15.855  10.013 -0.1258  0.0878  0.1691
20089W        W38293  16.245  13.137  13.087  0.2149 -0.0376  0.1294
20090W        W38294   6.819   3.591  12.015 -0.1839  0.0403  0.1190
20091W        W38295  11.039  12.729   2.720  0.1803 -0.2494 -0.2243
20092W        W38296  14.128  12.205   2.850 -0.2029  0.2535  0.1732
20093W        W38297  12.896  16.579  15.215 -0.3993  0.6017 -0.2027
20094W        W38298  12.923   3.234  13.209 -0.1191  0.2209 -0.0215
20095W        W38299  13.327   6.287  12.433  0.4184  0.3461 -0.1588
20096W        W38300   1.792   5.136   3.678  0.0305  0.0886  0.1750
20097W        W38301   9.479  15.920   2.995 -0.2207 -0.1055  0.1024
20098W        W38302   6.630  10.643   4.903 -0.3398 -0.0154  0.0045
20099W        W38303  17.234  13.811  13.081 -0.2276 -0.1302 -0.1729
20100W        W38304   0.734  10.743   0.657 -0.0382 -0.1314  0.2131
20101W        W38305   7.461  10.048  11.020  0.0550  0.0913 -0.2248
20102W        W38306   8.933   3.383  13.260  0.0635 -0.0624 -0.2131
20103W        W38307   6.916   8.192  13.304  0.1102 -0.2471  0.1026
20104W        W38308   7.890   1.189  13.631 -0.0316 -0.0855 -0.1656
20105W        W38309  12.185   3.411   4.241 -0.2105 -0.0368 -0.0647
20106W        W38310   7.700  15.398   5.342 -0.0632 -0.1273 -0.3388
20107W        W38311   0.558  17.321   1.753 -0.0038 -0.0036  0.0587
20108W        W38312  13.680   4.249  11.781  0.4285  0.0629 -0.1166
20109W        W38313   6.033  11.143  11.944 -0.1066 -0.3167 -0.0239
20110W        W38314   9.877  15.906  14.186 -0.0412  0.2785  0.0811
20111W        W38315   1.396   5.487   2.135 -0.0355 -0.1979 -0.2127
20112W        W38316  13.086   9.577   4.030  0.0476 -0.2097 -0.5662
20113W        W38317   6.101   4.454   4.654 -0.3404 -0.1582  0.1377
20114W        W38318  17.443   2.311   0.409  0.1211  0.1933 -0.0117
20115W        W38319   3.001  18.209  13.719  0.3833 -0.1492  0.1263
20116W        W38320   1.051   3.135  11.995 -0.0771  0.1802  0.0895
20117W        W38321  12.768  10.273   3.445  0.1997 -0.2322 -0.1670
20118W        W38322  16.666  11.224   3.844  0.0265 -0.1712  0.0816
20119W        W38323   2.581   9.538  13.425  0.1438 -0.1472 -0.0621
20120W        W38324   9.345  10.982   2.450  0.1055 -0.0221 -0.0540
20121W        W38325   2.528  15.992  10.912  0.0854 -0.1853 -0.0234
20122W        W38326   4.642  16.394   1.179  0.1047 -0.0922  0.2776
20123W        W38327  15.962   9.966   0.833 -0.2751 -0.2882 -0.0655
20124W        W38328   2.484   1.750  13.241  0.0120  0.1017  0.0447
20125W        W38329  15.609   6.380  14.098 -0.1734 -0.2073 -0.0991
20126W        W38330   4.800   4.887  15.393 -0.0826 -0.1805  0.0832
20127W        W38331  14.260   1.735  15.507  0.0881 -0.1219  0.1100
20128W        W38332   5.814   8.437   1.777  0.0617  0.0418 -0.0151
20129W        W38333   7.971   6.249  15.036 -0.1083  0.2968 -0.0462
20130W        W38334  14.871  15.736  13.698  0.0212 -0.4301  0.1245
20131W        W38335   5.362   2.644  14.416  0.0253  0.2877 -0.1596
20132W        W38336  13.574   8.440   2.545 -0.0178  0.0535 -0.1266
20133W        W38337   3.844  10.731   4.192  0.2375  0.1166  0.4567
20134W        W38338  17.169  16.047  10.304  0.1710 -0.2525  0.1517
20135W        W38339   6.463  11.037   5.911 -0.1095  0.2463  0.1148
20136W        W38340  15.513  10.372  11.389 -0.2436 -0.0897 -0.0445
20137W        W38341   1.799  16.083  15.179 -0.1803  0.3052 -0.1467
20138W        W38342  12.235  12.969   0.257  0.1811 -0.0142  0.0406
20139W        W38343  10.511  11.331  11.661  0.1116 -0.0439  0.2522
20140W        W38344  12.078  15.673   4.263  0.2427  0.1862  0.0874
20141W        W38345  13.606  17.435  11.674  0.0051 -0.0577 -0.3044
20142W        W38346  17.533  16.056   2.698 -0.1815 -0.0827  0.2973
20143W        W38347  12.222   3.593  12.168 -0.0355 -0.1977  0.0029
20144W        W38348   0.255  16.702   1.915  0.0391 -0.0118 -0.1820
20145W        W38349   1.014  17.927  12.717 -0.2258 -0.2099 -0.0019
20146W        W38350  11.212  15.630   3.899 -0.0384 -0.0883 -0.1642
20147W        W38351   4.043   4.174   0.476  0.3510 -0.2144  0.3329
20148W        W38352  15.335  15.854  12.420 -0.1319  0.2987 -0.4328
20149W        W38353  13.930  16.669  12.654 -0.2252 -0.4108  0.1940
20150W        W38354   3.176   5.257   4.090 -0.1896 -0.1356 -0.1133
20151W        W38355  17.346   9.901   0.427  0.0948  0.2112  0.1334
20152W        W38356  16.618  10.395   4.832 -0.3564  0.0589 -0.1386
20153W        W38357   7.178   1.225  13.864 -0.2469  0.0139 -0.0811
20154W        W38358   9.741   8.633   0.668  0.2632  0.0453 -0.0574
20155W        W38359   1.999  14.945  13.384 -0.1303  0.0013 -0.1977
20156W        W38360   4.699  16.276  11.463 -0.1795 -0.2662 -0.0734
20157W        W38361   9.414  13.343   2.814 -0.0577  0.3628 -0.0992
20158W        W38362  14.286   6.256   2.211 -0.2142  0.0808 -0.1370
20159W        W38363   7.100   3.488   5.635  0.0332 -0.1360 -0.0001
20160W        W38364   5.417  15.374  10.432 -0.0528  0.0579 -0.0979
20161W        W38365   9.492  10.145   2.174  0.1834  0.1632 -0.0831
20162W        W38366   4.547  12.314  10.419  0.2752  0.0249 -0.1432
20163W        W38367  13.609   1.021  13.287  0.0410 -0.0395  0.1847
20164W        W38368  10.073  18.031   0.141  0.3078 -0.0435  0.0709
20165W        W38369   8.364   5.829   0.990  0.2660 -0.1183 -0.1483
20166W        W38370  11.306  10.893  11.544 -0.0499 -0.1083  0.0762
20167W        W38371   7.800   4.037   0.686  0.2654 -0.1611 -0.1073
20168W        W38372  10.031  10.008  11.993  0.2996 -0.2488  0.2820
20169W        W38373   8.022   0.627   5.122 -0.0223 -0.1388 -0.1264
20170W        W38374   0.092   9.328   3.076  0.4670 -0.3258 -0.1547
20171W        W38375   2.447   1.226  11.034 -0.2456 -0.0895 -0.0841
20172W        W38376  16.405   0.473   0.738  0.0902  0.1187  0.0919
20173W        W38377   0.007  14.192  11.466  0.4317 -0.3878 -0.1919
20174W        W38378   5.341  15.551  13.056  0.3194  0.0925 -0.1205
20175W        W38379   4.368  15.382   0.267  0.2587 -0.0387 -0.0286
20176W        W38380   7.181   9.717   3.408 -0.1851  0.0167  0.1749
20177W        W38381   9.356  16.317   1.160  0.1951 -0.2319 -0.3109
20178W        W38382  16.348   2.790   2.639 -0.0192  0.2132  0.0235
20179W        W38383  17.897  13.669  10.318  0.4606  0.1516  0.1736
20180W        W38384   7.525  13.138   5.797 -0.0320 -0.2073 -0.0195
20181W        W38385   1.188  16.685  11.892  0.0670  0.1659 -0.0702
20182W        W38386   6.983  17.719  14.963  0.0659  0.0926  0.0399
20183W        W38387  10.260  14.088  11.721 -0.3002  0.1517 -0.0848
20184W        W38388  16.872  12.453   0.574  0.0593  0.0315 -0.0423
20185W        W38389   7.828   4.981   4.915  0.4319 -0.2558 -0.0329
20186W        W38390   3.641   4.242  12.358 -0.1325 -0.2405  0.0292
20187W        W38391   1.688   8.978  12.483 -0.2527 -0.1752 -0.0467
20188W        W38392  18.136   6.768   0.074  0.0837 -0.0851 -0.1897
20189W        W38393   4.473   1.817   3.652 -0.2318  0.0304 -0.2091
20190W        W38394  10.005  13.087   2.017  0.1026 -0.0053 -0.0263
20191W        W38395  16.336  15.431   4.276 -0.2627  0.0091  0.2156
20192W        W38396  10.970  14.992   0.620  0.0764 -0.2604 -0.0676
20193W        W38397   2.028  15.803   2.768  0.0842  0.1093 -0.0038
20194W        W38398   3.759  11.851  14.353 -0.2881 -0.0673 -0.1261
20195W        W38399   3.093   9.650   0.394  0.0665  0.0566  0.0199
20196W        W38400   1.051  13.553  15.533  0.2085 -0.2875 -0.3452
20197W        W38401  14.386   4.078   0.301  0.1216  0.0277 -0.3574
20198W        W38402  17.861   5.387   3.359  0.0174  0.0513  0.0555
20199W        W38403  12.907   7.798   4.337 -0.0659 -0.2558 -0.1784
20200W        W38404  17.996  16.964   3.032  0.0215  0.0736 -0.1352
20201W        W38405   3.478   9.067  11.062 -0.0929 -0.0903  0.1063
20202W        W38406  14.967   6.222   0.823 -0.2736 -0.0806 -0.1660
20203W        W38407   3.293  14.619   3.715  0.1628 -0.0742 -0.0145
20204W        W38408  17.936   5.077  15.138 -0.1390 -0.2785  0.1590
20205W        W38409   1.556  15.607  11.812  0.0358 -0.0725 -0.0442
20206W        W38410   7.884   0.993   2.524 -0.0011 -0.3689  0.1558
20207W        W38411  11.341  15.653  15.027 -0.0057  0.0459 -0.4059
20208W        W38412   0.657  13.337   3.625  0.1873 -0.2712 -0.1382
20209W        W38413   0.850   0.143  11.407  0.1307 -0.1442  0.1748
20210W        W38414  17.917   3.027  15.649 -0.1561  0.1695 -0.2114
20211W        W38415  12.551  13.633   2.288  0.1131 -0.2265  0.0144
20212W        W38416  13.606   6.720   4.504 -0.1539  0.0967  0.1100
20213W        W38417   7.491  10.606   2.869  0.1179 -0.2487  0.1375
20214W        W38418   4.779   3.271  15.475  0.1553  0.1330 -0.1822
20215W        W38419   9.138  10.510   0.122 -0.0725  0.2755 -0.0767
20216W        W38420   8.404   9.554   3.096 -0.0732 -0.1837 -0.2886
20217W        W38421   2.543  15.871   4.617 -0.0994  0.1540  0.1423
20218W        W38422   4.492   5.602   3.139 -0.0449 -0.1673 -0.1954
20219W        W38423  18.288  10.486  15.103  0.1336 -0.1963 -0.4620
20220W        W38424   3.063   9.710   2.774  0.0147 -0.1832  0.1926
20221W        W38425   7.467  10.654  15.347 -0.3130 -0.0587 -0.1170
20222W        W38426  12.936   6.258   1.750 -0.1579  0.0676  0.1209
20223W        W38427  17.318  16.331   3.112  0.0455  0.1815  0.1410
20224W        W38428  16.495   6.746  11.797 -0.1753 -0.0195 -0.1043
20225W        W38429   8.619   7.377  14.275  0.0499 -0.0385  0.1037
20226W        W38430  13.657  11.641   5.300 -0.0135 -0.0412 -0.0738
20227W        W38431   8.440  16.438  11.242 -0.1403  0.3131 -0.1445
20228W        W38432   1.302   4.964  13.353 -0.0696  0.0708  0.2010
20229W        W38433   2.465  17.638  15.561  0.0145 -0.2723  0.1528
20230W        W38434  16.318   9.805  13.904  0.0114  0.3326  0.0092
20231W        W38435   6.863  14.800   0.135 -0.0580 -0.1256  0.1560
20232W        W38436   7.320   3.270   2.503  0.1424 -0.0740  0.0341
20233W        W38437  10.039   4.649   2.686 -0.0034  0.3647  0.1760
20234W        W38438  10.780  10.454  11.747  0.0690  0.1539  0.0843
20235W        W38439  12.396  13.010   1.381 -0.4396 -0.3418  0.1259
20236W        W38440  10.438   6.451  12.253  0.1547 -0.2771  0.6130
20237W        W38441   5.404   8.053   4.717  0.4415  0.0869 -0.0646
20238W        W38442   1.533  10.234  14.086 -0.1258 -0.2861  0.1859
20239W        W38443   8.875  17.428  15.330 -0.2869  0.1584 -0.1219
20240W        W38444   1.258   5.057   4.727 -0.1903  0.1567 -0.2755
20241W        W38445   2.911   7.750  11.907 -0.0680  0.1485  0.0254
20242W        W38446   9.086   4.172  11.670 -0.2308 -0.0925  0.1304
20243W        W38447  12.737  16.553   2.081 -0.1845 -0.0207 -0.1321
20244W        W38448  11.580  11.748  14.348 -0.2364 -0.1569  0.1313
20245W        W38449  11.469  14.287  14.960  0.1954  0.0913 -0.0015
20246W        W38450   5.439   0.052  11.048 -0.0609  0.4138  0.1222
20247W        W38451  14.462   5.561  14.180  0.2222 -0.0916 -0.2071
20248W        W38452   5.734  15.817   4.534 -0.2561  0.0469  0.0940
20249W        W38453  10.055   1.790  13.313 -0.0470  0.1427 -0.0529
20250W        W38454  12.111  12.657  15.071 -0.0122 -0.1246 -0.3048
20251W        W38455  13.320   0.306  14.153  0.2818  0.2354 -0.0608
20252W        W38456   3.640   8.188   3.370  0.0443  0.1260  0.0458
20253W        W38457  10.332  14.799  10.112 -0.0704 -0.2997  0.1815
20254W        W38458   6.243  14.339  13.818  0.2989  0.1593 -0.2563
20255W        W38459   8.002  12.010  13.260 -0.1136 -0.3358 -0.1933
20256W        W38460  13.232  11.776   4.038  0.1937 -0.0834  0.1793
20257W        W38461  13.380   0.206  13.157 -0.2930  0.2684  0.1321
20258W        W38462   7.315   9.821   0.610  0.0942 -0.2520  0.1512
20259W        W38463  13.299  14.313  12.507  0.1292  0.3345 -0.0000
20260W        W38464   7.745   4.920  13.437  0.1097  0.1569 -0.0307
20261W        W38465   4.056  15.984   1.729  0.1983 -0.2719  0.2511
20262W        W38466  10.551  11.945  15.396  0.0171  0.2230 -0.1283
20263W        W38467   3.337  17.824   1.251  0.0543 -0.0348 -0.1063
20264W        W38468  12.720   1.772  11.684 -0.2016 -0.1974  0.0478
20265W        W38469   0.849   5.460   0.590 -0.4065  0.1488 -0.5298
20266W        W38470  11.703   5.510   3.407 -0.1565  0.1374  0.0838
20267W        W38471  11.041   0.451  11.138 -0.0656  0.4545 -0.0067
20268W        W38472  10.500  17.854   0.394 -0.3173  0.0553  0.2339
20269W        W38473  11.424  10.580   4.080 -0.2967  0.0077 -0.1151
20270W        W38474   1.312   6.000  13.759  0.0316 -0.0963 -0.0460
20271W        W38475  16.450  10.839   3.399 -0.0898  0.1333  0.0120
20272W        W38476  18.340  12.522   0.376 -0.0211 -0.1155  0.0020
20273W        W38477  12.087  12.361   4.719 -0.1404  0.0390  0.1695
20274W        W38478  16.793  10.725   1.688  0.1759  0.0467  0.1960
20275W        W38479   0.901  16.301   0.031  0.0338  0.2604 -0.0416
20276W        W38480   7.207  15.902   1.974 -0.2036 -0.2805 -0.0364
20277W        W38481  14.894   3.685  12.343  0.2154  0.2465  0.3271
20278W        W38482   3.798  10.414   3.796  0.4313  0.1390  0.3086
20279W        W38483  10.472   9.587   2.320 -0.1621 -0.1568  0.2936
20280W        W38484   2.676  18.245   1.601 -0.0610  0.0254  0.2300
20281W        W38485  16.174   4.842  10.312 -0.0074 -0.1066  0.0391
20282W        W38486  13.504   2.019   4.423 -0.1542  0.1849  0.2703
20283W        W38487  10.803   4.998  11.010  0.2695 -0.1421 -0.1359
20284W        W38488   2.169  15.714   3.941  0.3311  0.1657 -0.0278
20285W        W38489   5.734  13.586   0.098 -0.1305  0.1176  0.4139
20286W        W38490  17.475   5.229  13.204 -0.0261 -0.1031 -0.1492
20287W        W38491   4.560  11.805  11.790  0.0992 -0.3882 -0.1223
20288W        W38492  13.889   8.533  15.475  0.1333  0.1229  0.1709
20289W        W38493   5.944  15.053  12.787  0.0729 -0.1545 -0.4045
20290W        W38494  11.292  14.325   0.949  0.3495 -0.0320 -0.0511
20291W        W38495  11.758   6.772   2.308 -0.1447  0.3996  0.3399
20292W        W38496   5.815  11.689  14.512  0.1970  0.1943 -0.3533
20293W        W38497  15.189  16.259  14.829  0.1066  0.0401  0.2667
20294W        W38498   5.891  15.548  12.058 -0.2861  0.0592 -0.0772
20295W        W38499  13.210   2.567  13.977 -0.3456  0.4138  0.1613
20296W        W38500   9.219  17.203  12.041 -0.0698  0.1223 -0.1449
20297W        W38501   3.357  16.936  14.389  0.1628 -0.4018  0.0018
20298W        W38502   0.595  16.354   1.658  0.2650 -0.1579 -0.0761
20299W        W38503  14.159   5.080   2.189 -0.0927 -0.1151  0.1119
20300W        W38504   0.015   1.063   4.287 -0.0141  0.0166  0.1119
20301W        W38505   7.893  15.174   2.081 -0.1166 -0.4079  0.1386
20302W        W38506   7.058  11.568  14.067  0.0931  0.0511 -0.2380
20303W        W38507   7.444   4.019  13.059 -0.0887 -0.0763  0.1730
20304W        W38508   5.971   9.376   1.559 -0.1653  0.1476 -0.2572
20305W        W38509  15.898   0.656   2.981  0.0169 -0.0248 -0.1624
20306W        W38510   3.595  12.498   0.350  0.1684  0.1297  0.0628
20307W        W38511  10.197   4.546  15.252  0.2414  0.0135 -0.0071
20308W        W38512  12.677   7.893  14.339  0.0857  0.2674  0.1794
20309W        W38513   7.946   7.949  14.720 -0.0582 -0.2119  0.2163
20310W        W38514  10.101   1.370  13.693 -0.0159 -0.3000 -0.0711
20311W        W38515  17.599  16.653   2.055 -0.0910  0.0653 -0.3111
20312W        W38516  11.072  14.636   2.725  0.1005  0.1578  0.2906
20313W        W38517   5.820   3.224   2.838  0.1819  0.3608 -0.1777
20314W        W38518   3.582   0.673  15.602  0.0019  0.0451 -0.0294
20315W        W38519   1.377  16.803  14.941 -0.0153  0.1885  0.2531
20316W        W38520   3.971  15.750   3.494  0.0235 -0.0787 -0.0927
20317W        W38521  18.356  16.450   5.441 -0.0123 -0.1019 -0.5496
20318W        W38522  10.662   7.384  15.063  0.0297  0.1581  0.3136
20319W        W38523   1.063   9.630   5.218  0.0566 -0.1268  0.3306
20320W        W38524  12.458  14.065   0.573 -0.1001 -0.1269 -0.2115
20321W        W38525   3.647   8.863  13.069 -0.1815 -0.1312  0.0169
20322W        W38526  12.525   4.883  13.376  0.2102  0.1822  0.1824
20323W        W38527  12.325  17.067  13.458  0.2021  0.0516 -0.0942
20324W        W38528  11.703   9.998  13.596  0.3181 -0.0347 -0.1885
20325W        W38529   6.131  13.601   4.446 -0.3572 -0.1544 -0.1372
20326W        W38530   9.841   4.856   5.958  0.1862  0.0474 -0.1061
20327W        W38531   9.591   8.732   1.717  0.0611 -0.1672 -0.1251
20328W        W38532  13.239  16.778  12.698  0.4481 -0.0454 -0.0259
20329W        W38533  13.659  14.164  15.375  0.1704  0.0983  0.1308
20330W        W38534  15.128  11.572  11.440  0.0099  0.2727  0.0341
20331W        W38535   5.516  12.238   0.644 -0.0531  0.1093 -0.2169
20332W        W38536   4.312  11.803  13.612 -0.0342  0.2327 -0.2041
20333W        W38537  14.464  15.667  12.686 -0.0809  0.2303 -0.1260
20334W        W38538   0.803  17.470   2.783 -0.2557  0.1803 -0.1254
20335W        W38539  14.771   2.550  14.447 -0.0877 -0.1124  0.1104
20336W        W38540  12.707   8.331   3.747  0.0072 -0.0064 -0.1603
20337W        W38541  15.619  12.262  14.617 -0.0716  0.0231  0.0902
20338W        W38542  11.020   8.601  11.715  0.1317 -0.1418 -0.1275
20339W        W38543  10.258  16.048  13.854 -0.0254  0.3482  0.1150
20340W        W38544   1.438   7.650   3.674  0.0202  0.0434  0.1102
20341W        W38545  17.244  16.476  15.340  0.3315  0.3037 -0.0139
20342W        W38546   5.056   9.181  14.523 -0.1722 -0.1572 -0.0289
20343W        W38547   5.294   5.005   9.939  0.1789  0.0607 -0.0743
20344W        W38548   7.517   5.944  13.423  0.1831 -0.3337 -0.0976
20345W        W38549  10.773  17.710  12.962  0.0085  0.1640  0.4699
20346W        W38550  14.494   5.428   4.687 -0.1280 -0.1730  0.0375
20347W        W38551   4.426   3.628   3.597  0.2180  0.0591  0.0719
20348W        W38552   4.215   5.100  13.300 -0.1946  0.0312  0.0216
20349W        W38553  12.370   6.854  15.315  0.3509 -0.2774 -0.2106
20350W        W38554   4.922  11.594   0.402 -0.0874 -0.1546  0.1957
20351W        W38555  14.056  13.043   1.409  0.3828 -0.1476  0.1182
20352W        W38556   5.707   6.807  14.870  0.1754 -0.3399 -0.0617
20353W        W38557  10.637   6.148  11.538 -0.1654 -0.2322 -0.1190
20354W        W38558   8.263   9.998   1.909  0.0354  0.1188 -0.1418
20355W        W38559  18.265   6.978  15.302 -0.1056  0.0523 -0.1149
20356W        W38560   1.987  15.221   4.245 -0.1531  0.2451  0.0181
20357W        W38561   5.253  10.968  13.767 -0.0168  0.3598  0.1252
20358W        W38562   9.073   3.734  12.947  0.2637 -0.1102 -0.1778
20359W        W38563   7.658  13.571   5.092 -0.3766 -0.0199  0.0275
20360W        W38564  16.257   1.393   1.115 -0.1145 -0.0913  0.0734
20361W        W38565  18.262  11.401  11.408  0.3738  0.2281  0.0392
20362W        W38566  14.998   7.355  15.390 -0.0614  0.1023 -0.0262
20363W        W38567  12.111   8.732   2.376  0.2459  0.1569 -0.0136
20364W        W38568  18.041  17.554   1.937  0.2586  0.1118  0.0098
20365W        W38569   5.770   9.573   3.458  0.1252 -0.0232 -0.1904
20366W        W38570   3.820   3.406   1.992 -0.2802  0.1422  0.0024
20367W        W38571  17.088   2.518   4.298  0.0179 -0.0245  0.3546
20368W        W38572   6.635  17.307   3.228 -0.1566  0.3775 -0.0404
20369W        W38573   3.168   2.285  15.428  0.0781 -0.0874 -0.1921
20370W        W38574   8.465  10.306  12.469 -0.1169  0.1292  0.1551
20371W        W38575  10.033   5.597   1.119  0.0834  0.1360  0.0771
20372W        W38576   6.587  16.217  12.994 -0.1262 -0.0401 -0.0319
20373W        W38577  14.047  17.143  14.588  0.1333  0.3105  0.2168
20374W        W38578   0.910   2.517  11.163  0.2465  0.1262  0.1459
20375W        W38579  12.058   0.575   0.986  0.0037  0.1946 -0.1072
20376W        W38580  11.213  10.242  11.629  0.1283 -0.1564  0.0371
20377W        W38581  10.765  15.401   4.077 -0.0358 -0.3473 -0.0671
20378W        W38582  12.548   1.903  13.676  0.0000 -0.1337 -0.3194
20379W        W38583  14.030  17.434  12.647 -0.2174 -0.3480 -0.1581
20380W        W38584   8.862  11.128  14.768 -0.1475 -0.4253  0.2128
20381W        W38585  11.872   7.582  14.243 -0.4779  0.2602 -0.0332
20382W        W38586   0.991  12.524  13.454 -0.3326  0.2618 -0.0628
20383W        W38587   4.880   8.945  15.529 -0.1652 -0.0872 -0.2191
20384W        W38588  14.403  12.559   0.191 -0.1537  0.1342  0.0173
20385W        W38589  12.854   2.440  12.837 -0.2582 -0.3598 -0.0518
20386W        W38590  14.464   2.774   1.635  0.1754 -0.0772 -0.1635
20387W        W38591   5.226   9.325   0.235 -0.1478  0.2617  0.1044
20388W        W38592   2.793   8.271   3.867  0.1173 -0.3423  0.4136
20389W        W38593  12.004   9.751   3.217 -0.0133  0.2235 -0.1585
20390W        W38594  10.736   9.738   1.890  0.0573 -0.0188 -0.1358
20391W        W38595   7.594  12.743   2.227  0.2611  0.0956  0.5006
20392W        W38596   9.165  12.011   4.888  0.3547 -0.1375 -0.2982
20393W        W38597  15.720  10.898   0.653 -0.1129 -0.1311  0.1872
20394W        W38598   7.134  16.680  15.112  0.1048  0.2475 -0.1577
20395W        W38599   2.066   6.416  15.431  0.2874 -0.4986 -0.2165
20396W        W38600   7.251   9.846  14.074 -0.2653  0.1460  0.1592
20397W        W38601  17.072  11.478   1.547 -0.2228  0.1555 -0.1114
20398W        W38602  16.407  13.604   2.095  0.1633 -0.0983  0.0791
20399W        W38603  10.960  16.988   3.933 -0.2164  0.0429  0.2161
20400W        W38604   6.897   5.039   0.953  0.0569  0.1394  0.2937
20401W        W38605  12.164   8.396   3.001 -0.0191  0.2200  0.0883
20402W        W38606  16.833   0.900   0.103  0.1930 -0.1136  0.0253
20403W        W38607   1.825  17.045   1.871  0.0456  0.3595  0.1408
20404W        W38608  12.919  12.952   1.327 -0.2081  0.0894 -0.1087
20405W        W38609  14.838   6.344  11.567 -0.0258  0.0695 -0.4070
20406W        W38610  10.264   6.374   0.612 -0.0280 -0.1238  0.1916
20407W        W38611   4.672   8.166  14.401 -0.2701  0.0014  0.1489
20408W        W38612   7.326   1.048   2.342  0.3855 -0.1943 -0.0572
20409W        W38613  16.882  16.191   0.186  0.2600  0.0224  0.0196
20410W        W38614   6.991   3.898  14.962  0.0805 -0.2047  0.4164
20411W        W38615   3.441   3.324   2.340 -0.1929 -0.1958 -0.2766
20412W        W38616   7.484  10.283   4.660 -0.1610  0.1358  0.2281
20413W        W38617   4.397   1.136  13.929 -0.0562  0.2173 -0.1390
20414W        W38618  13.703   5.401   2.371  0.1115  0.2948  0.1005
20415W        W38619  15.701  16.756   1.007 -0.0926 -0.0458  0.3240
20416W        W38620   5.951   8.833  11.832  0.1171  0.3175 -0.1733
20417W        W38621  11.178   4.755   3.217 -0.0422 -0.1249  0.0121
20418W        W38622   2.219  13.931   3.367  0.1970  0.0948  0.1759
20419W        W38623  14.658  12.240  14.042 -0.0472 -0.2237  0.0988
20420W        W38624  16.446   4.410   2.832  0.2395 -0.2554 -0.0829
20421W        W38625  11.390  16.665   2.388  0.0238  0.1580 -0.2739
20422W        W38626   8.088   6.502  14.563  0.0409 -0.0553  0.0626
20423W        W38627   3.290   2.349   4.308 -0.2150 -0.1272  0.1095
20424W        W38628   6.169  11.438   4.696  0.0571 -0.1648 -0.0649
20425W        W38629   3.868   2.129  11.453  0.1094  0.0414  0.0378
20426W        W38630   8.449   4.328   4.617 -0.1844 -0.0075 -0.1780
20427W        W38631   8.495   9.611   0.903  0.0488 -0.0507  0.0144
20428W        W38632  16.594   4.147   4.154  0.0453 -0.0355 -0.0253
20429W        W38633   7.674   9.595  12.268  0.1320 -0.0230  0.2831
20430W        W38634  12.328   1.747   0.828  0.1227  0.2282  0.0355
20431W        W38635   9.972   0.499   5.567  0.0405 -0.0407 -0.1087
20432W        W38636   9.987  12.790  14.121  0.1213 -0.0292  0.1013
20433W        W38637   1.993   4.038   2.226 -0.3755  0.1794  0.0551
20434W        W38638   6.179   9.892  14.383  0.0931  0.3246 -0.0022
20435W        W38639   4.745  16.152   0.733 -0.0457  0.0741  0.2096
20436W        W38640  16.755  16.288  14.590 -0.2122  0.1469 -0.1191
20437W        W38641  11.404   1.286   0.050  0.1482 -0.0709  0.0947
20438W        W38642   3.985  10.463  13.508 -0.3328  0.1282 -0.0709
20439W        W38643  16.809   5.456   1.475  0.1452  0.4355 -0.0411
20440W        W38644   9.988   8.352   5.036  0.0463 -0.1780  0.1435
20441W        W38645  10.027  10.267   1.530  0.0102 -0.0743 -0.0395
20442W        W38646  14.842   0.727   0.223  0.5273  0.1498 -0.1292
20443W        W38647  13.411  10.871   2.372  0.4203  0.0135  0.1256
20444W        W38648   6.467   7.520  11.599 -0.1140  0.0813  0.0240
20445W        W38649   3.104   0.052   0.697  0.0233 -0.0999  0.1100
20446W        W38650   0.198   6.174   2.478 -0.0450 -0.2867  0.0523
20447W        W38651   8.957   5.636  13.669  0.0154 -0.0545  0.0768
20448W        W38652   8.074   5.266   0.234  0.1324  0.1208  0.0436
20449W        W38653   3.320   6.361   4.466 -0.0359 -0.0495  0.0723
20450W        W38654   6.106  15.675   2.117 -0.0259 -0.1344  0.1208
20451W        W38655  15.018  16.020   0.301  0.2071 -0.1736 -0.0547
20452W        W38656  17.755  16.218   1.419 -0.0247 -0.1085 -0.0178
20453W        W38657  11.235   9.452  11.895 -0.2673  0.1343  0.0461
20454W        W38658   0.230   3.194   3.092 -0.1256  0.0106 -0.0412
20455W        W38659   1.595   5.695  11.886 -0.1862  0.2891  0.1894
20456W        W38660  12.164  17.013   0.496  0.0039 -0.3153  0.1961
20457W        W38661   4.226   9.293  10.774 -0.3014  0.1691 -0.0753
20458W        W38662  11.516   1.340  12.619  0.0156  0.0640 -0.0342
20459W        W38663  13.103  14.009   0.555  0.2501 -0.1894  0.0437
20460W        W38664  16.418  17.518   4.827  0.2462  0.4916  0.1985
20461W        W38665   3.507   0.339  12.214  0.2690  0.4728 -0.2253
20462W        W38666   2.295   6.594  12.769  0.0426 -0.1370 -0.0219
20463W        W38667   9.217  17.089   4.071 -0.2016  0.2660 -0.3448
20464W        W38668   6.096  13.779  15.439 -0.2819  0.1478  0.1680
20465W        W38669  10.383   7.889   4.308 -0.1354 -0.0697  0.0096
20466W        W38670   3.665  11.964   0.296  0.0595  0.3248 -0.0034
20467W        W38671   3.965   2.427  14.293  0.3883  0.0553 -0.0211
20468W        W38672   0.497  11.018   2.934 -0.0765  0.2347 -0.1339
20469W        W38673  15.722  16.961  13.374 -0.0466 -0.0409 -0.0735
20470W        W38674   6.468   8.495   2.539  0.2494 -0.3480  0.2916
20471W        W38675  18.202   2.073   2.046 -0.0380  0.2597 -0.0119
20472W        W38676  17.176  12.381  11.663 -0.1441 -0.2649  0.1257
20473W        W38677   9.581   2.043  14.051  0.1666 -0.1102 -0.2292
20474W        W38678   3.128   6.783   4.063  0.0563 -0.1434  0.0449
20475W        W38679   6.079   3.485  14.573  0.0689 -0.5708 -0.1702
20476W        W38680  10.128  11.026   1.478 -0.1600  0.1064 -0.0286
20477W        W38681  17.032   9.995  14.033  0.3845  0.1713  0.1223
20478W        W38682   9.605  15.158  12.881 -0.2820 -0.1455 -0.0607
20479W        W38683   6.852  12.362   4.667  0.0912  0.2069  0.1165
20480W        W38684   5.074  17.213   0.888  0.1619 -0.0680  0.1707
20481W        W38685  15.923   4.820  15.519  0.1075 -0.0214 -0.0624
20482W        W38686  12.687  13.203   0.362  0.1097 -0.0744  0.1067
20483W        W38687   1.458  12.824   4.050  0.1191 -0.0616  0.1926
20484W        W38688   5.012   4.048  15.502  0.0789 -0.0540  0.3588
20485W        W38689   5.234   9.574  15.015 -0.3381 -0.0013 -0.1310
20486W        W38690   1.427  14.393  13.175 -0.1032  0.2186 -0.0416
20487W        W38691   7.315   9.465  12.614  0.1627 -0.2918  0.1084
20488W        W38692  10.501  12.951   3.818 -0.0749 -0.1333 -0.4958
20489W        W38693  16.578   6.828   1.212  0.2594 -0.0919 -0.2762
20490W        W38694  16.217  14.934   3.581  0.0640  0.1666  0.1540
20491W        W38695   6.679  12.431  12.784  0.3916 -0.2374  0.0876
20492W        W38696  18.051   1.849   1.577 -0.0187  0.0626 -0.3862
20493W        W38697   7.188   4.169  11.441  0.0386  0.1895 -0.0857
20494W        W38698   4.157  11.614   1.849 -0.0328  0.2947  0.2115
20495W        W38699   8.363  15.936   2.741 -0.0299  0.2125 -0.0048
20496W        W38700  14.122  11.106   1.166  0.2655 -0.1877  0.3069
20497W        W38701   6.185  16.179   1.200 -0.1971  0.1476 -0.0323
20498W        W38702   6.634   2.404  13.414  0.1914  0.1695  0.1341
20499W        W38703   2.959   7.744   2.871 -0.0019  0.0842 -0.0239
20500W        W38704  12.451  14.565   0.244 -0.0023  0.3452  0.2830
20501W        W38705   7.113   8.153   0.151 -0.3257 -0.2855 -0.2239
20502W        W38706   7.475  12.352  11.302  0.1996  0.3715 -0.2949
20503W        W38707   3.808   0.215   0.029  0.1586 -0.2621 -0.0839
20504W        W38708  13.317  15.036  11.760 -0.2013  0.3732  0.0789
20505W        W38709  15.588   9.331  14.953 -0.1273 -0.3022 -0.0179
20506W        W38710  16.449   9.728   1.530  0.0035 -0.1640 -0.2024
20507W        W38711   3.158   7.999   0.909 -0.2049 -0.1318  0.0068
20508W        W38712  12.890  15.219   3.941 -0.1364  0.2526  0.0564
20509W        W38713   7.565   9.077  12.346 -0.3596  0.1691 -0.1363
20510W        W38714   5.764   7.187  12.442  0.2049 -0.2383  0.0757
20511W        W38715  15.897   9.601  14.066 -0.0762 -0.1151 -0.1485
20512W        W38716   1.830  17.645  12.421 -0.0622  0.1880  0.0595
20513W        W38717  13.920  11.959  12.188  0.0867 -0.0789 -0.2158
20514W        W38718  13.537  18.191  14.186 -0.0329  0.0293 -0.1228
20515W        W38719   6.920   3.437   0.447 -0.1981 -0.1802 -0.1358
20516W        W38720   4.294  13.123  14.455 -0.1185 -0.1711  0.1389
20517W        W38721  12.667   9.423   3.677 -0.0188  0.0022 -0.2855
20518W        W38722   9.131   6.256  10.564 -0.0040 -0.1194 -0.0819
20519W        W38723   4.648  16.683  13.173 -0.0046  0.0891 -0.1518
20520W        W38724   4.657   3.736   1.930  0.0312 -0.3547 -0.0012
20521W        W38725   1.532   6.321  15.341 -0.1169 -0.1524  0.1992
20522W        W38726   3.446   6.654  14.237  0.2267 -0.2399 -0.2243
20523W        W38727   6.876  16.206  10.598 -0.1190 -0.1527 -0.1484
20524W        W38728  16.692   4.833   2.688  0.3311  0.2964 -0.1986
20525W        W38729   7.925  16.840  14.553 -0.2538  0.0888  0.2507
20526W        W38730  17.823   4.917   1.695  0.1611 -0.0898  0.0587
20527W        W38731   7.293  18.088  15.236 -0.1042  0.0434 -0.0504
20528W        W38732   7.858   8.883   1.444  0.2679  0.1066 -0.0750
20529W        W38733   6.417   0.794  12.547 -0.1822 -0.1522 -0.0896
20530W        W38734  17.865   7.804  14.673 -0.0160 -0.1002  0.0694
20531W        W38735  14.660  11.728   4.490 -0.0789  0.1329  0.0557
20532W        W38736   7.984  10.867   3.155  0.1719  0.2164  0.0227
20533W        W38737  14.781  17.966  15.263  0.1991  0.1888  0.0234
20534W        W38738   3.171   4.600  12.287 -0.1858 -0.1667 -0.2543
20535W        W38739  18.223   3.595  13.592  0.0711 -0.1761 -0.2220
20536W        W38740  12.265   9.326   2.619 -0.0221  0.0738 -0.0033
20537W        W38741   6.692   6.552  13.144  0.2584 -0.0745 -0.0805
20538W        W38742  18.302  17.928  14.522  0.1737  0.0335 -0.0897
20539W        W38743  17.120   7.320  13.997 -0.0828  0.1468  0.2057
20540W        W38744   7.115  10.029   3.911  0.2300  0.1209  0.1285
20541W        W38745  17.269   1.680   1.180 -0.2214  0.0252 -0.2101
20542W        W38746  12.878   0.298   3.267 -0.0829  0.0386 -0.1377
20543W        W38747  11.403   1.435  13.382  0.1310 -0.1399  0.1742
20544W        W38748   4.424  12.477   4.519 -0.2108 -0.1987 -0.0167
20545W        W38749   4.538  10.800   0.840 -0.0483  0.1233  0.1950
20546W        W38750   3.661   7.844   5.705  0.1316  0.0682  0.0843
20547W        W38751   0.247   8.558   2.323 -0.2042  0.2647  0.0662
20548W        W38752  13.863   4.064   4.140 -0.2500  0.0863  0.1667
20549W        W38753  10.482   8.482  14.751  0.3591 -0.1117  0.0185
20550W        W38754   8.246  16.551  10.528 -0.0164  0.2042  0.1452
20551W        W38755  12.779  12.400   2.455  0.0193 -0.0785 -0.0010
20552W        W38756   8.206   3.824  12.563 -0.0667 -0.0321  0.1565
20553W        W38757  11.619   6.147  11.592 -0.2646  0.0001 -0.0741
20554W        W38758   6.746  18.166   2.977  0.0817 -0.0068 -0.0977
20555W        W38759   5.039   1.761  13.058  0.1030  0.3675  0.2686
20556W        W38760   9.421   3.240   0.751 -0.0044  0.0738 -0.2342
20557W        W38761   8.643  10.635  14.640 -0.4049 -0.1172 -0.3822
20558W        W38762   0.011  14.505   4.893 -0.2314  0.2496  0.1807
20559W        W38763  17.460  12.463   0.592  0.0791  0.0094  0.2040
20560W        W38764  16.047  10.895   1.126  0.0386  0.2645  0.0777
20561W        W38765  16.231  11.606   0.376 -0.2094  0.0193  0.1042
20562W        W38766   3.372  12.684  14.425 -0.0496 -0.1911 -0.0156
20563W        W38767   1.035  14.634   1.826  0.0343  0.4792 -0.2231
20564W        W38768   0.823   9.246   3.810  0.0378  0.4663 -0.1404
20565W        W38769   5.509   3.521   3.497  0.1743  0.0745  0.3373
20566W        W38770   4.200   4.831   3.004  0.2948 -0.0940 -0.3557
20567W        W38771   8.936   2.475   1.873 -0.0480 -0.0322  0.1583
20568W        W38772  17.269  17.891   2.155 -0.2051  0.0547 -0.1287
20569W        W38773  17.088  13.447  12.774 -0.4976  0.1916 -0.0018
20570W        W38774  13.583  13.443   3.780 -0.1048 -0.1319 -0.0874
20571W        W38775   0.810   5.094  15.682 -0.3480 -0.1291 -0.0251
20572W        W38776   3.623   5.290  14.880  0.0182 -0.1150 -0.2506
20573W        W38777   3.285  10.428   0.208  0.0234  0.0775  0.0494
20574W        W38778   8.622   2.117   4.291  0.1171 -0.0467 -0.2707
20575W        W38779   4.864  12.125   3.955  0.0433  0.1210  0.1214
20576W        W38780   8.123   7.308  11.645  0.1197 -0.1257  0.1500
20577W        W38781   4.929  13.488  12.289  0.1529 -0.0708 -0.2063
20578W        W38782  14.761  13.474  14.876  0.1357 -0.3526  0.1013
20579W        W38783  11.358   2.425  11.134 -0.1625 -0.2414  0.2605
20580W        W38784  17.637  15.825   2.232  0.0493 -0.0357  0.2811
20581W        W38785   4.238   9.220  11.614 -0.3205  0.0705  0.4111
20582W        W38786   9.915   3.393  14.437 -0.0062 -0.1146 -0.0345
20583W        W38787   8.623   1.518  11.603  0.6329  0.0762  0.3521
20584W        W38788  17.658   5.754   2.071  0.0640  0.0450  0.0056
20585W        W38789   0.678   1.624   4.111  0.2009 -0.1755  0.3033
20586W        W38790   5.994  17.290  13.439 -0.0403  0.0663  0.0950
20587W        W38791  16.162  16.320  11.310  0.2035 -0.1413 -0.2740
20588W        W38792   1.242  10.266  11.048  0.0346  0.0647  0.1004
20589W        W38793   5.605   0.515  10.974  0.1584  0.2277 -0.1476
20590W        W38794   1.247  10.120  11.536 -0.0803  0.3110  0.3072
20591W        W38795  15.093  12.466   2.064 -0.3082 -0.0881  0.0259
20592W        W38796   7.030  13.324  12.770 -0.0904  0.0434  0.2852
20593W        W38797  14.069   7.415  12.569 -0.2149  0.1661 -0.0125
20594W        W38798   3.006   9.599  13.133 -0.2115  0.1039 -0.4729
20595W        W38799  15.945   3.659   2.994 -0.2242  0.6625 -0.2479
20596W        W38800  11.098   2.674  11.772 -0.1563 -0.0298 -0.3509
20597W        W38801   5.249   0.184  12.838 -0.1820 -0.4420 -0.0209
20598W        W38802   0.160   1.061  12.597  0.0047 -0.1425  0.0561
20599W        W38803   2.992  16.688   4.674  0.0385 -0.0307  0.2190
20600W        W38804  15.041  14.274  11.350  0.1229 -0.1611 -0.3870
20601W        W38805   1.305  14.109  14.966  0.0160  0.0584 -0.0277
20602W        W38806   2.906  18.022  15.103  0.0938 -0.1219 -0.1578
20603W        W38807  17.625   5.132  15.601  0.0617  0.0781 -0.2766
20604W        W38808   0.583  16.785  13.268  0.2509  0.1457  0.2407
20605W        W38809   3.561  17.523   1.668  0.2430  0.0348  0.0831
20606W        W38810  13.363  12.793  11.223 -0.0365  0.0236 -0.2030
20607W        W38811   9.847   1.580  14.180 -0.1370  0.3578 -0.1042
20608W        W38812   3.213  12.910  13.672  0.1905  0.0035 -0.2212
20609W        W38813   1.106  16.149  11.902  0.2036  0.2019  0.2148
20610W        W38814  10.757   9.225  15.702 -0.0423 -0.2782 -0.2033
20611W        W38815  15.590  15.608  12.089 -0.0545  0.0225  0.2044
20612W        W38816  15.262   5.891   4.312 -0.4085 -0.4019 -0.0268
20613W        W38817   4.906  16.399   3.468  0.0683  0.2567 -0.0751
20614W        W38818   6.324  10.195  11.399 -0.0784 -0.0313  0.0909
20615W        W38819  15.209  12.769   0.421  0.2232  0.2066 -0.1667
20616W        W38820  16.109  11.376   0.828 -0.2432 -0.2662  0.0502
20617W        W38821   1.759   5.302   3.092 -0.1079 -0.0798 -0.2560
20618W        W38822  12.044   5.968  15.390 -0.0119 -0.1040  0.2550
20619W        W38823  16.415   5.696  14.180  0.2179  0.0819 -0.0811
20620W        W38824   0.141   5.971  15.241 -0.1758  0.0138  0.1047
20621W        W38825   2.586   1.498  14.677  0.0389  0.1108 -0.0494
20622W        W38826  14.447  10.653  12.199  0.1189 -0.1399  0.2532
20623W        W38827  12.402   9.989   1.192  0.0531  0.0464 -0.0108
20624W        W38828  11.912   3.281   5.154 -0.0247 -0.1904  0.1318
20625W        W38829   0.253  13.970  15.320  0.0475 -0.0855 -0.0126
20626W        W38830   0.362  10.697  13.926  0.0855 -0.1107  0.1990
20627W        W38831   3.032  15.474  13.294  0.0692  0.4004  0.0599
20628W        W38832   7.900  10.257   0.173 -0.0763 -0.0517  0.1620
20629W        W38833   6.537   1.868  13.515 -0.0280 -0.0033  0.2447
20630W        W38834  11.029   3.886  15.242 -0.1455 -0.0024 -0.2561
20631W        W38835  11.123  14.315  11.655  0.3172  0.0809  0.3923
20632W        W38836   4.241  10.646  12.457  0.2721 -0.0796  0.0300
20633W        W38837  12.955   6.767   1.773  0.1355  0.1942  0.0961
20634W        W38838   7.730   3.021  11.158  0.1683 -0.1794 -0.0796
20635W        W38839  12.361   3.509  13.443  0.0925 -0.0643  0.1890
20636W        W38840  16.496  11.928  11.845 -0.2553  0.1021 -0.0653
20637W        W38841  11.414   9.053  15.295  0.2527  0.1153 -0.2240
20638W        W38842  11.402   3.359   3.325  0.1319  0.1682 -0.2369
20639W        W38843   0.252   2.800  12.374 -0.3100  0.0111  0.1325
20640W        W38844   9.712   6.965  13.442  0.0621 -0.2601 -0.0286
20641W        W38845   1.701   0.420   0.120  0.2223  0.1159  0.3147
20642W        W38846  15.500  13.602  15.232 -0.0781  0.1573 -0.2891
20643W        W38847  12.340   7.001   0.512 -0.1268  0.1090 -0.1763
20644W        W38848  13.002   7.433  13.223 -0.0538  0.1789 -0.0655
20645W        W38849   8.677   3.887   2.914 -0.1065 -0.2968 -0.0959
20646W        W38850   5.071   1.756   2.143 -0.1350  0.0476 -0.0784
20647W        W38851   4.664   0.387  13.131  0.0065 -0.1153 -0.1724
20648W        W38852  14.064  10.969   4.764 -0.0484  0.0361 -0.4067
20649W        W38853  16.969  15.138  14.767  0.4736 -0.2701  0.2609
20650W        W38854  11.602   6.454   4.506 -0.0479  0.0246 -0.0115
20651W        W38855  18.354  14.015  10.418  0.2053  0.0694 -0.0192
20652W        W38856  17.942  16.890  14.726 -0.2843 -0.0389 -0.1102
20653W        W38857  17.958   3.337  11.955 -0.2588  0.0780  0.0797
20654W        W38858   7.997   9.113  15.418 -0.4537  0.2651  0.0359
20655W        W38859  11.138   2.902  11.317 -0.1613 -0.0589  0.1348
20656W        W38860   3.783   3.735   2.440  0.0139 -0.0571 -0.2072
20657W        W38861  15.060  15.042   0.663  0.1722 -0.2843  0.2820
20658W        W38862   4.723   3.010  11.778 -0.2576 -0.3187  0.3514
20659W        W38863  10.267  11.994  14.422  0.1745 -0.0872  0.3032
20660W        W38864  10.046   0.960  14.607 -0.1524  0.1128 -0.2395
20661W        W38865  17.566   2.616   3.560  0.1144 -0.1702  0.2328
20662W        W38866   0.377   9.420   3.944  0.1373 -0.0704  0.0519
20663W        W38867  14.275  11.822   1.800  0.2371 -0.1276 -0.1581
20664W        W38868  12.311   2.643  11.922 -0.1511  0.4253  0.0772
20665W        W38869  10.819   6.250  12.598  0.3616  0.1895  0.2080
20666W        W38870  16.631   4.134  12.370 -0.0406 -0.5724 -0.3388
20667W        W38871  11.412   0.615   2.714 -0.1020 -0.2150  0.1291
20668W        W38872   8.718   8.353   0.026  0.3958  0.3206 -0.5967
20669W        W38873  10.678   8.615  12.131 -0.1052  0.0888  0.2574
20670W        W38874  16.062  17.654   4.253 -0.1183 -0.0251 -0.2696
20671W        W38875  16.558  15.983  14.944 -0.3273 -0.0260 -0.1277
20672W        W38876  14.275  16.475   4.257  0.1942 -0.2407  0.0015
20673W        W38877   0.217  12.045   1.303 -0.0582  0.4240 -0.0575
20674W        W38878   4.018   7.626  10.955  0.3388  0.3028  0.3293
20675W        W38879   5.551  14.644   4.692  0.0190 -0.1239  0.0682
20676W        W38880   9.861   7.653  10.944 -0.2233 -0.0483  0.1836
20677W        W38881  18.033   4.312   0.388 -0.0273 -0.4164  0.1393
20678W        W38882  14.545   1.108  12.329 -0.3062 -0.0632  0.1648
20679W        W38883  17.327  11.791   4.355 -0.0449  0.1244  0.1474
20680W        W38884   3.371  17.240  11.234  0.0707 -0.0519  0.2476
20681W        W38885   7.594  10.814  13.592  0.0458  0.2673 -0.0190
20682W        W38886   0.217  13.877   0.390  0.1071  0.1008  0.0247
20683W        W38887   2.389   1.390   4.816 -0.0802 -0.2454 -0.0632
20684W        W38888   1.128  17.288   3.370 -0.3364 -0.0240 -0.4077
20685W        W38889   2.588  13.962  14.151 -0.0598 -0.1782  0.2497
20686W        W38890   4.875   5.431  10.577  0.1275 -0.1048  0.2043
20687W        W38891  17.838   8.171   2.535 -0.1022 -0.1331  0.2856
20688W        W38892  18.212   6.571  14.888  0.1274 -0.0195  0.1604
20689W        W38893   1.529   4.177  14.326 -0.2423 -0.0707 -0.1069
20690W        W38894  17.829   7.830   0.790 -0.3469 -0.0008 -0.0442
20691W        W38895   3.795  14.434  12.912 -0.4229  0.2530 -0.0369
20692W        W38896   6.316   0.207  13.053  0.1069 -0.0698  0.1338
20693W        W38897   6.473  12.539  12.237  0.2554  0.2492  0.0379
20694W        W38898   5.550   9.783  13.755  0.1502 -0.0099 -0.1873
20695W        W38899  16.720   8.121   2.257 -0.1168 -0.0055  0.2442
20696W        W38900  16.824  13.857   1.817  0.2056 -0.1031  0.1531
20697W        W38901   0.168  12.738   1.430  0.1299  0.0210  0.2173
20698W        W38902   2.217   0.607  15.071  0.1628  0.0806 -0.1710
20699W        W38903   2.684  12.889   0.642 -0.0899  0.0968  0.1669
20700W        W38904   3.504   3.223   1.469 -0.1945  0.1288 -0.0048
20701W        W38905   1.654  12.634  12.423 -0.0903  0.1158 -0.0439
20702W        W38906   9.169  11.981  13.613  0.0629  0.0795 -0.1340
20703W        W38907   1.405   5.093   1.830 -0.1221 -0.0867 -0.0437
20704W        W38908   2.433  12.412  13.477  0.0197 -0.2291 -0.1644
20705W        W38909  15.333   4.223   0.073  0.1720  0.4347  0.0288
20706W        W38910   9.354  12.999  12.599  0.1451  0.0388 -0.4002
20707W        W38911  14.504  15.617   4.362  0.0316  0.0134 -0.2800
20708W        W38912   7.352  13.131   0.157  0.1338  0.0847  0.2649
20709W        W38913   6.601   3.696   4.416  0.0590  0.1067  0.1920
20710W        W38914   9.760  13.097   1.337 -0.1820  0.0092 -0.0151
20711W        W38915   5.631  12.678  12.355 -0.0990 -0.2090 -0.1720
20712W        W38916  15.028   3.363  13.270 -0.2442 -0.0985 -0.0928
20713W        W38917   8.497   8.187  13.839 -0.0484 -0.0774 -0.0051
20714W        W38918   6.857   5.503   4.194  0.0635  0.0138  0.0025
20715W        W38919   1.590   3.008   1.249  0.2152 -0.2182  0.1071
20716W        W38920   1.327   5.841  15.169 -0.3503  0.2631  0.1562
20717W        W38921   6.309  14.057   4.378  0.1916  0.0062  0.0148
20718W        W38922  14.326  16.927   4.423 -0.3013  0.0954  0.2708
20719W        W38923  15.212   0.742   3.899 -0.0764 -0.0480 -0.3583
20720W        W38924   8.252  11.489  12.409 -0.1226  0.1437  0.0373
20721W        W38925  12.979  15.363  15.353 -0.1494  0.0628 -0.0573
20722W        W38926   9.014  18.343   1.303  0.1167  0.1591  0.1785
20723W        W38927   3.191   4.040   4.707 -0.0923  0.1719  0.0637
20724W        W38928   5.512  14.008  13.324 -0.3569  0.2682  0.0577
20725W        W38929  17.680   4.433  11.110  0.0413  0.1973  0.1980
20726W        W38930   2.666   2.608  12.704 -0.1957 -0.2883  0.2066
20727W        W38931  12.495  11.594  11.238 -0.1215  0.3090 -0.0546
20728W        W38932   1.997  15.154  14.281 -0.2999  0.0942  0.0267
20729W        W38933   1.656   6.184  14.529 -0.3453 -0.1280  0.0297
20730W        W38934  10.107   0.029  10.996 -0.1076  0.3124 -0.2712
20731W        W38935  10.513  13.686  15.360  0.1015  0.0998 -0.2099
20732W        W38936   6.441  15.897  14.090  0.2706 -0.0634  0.1902
20733W        W38937   9.892   3.509  13.258 -0.1616 -0.1271  0.1076
20734W        W38938  10.973  14.895   4.630  0.3928  0.1531 -0.3208
20735W        W38939   7.847   2.853   1.834  0.1061 -0.0206  0.3792
20736W        W38940   1.361  13.056  14.800 -0.0602 -0.1403  0.0950
20737W        W38941   7.468  11.870   0.697 -0.0815  0.1759 -0.0629
20738W        W38942   1.878  10.462   0.068 -0.1394  0.2710  0.1480
20739W        W38943   4.059   7.434  14.437 -0.0524  0.2221  0.1388
20740W        W38944  13.713  11.985  12.886 -0.1794  0.0756  0.1984
20741W        W38945  12.156  12.847  12.223  0.0372 -0.1728  0.3607
20742W        W38946  17.115   2.017  12.607  0.2134 -0.1897  0.0697
20743W        W38947  10.706   4.446   0.455 -0.1087 -0.1250 -0.2572
20744W        W38948   0.588   7.347  14.343 -0.2849 -0.0275 -0.1561
20745W        W38949   6.175   2.739   1.125 -0.0558  0.2285 -0.3908
20746W        W38950  13.853   2.016  14.356  0.0724  0.0168 -0.0724
20747W        W38951   0.482  12.206  13.407 -0.1408 -0.2753 -0.0621
20748W        W38952   8.695  15.928   5.965 -0.1335  0.1280 -0.3683
20749W        W38953  12.801  14.806  15.254 -0.0995 -0.1123 -0.2976
20750W        W38954   4.948  16.849  11.963 -0.1781  0.1975  0.3755
20751W        W38955   2.974   0.679  13.420  0.0945 -0.2437 -0.0149
20752W        W38956  14.000  16.251  14.287 -0.0636 -0.2685 -0.0836
20753W        W38957  16.072   4.265  14.710  0.0539 -0.2779  0.0052
20754W        W38958  12.286  15.224   1.425 -0.1322 -0.0739  0.0276
20755W        W38959   5.927  13.447   3.503 -0.2125 -0.0054  0.1198
20756W        W38960  11.250   8.793   2.567 -0.0330  0.0713  0.1754
20757W        W38961   7.948   9.726  15.083 -0.2752 -0.1427 -0.1342
20758W        W38962  14.215   2.543  15.215 -0.0924  0.0168 -0.2961
20759W        W38963  12.928   2.968  14.136 -0.1646  0.0885 -0.1392
20760W        W38964   5.873   6.251  11.728  0.1366 -0.1432  0.0039
20761W        W38965  16.129   8.542   1.031  0.1133 -0.0285 -0.2325
20762W        W38966   5.253  16.802   1.913 -0.0040 -0.1328  0.1721
20763W        W38967   1.496  11.138  11.528 -0.0871  0.0167  0.3009
20764W        W38968  16.530  17.301  12.147  0.2828  0.3140 -0.0798
20765W        W38969   5.119  12.209  11.122 -0.0951  0.1022 -0.1426
20766W        W38970  16.616   6.107   3.110  0.0047 -0.0070  0.4572
20767W        W38971  13.914   8.605  14.904 -0.0373 -0.3153  0.0057
20768W        W38972   3.673  15.967  14.700 -0.1507  0.1519 -0.0780
20769W        W38973  12.383  10.382  14.056  0.1761  0.2773  0.1096
20770W        W38974  13.023   8.396   2.327  0.3132 -0.5114 -0.0170
20771W        W38975   1.393  13.728   2.019  0.3174  0.2402  0.2676
20772W        W38976   5.760  16.067  12.048  0.2468 -0.1964 -0.1047
20773W        W38977   5.394   6.864  14.401  0.0682 -0.0958 -0.1542
20774W        W38978  16.542   0.131  14.845 -0.1107  0.1394 -0.2683
20775W        W38979   7.467  17.228  12.312  0.2314 -0.1854 -0.1734
20776W        W38980  10.482  18.226  13.596  0.2424  0.0492 -0.0439
20777W        W38981   7.337  15.173  11.173 -0.1638  0.1312  0.2025
20778W        W38982   1.256   8.192   0.925 -0.3031  0.1833 -0.0083
20779W        W38983   9.308   7.172   3.389  0.0235 -0.1608  0.2829
20780W        W38984  10.151  14.550   1.993  0.2475  0.1099 -0.1716
20781W        W38985  10.321   5.810   2.064 -0.0445 -0.3149  0.2887
20782W        W38986  16.287  16.043  11.694 -0.2917 -0.2754 -0.1109
20783W        W38987   4.934   0.588   0.622 -0.0652  0.2919  0.1985
20784W        W38988   3.129   1.849  11.843 -0.1767  0.0358  0.1051
20785W        W38989   0.598  13.733  13.576  0.2460 -0.1314  0.1802
20786W        W38990   7.032  12.547   4.213 -0.0166  0.2270  0.0733
20787W        W38991   8.294  12.946  14.428 -0.1493  0.1372  0.2210
20788W        W38992  17.145  16.270   0.579 -0.0899  0.2553 -0.0582
20789W        W38993   9.245   9.474  14.912  0.0878 -0.0556 -0.1752
20790W        W38994  10.878  15.016   2.972  0.1374 -0.1131 -0.0841
20791W        W38995  12.755   0.150  11.726 -0.0087 -0.0643  0.2198
20792W        W38996  17.864  17.998   0.356  0.0747  0.2936 -0.0887
20793W        W38997  13.624   8.757  13.430  0.1915 -0.0781  0.2556
20794W        W38998   8.205   0.224   2.414 -0.0225 -0.1337  0.3354
20795W        W38999   3.906  10.909  12.762 -0.0146  0.1240  0.0066
20796W        W39000  11.638   9.993  14.926  0.2705  0.1663 -0.0893
20797W        W39001   4.758  11.516  13.747  0.0969  0.0064  0.1541
20798W        W39002  11.746   2.938   4.607  0.0465 -0.0388  0.1068
20799W        W39003  18.087   5.617  15.252 -0.2266  0.1842 -0.1214
20800W        W39004   3.473  17.776   5.117 -0.2998  0.1969 -0.3419
20801W        W39005   2.426   2.854  13.520 -0.0244  0.1462  0.2303
20802W        W39006   4.941   8.004   3.830  0.2420  0.0192  0.1096
20803W        W39007   6.042   4.735   1.630  0.4467  0.0089  0.0145
20804W        W39008  15.316   8.773   1.956 -0.1726 -0.0757  0.0838
20805W        W39009   6.147  12.936  14.830 -0.0395  0.1464  0.1336
20806W        W39010  10.870  16.485  12.564 -0.0755  0.1057  0.1809
20807W        W39011  11.384  11.703  13.614 -0.1478 -0.0781  0.4037
20808W        W39012  16.435   1.809   1.564  0.0529 -0.2546 -0.1032
20809W        W39013   3.813  18.098  10.814 -0.1126 -0.0605  0.1840
20810W        W39014  10.407   5.959  12.445 -0.0177  0.1145  0.3999
20811W        W39015  14.606   6.220  12.380 -0.0918  0.0327 -0.0029
20812W        W39016   3.552  18.232  13.473 -0.2158  0.0919 -0.1546
20813W        W39017   8.007  16.218   2.554  0.0859  0.3097 -0.1338
20814W        W39018   0.207   8.070   0.147 -0.0491  0.1907  0.1819
20815W        W39019   4.134   1.774  14.634  0.3118 -0.2796 -0.3872
20816W        W39020   9.542   9.531  12.825 -0.0772  0.1056 -0.3026
20817W        W39021  14.390   6.851  11.390  0.4043  0.0754 -0.1715
20818W        W39022   5.839  11.141   0.126  0.0996 -0.0923  0.2443
20819W        W39023  15.454   6.434   0.893 -0.1195 -0.0709  0.2946
20820W        W39024  11.893  18.082   2.692  0.0973  0.0353  0.1599
20821W        W39025   7.781   8.990   0.939 -0.2480  0.1801  0.1034
20822W        W39026   5.593  15.646   3.530  0.1183 -0.0329 -0.0971
20823W        W39027   0.340   0.474  15.404 -0.0951  0.0343  0.2057
20824W        W39028   3.290  10.503   0.718 -0.2455 -0.1216 -0.2604
20825W        W39029   5.732   1.451   0.602 -0.1544 -0.2004  0.0783
20826W        W39030   1.476  13.109  11.234  0.0830 -0.0835 -0.0442
20827W        W39031  10.225   7.017   3.202 -0.2712  0.0958 -0.1050
20828W        W39032   0.901  13.821   1.019 -0.1469 -0.0613  0.1680
20829W        W39033   1.535   3.773   3.531 -0.1090 -0.1633 -0.0405
20830W        W39034   3.769   6.569   0.836 -0.0558  0.1839  0.0930
20831W        W39035  13.325   0.322   4.408  0.2553  0.0181 -0.2654
20832W        W39036  16.628   6.462   1.657 -0.0147  0.0813  0.2063
20833W        W39037  12.758  10.949   3.089  0.1493 -0.0733  0.1345
20834W        W39038   8.657   1.816  10.223  0.1658  0.0556  0.0065
20835W        W39039   1.433   8.642  15.488 -0.3041 -0.1108 -0.0232
20836W        W39040   4.540   3.866   1.499 -0.0146 -0.1308  0.1428
20837W        W39041   6.837   1.647   2.667 -0.1131  0.0252  0.0417
20838W        W39042  14.277  12.834  15.152  0.0544 -0.3393 -0.1154
20839W        W39043   2.660   4.807  12.456  0.1570  0.0604  0.0655
20840W        W39044  16.146  10.805  15.519 -0.0789  0.2545  0.0151
20841W        W39045  16.000  14.366   0.106 -0.0229 -0.1479  0.1492
20842W        W39046   7.655  16.760  15.125  0.0553  0.1511  0.1425
20843W        W39047  17.384  11.555   0.547 -0.0476  0.2672  0.0356
20844W        W39048  15.611   6.685   3.451  0.0611 -0.2914  0.1358
20845W        W39049  11.688   8.609   5.512  0.2279 -0.2941 -0.0074
20846W        W39050  13.474   3.121   1.758 -0.2222  0.2782  0.1094
20847W        W39051   1.807   0.950   0.066  0.1287  0.0603 -0.0198
20848W        W39052   6.013  14.805  15.698  0.1383  0.1697  0.0046
20849W        W39053   8.831  16.541   1.292  0.4668 -0.0817  0.2118
20850W        W39054  15.086   6.697  14.685  0.2739 -0.2779 -0.1117
20851W        W39055  13.774   2.995   0.280 -0.0687  0.2401  0.1246
20852W        W39056   8.652   6.310   2.531 -0.3805  0.0646 -0.2940
20853W        W39057   0.313   5.666  10.947 -0.1794  0.0896 -0.3322
20854W        W39058   5.541  17.452   4.029 -0.0277  0.1225 -0.3463
20855W        W39059   1.415  15.434   1.962 -0.1944 -0.0280 -0.0163
20856W        W39060   9.487   1.892  13.515  0.3761  0.1592  0.2711
20857W        W39061   0.417  13.549  11.210 -0.0480 -0.1548  0.0443
20858W        W39062  13.234   4.149  13.855 -0.2230  0.1911 -0.0378
20859W        W39063   2.808   3.893  15.539  0.0137 -0.1144 -0.0591
20860W        W39064   0.197  17.496   0.461  0.0225 -0.3387 -0.2577
20861W        W39065  10.840   6.120  13.811  0.0009  0.0254  0.2610
20862W        W39066   2.924   8.750   1.291 -0.3585  0.1408  0.1321
20863W        W39067   5.230   0.604  14.386 -0.0199 -0.0134  0.2228
20864W        W39068  16.818  15.384  11.490 -0.0126  0.4902  0.0871
20865W        W39069   8.876  15.424   3.680 -0.0220  0.2096  0.1155
20866W        W39070  15.571   8.112  14.247 -0.1349 -0.1033  0.2403
20867W        W39071  11.851   2.654  15.610 -0.1030 -0.0077  0.2687
20868W        W39072   8.933  15.247   2.833  0.4246  0.0337 -0.2469
20869W        W39073   0.683   9.544   1.858 -0.0547 -0.0557  0.1107
20870W        W39074   4.652   5.872   0.054 -0.0348  0.1245 -0.2005
20871W        W39075  11.808  16.684  12.435 -0.3257  0.0943  0.4585
20872W        W39076  16.279   8.780   0.475 -0.0919  0.2812 -0.3830
20873W        W39077   0.360  14.059   1.364 -0.0767 -0.0899 -0.1904
20874W        W39078   5.682   0.995  14.341 -0.1450  0.0014  0.1857
20875W        W39079  18.021  10.335  14.720  0.0668  0.1498  0.1516
20876W        W39080   1.134  16.450   3.587  0.0671 -0.2150  0.4011
20877W        W39081  11.220   1.236   3.245 -0.1545  0.1040  0.0594
20878W        W39082   2.199  12.771   1.743  0.0116 -0.1582 -0.1044
20879W        W39083  11.050   4.655   0.093 -0.1771  0.0740 -0.0886
20880W        W39084   1.138   4.412  13.415  0.5099  0.3124 -0.1059
20881W        W39085  18.365   0.699  15.182  0.0462  0.0230 -0.1096
20882W        W39086   1.347  14.934  11.193  0.0742  0.0622 -0.1298
20883W        W39087   9.419  16.714   2.184  0.1697  0.0911  0.1772
20884W        W39088   9.180   6.986   0.965  0.0872 -0.1637 -0.1478
20885W        W39089   2.272  14.528  15.487  0.1132 -0.1564 -0.1523
20886W        W39090  14.741  11.934   0.351 -0.1264 -0.0356  0.0185
20887W        W39091  11.449   8.031   4.966 -0.2151 -0.0041 -0.1778
20888W        W39092  16.188   9.606   2.796  0.1419  0.0190  0.1352
20889W        W39093   7.796   0.215   4.991 -0.0061 -0.2396  0.0025
20890W        W39094   9.970  11.911   0.932 -0.1117 -0.0727  0.1392
20891W        W39095  13.390   5.668   2.689  0.1166  0.1296  0.2659
20892W        W39096  14.572  11.770  13.944 -0.1177 -0.1081  0.3348
20893W        W39097   1.374   1.591  12.766 -0.0474  0.0625 -0.1846
20894W        W39098  15.878   2.635  11.538  0.0192  0.1097  0.0708
20895W        W39099   7.565   4.464  13.364  0.1626 -0.0834 -0.2679
20896W        W39100   6.044   2.332  15.626  0.1077  0.0581  0.3093
20897W        W39101  14.263   1.001   1.421  0.1194  0.1266 -0.3055
20898W        W39102  12.280  17.966  12.833 -0.1417  0.1239 -0.0233
20899W        W39103  14.965  13.418  14.419  0.1931 -0.2059  0.1165
20900W        W39104   2.558   7.492   4.232  0.0905  0.0265  0.0583
20901W        W39105   3.756   1.880  13.435 -0.0217 -0.1247 -0.0909
20902W        W39106   7.463  12.839  11.386 -0.0911 -0.0150  0.1893
20903W        W39107  13.434  15.896   5.599  0.0975  0.1117  0.0242
20904W        W39108   7.960   5.998  12.480  0.0407 -0.1731 -0.0375
20905W        W39109   7.654   9.529  11.761 -0.0288 -0.1327 -0.0189
20906W        W39110  13.611  11.146  14.546  0.1327  0.1759  0.1747
20907W        W39111   3.155  11.380  14.151 -0.0860 -0.3321  0.2439
20908W        W39112  10.277   6.857   0.496 -0.3208  0.1719  0.3314
20909W        W39113   2.535   3.891   2.164  0.0451 -0.0392 -0.0316
20910W        W39114   3.805   9.028  11.546  0.0282 -0.0808 -0.3194
20911W        W39115   8.085  14.048   1.604  0.2019  0.0487 -0.0897
20912W        W39116  17.836  14.594  12.921  0.2104  0.0732 -0.0934
20913W        W39117  12.769  10.682  14.637 -0.1328  0.4187 -0.0833
20914W        W39118   9.980  18.273  10.219 -0.1404 -0.4492  0.0360
20915W        W39119   9.498  16.480   4.953  0.0566  0.1219 -0.0329
20916W        W39120  15.856   9.206   2.671  0.2436 -0.0111  0.1048
20917W        W39121   7.698   0.037  13.620  0.3474  0.1025  0.2579
20918W        W39122   3.483  11.592   2.463 -0.2657 -0.1687  0.2360
20919W        W39123  17.539   6.964  12.135  0.0475  0.2012  0.1988
20920W        W39124  16.180   0.367  14.501 -0.0764 -0.0507 -0.0144
20921W        W39125   1.123   7.564   2.326  0.1706 -0.1396  0.0624
20922W        W39126   8.572   1.869   0.004  0.0502  0.1801 -0.5143
20923W        W39127   2.830  17.825   2.796 -0.3224  0.1229  0.1189
20924W        W39128   8.148  18.037  12.786  0.2014 -0.4663 -0.2972
20925W        W39129  16.564   5.472  13.768  0.3734 -0.0908 -0.1399
20926W        W39130   7.728   8.435  14.818 -0.1620  0.1583 -0.0806
20927W        W39131   2.313  12.241  13.920  0.1443 -0.2499 -0.0924
20928W        W39132   4.513  13.514  14.675  0.3609 -0.1406 -0.2463
20929W        W39133  14.792  12.356  11.408 -0.3380 -0.1479 -0.1694
20930W        W39134   6.570   1.521   3.035 -0.1668 -0.1984 -0.3177
20931W        W39135   9.874  10.841   3.074 -0.2946 -0.2530 -0.1110
20932W        W39136  16.554   1.212  15.511  0.0971  0.0647 -0.0512
20933W        W39137  13.709  14.485  12.242  0.0123 -0.2178  0.0055
20934W        W39138   7.887  15.053  13.426  0.1156  0.2134 -0.0144
20935W        W39139  12.614   1.380  14.401 -0.1572  0.0622 -0.3270
20936W        W39140   8.296   6.727   0.072 -0.3858  0.0530 -0.2536
20937W        W39141  10.280   0.729  11.453 -0.1054  0.0136 -0.3270
20938W        W39142   1.695   9.062   4.712 -0.2873  0.2110 -0.2569
20939W        W39143  12.307  14.249   1.058  0.2614  0.3246 -0.1842
20940W        W39144   3.274  14.502  11.224  0.1083 -0.1243 -0.2260
20941W        W39145   0.131  11.104   2.124 -0.0558  0.2630 -0.0214
20942W        W39146   2.059   5.744  11.224  0.0027 -0.0790 -0.0411
20943W        W39147   2.139  17.094  14.657  0.0117 -0.1438  0.0475
20944W        W39148  10.600  13.898  13.895  0.0688  0.1891 -0.3025
20945W        W39149   4.362  14.314   1.271 -0.0449 -0.1407  0.1257
20946W        W39150  17.089  11.607   0.146 -0.0665  0.1359 -0.1505
20947W        W39151   1.627   2.240  11.691 -0.0289 -0.0587  0.0155
20948W        W39152   8.359  11.871  12.072 -0.0257 -0.0574  0.3128
20949W        W39153  11.158   9.944  13.605 -0.0625 -0.2048  0.0269
20950W        W39154  15.998   6.633  14.921 -0.1986  0.3059 -0.3035
20951W        W39155   1.064  16.914   0.913 -0.2591 -0.0498 -0.2219
20952W        W39156  13.258  13.794   3.568 -0.1422  0.0288 -0.0477
20953W        W39157   4.012  12.635   1.907 -0.2358  0.0192  0.2077
20954W        W39158   5.135  14.753  11.394  0.0247  0.0046 -0.0811
20955W        W39159   4.918   8.428   4.093 -0.1769 -0.1570 -0.0163
20956W        W39160   1.138   4.488   2.251  0.1087 -0.2253 -0.0216
20957W        W39161   4.355  14.236  14.945 -0.0207  0.0937  0.2777
20958W        W39162  15.251  11.590  11.930  0.0680 -0.0082 -0.1580
20959W        W39163   9.978  13.750   5.253  0.5549 -0.0678 -0.2853
20960W        W39164   9.821  11.620  12.018  0.2152 -0.1835 -0.2175
20961W        W39165   3.680   5.789   1.734  0.1303  0.1982 -0.3120
20962W        W39166  13.242   5.574  14.203  0.0470 -0.4020  0.0115
20963W        W39167   6.348  15.471   1.620  0.0224  0.2376  0.0269
20964W        W39168  17.113  13.193  11.374 -0.0639  0.1304 -0.0640
20965W        W39169  17.868   6.770   3.952 -0.0038 -0.0043  0.1483
20966W        W39170   4.011  13.109  11.019  0.3555  0.1643  0.1238
20967W        W39171   8.344   1.576   1.566 -0.0863 -0.0500  0.0849
20968W        W39172  14.683   7.557   2.398 -0.1951  0.0776  0.1528
20969W        W39173   4.579  13.865  12.299 -0.0426  0.1343 -0.1244
20970W        W39174   4.547  16.721   0.255 -0.1552  0.0916  0.1469
20971W        W39175  14.896   1.769  13.736  0.0848 -0.1106 -0.0091
20972W        W39176   0.637   3.411  14.187  0.1670 -0.5069 -0.1827
20973W        W39177  13.668   0.707  14.221  0.2930 -0.0173 -0.0066
20974W        W39178  13.857  14.024  12.239 -0.2098 -0.0099  0.3190
20975W        W39179  11.415   3.185   1.298 -0.2362  0.1078 -0.1996
20976W        W39180  13.068   3.488  13.935  0.1805  0.3116  0.0106
20977W        W39181  15.271  11.248   4.313 -0.2419 -0.0236  0.2568
20978W        W39182   6.289   3.228  11.747 -0.1843  0.3089  0.0909
20979W        W39183   0.080   4.660   3.562 -0.0527  0.1046 -0.2257
20980W        W39184  15.322  14.517  10.893  0.2378 -0.4009  0.0610
20981W        W39185   8.234   7.513  12.161 -0.1190 -0.3773  0.1058
20982W        W39186  18.123  12.906   3.308  0.1512  0.0409  0.0264
20983W        W39187  10.665  17.338   1.047 -0.1501 -0.0003 -0.0119
20984W        W39188   7.681  17.670   3.399  0.0744 -0.1275  0.3612
20985W        W39189   7.642   0.051   2.672  0.1011  0.2432 -0.1621
20986W        W39190  13.638  15.787  14.251  0.1094 -0.0128 -0.1144
20987W        W39191   0.416  16.357   2.337 -0.0029 -0.2012 -0.1183
20988W        W39192   8.207  10.522   4.291 -0.0747 -0.1732  0.3244
20989W        W39193   3.761  11.709  13.498  0.0250  0.1661  0.0714
20990W        W39194   9.419   9.104   3.930 -0.0454 -0.0426  0.1344
20991W        W39195   4.303   8.476   0.996  0.0546 -0.2384 -0.0435
20992W        W39196  11.737   6.877   4.128 -0.0496 -0.0051 -0.0820
20993W        W39197  11.624  14.844  11.199 -0.2005 -0.3495  0.0821
20994W        W39198  16.179  10.319  15.186 -0.4135 -0.0877  0.0140
20995W        W39199   5.502  14.184  14.624 -0.0299  0.1431  0.0483
20996W        W39200   6.004   2.512  12.831 -0.1311 -0.0944  0.3556
20997W        W39201  15.637  11.952  12.508 -0.4004 -0.0168 -0.6110
20998W        W39202  12.049  17.601  13.233 -0.1157 -0.0480  0.2189
20999W        W39203  14.647   9.423  11.720 -0.4822 -0.1854  0.0242
21000W        W39204   2.218   9.384   3.195  0.3167 -0.0580  0.0784
21001W        W39205  13.912   6.803   0.812  0.2802 -0.1165 -0.3656
21002W        W39206  12.905   5.204   3.028  0.0597  0.1991  0.3374
21003W        W39207   9.692   7.007   1.023 -0.1590 -0.0539  0.2633
21004W        W39208  16.037  10.880  12.115  0.1444  0.0731  0.3184
21005W        W39209  17.449  11.289   1.340 -0.1785  0.1896  0.0643
21006W        W39210  16.388  14.793   2.637  0.2277  0.0233  0.3134
21007W        W39211  12.315   9.714   0.803  0.0619  0.2842  0.3772
21008W        W39212  18.169  12.537  13.075  0.0391 -0.0292 -0.0574
21009W        W39213   2.975   9.900   4.377  0.1162  0.0344 -0.0959
21010W        W39214   9.689   1.076   2.203 -0.0211 -0.0226  0.0053
21011W        W39215   8.943   2.034   1.706  0.4447  0.2035 -0.1222
21012W        W39216  13.838  14.171   3.472  0.2980 -0.0915  0.2013
21013W        W39217   0.489   0.255  11.677 -0.1655 -0.1026  0.1327
21014W        W39218  13.407  15.296  11.369 -0.2191 -0.1021 -0.2803
21015W        W39219  13.405   1.817   3.988 -0.0267  0.1901 -0.0028
21016W        W39220   9.755   6.902   4.500  0.3056  0.1544  0.1602
21017W        W39221  14.065   6.765   2.093  0.0263 -0.1461  0.0001
21018W        W39222   5.248  16.496   4.642 -0.0888 -0.1198  0.1830
21019W        W39223   8.680   1.403  14.414 -0.0910  0.0986 -0.0674
21020W        W39224  18.145  11.470  14.986  0.1189  0.1503 -0.1443
21021W        W39225  17.488  17.530   4.992 -0.0185  0.1882  0.1886
21022W        W39226  10.984  18.098   0.345 -0.0694 -0.2376  0.2043
21023W        W39227   0.943   5.216   1.723 -0.0827  0.0748 -0.1620
21024W        W39228  11.816  14.237   3.788  0.0797 -0.1382 -0.0973
21025W        W39229  14.414   4.932  14.592 -0.1349 -0.2174 -0.2225
21026W        W39230   0.655   4.493   3.582  0.0005  0.2096  0.1723
21027W        W39231  12.057   1.328  15.013  0.0001 -0.0687  0.0363
21028W        W39232   3.463  14.091  12.755 -0.1026  0.1941  0.0961
21029W        W39233  13.901   9.871  15.036  0.2209  0.1638 -0.1663
21030W        W39234   5.177  15.944   3.404  0.0548 -0.1342  0.4567
21031W        W39235  11.015   7.115   5.636 -0.3559  0.0233  0.1454
21032W        W39236   7.927   4.745  14.699  0.1160  0.0079  0.3497
21033W        W39237  13.702   8.141  15.221 -0.1541 -0.1586  0.1580
21034W        W39238   0.937  13.233   3.216  0.2446 -0.0347  0.1477
21035W        W39239   4.905   4.189   4.066  0.2082 -0.2379  0.0302
21036W        W39240   4.770   0.652   4.715 -0.0522 -0.0401 -0.0321
21037W        W39241   2.719  15.347  13.678  0.0605  0.0097  0.1751
21038W        W39242   3.670   7.979  15.181 -0.0376  0.0775  0.0147
21039W        W39243   3.217  11.983  11.795 -0.2939  0.5746  0.1223
21040W        W39244  18.068  11.833  11.618  0.0978 -0.0738  0.2627
21041W        W39245   5.026   2.403   2.104  0.2120 -0.2395 -0.1985
21042W        W39246  11.884  13.505   4.155 -0.1947 -0.4083  0.3359
21043W        W39247   9.500  16.057   4.007  0.3136  0.2060  0.0278
21044W        W39248   3.594   2.567   2.485 -0.0019 -0.2588 -0.4131
21045W        W39249   2.170  10.510   4.254 -0.0751 -0.1279 -0.1501
21046W        W39250   8.573  16.865  10.992 -0.1089 -0.3224 -0.2685
21047W        W39251  11.556   8.000  13.984  0.1586  0.0064 -0.0705
21048W        W39252  14.910  17.439  11.328 -0.0918  0.1686 -0.0106
21049W        W39253   1.138   3.612  10.770  0.2647  0.0056  0.1858
21050W        W39254  13.195   3.714  15.393  0.2968 -0.3627 -0.0857
21051W        W39255  14.854   7.034  14.412 -0.0111  0.0821  0.2589
21052W        W39256   8.076  10.118  12.700 -0.0918 -0.0220 -0.1872
21053W        W39257  18.006  18.032  15.174  0.3032 -0.1899  0.0775
21054W        W39258  16.600   8.864   3.175  0.3762 -0.0062 -0.0513
21055W        W39259   1.989  12.871   1.335 -0.0654 -0.0975 -0.0060
21056W        W39260  12.511   7.017   1.503  0.2300 -0.1736  0.0427
21057W        W39261  16.515  11.946   5.298  0.0581  0.0022  0.3393
21058W        W39262  17.614  12.716  13.093  0.0122  0.1480  0.1577
21059W        W39263  11.928  16.983   4.012  0.1830 -0.1609  0.1493
21060W        W39264   6.130  10.696   2.983 -0.0694  0.0441  0.0395
21061W        W39265   5.501   7.875  12.821  0.1209 -0.0189  0.0475
21062W        W39266  11.368   5.319   2.180 -0.0228  0.0542  0.2162
21063W        W39267   5.264  13.792  14.986  0.1348 -0.0291 -0.1116
21064W        W39268   2.576  10.559   1.433 -0.2317  0.0272 -0.0377
21065W        W39269   6.315   2.680  10.961  0.0127 -0.0354 -0.0820
21066W        W39270   8.183  14.139   4.140  0.0118 -0.0299 -0.2920
21067W        W39271  14.288  10.202  12.142 -0.0081 -0.0309  0.0040
21068W        W39272   2.373   4.871   5.054  0.0186  0.1876  0.0240
21069W        W39273   1.087   6.435   0.693  0.3705 -0.0140  0.1119
21070W        W39274   2.461   7.124  14.724 -0.1344 -0.5639  0.2797
21071W        W39275   7.499   2.441  10.373  0.2230  0.2086  0.4961
21072W        W39276   2.531   6.408  14.241 -0.3778 -0.1140 -0.0331
21073W        W39277   1.187   2.802   3.236 -0.1577  0.2359 -0.3349
21074W        W39278   1.419  17.597   1.075 -0.2723  0.2639 -0.2510
21075W        W39279  15.353   1.298   1.547  0.2651 -0.1524 -0.3434
21076W        W39280   6.380   6.085  13.074  0.1236 -0.0661 -0.0479
21077W        W39281   8.189  10.756  13.408 -0.0282 -0.0308 -0.0158
21078W        W39282   9.850  11.786   0.358 -0.1850 -0.1461  0.1483
21079W        W39283   9.697   0.310  12.441 -0.2022 -0.0167  0.0088
21080W        W39284   2.626  11.988   2.178  0.0227 -0.0864  0.1242
21081W        W39285   1.143   5.348   2.972  0.0047  0.1347 -0.0760
21082W        W39286  13.200  10.268   3.268 -0.1584 -0.1242  0.1183
21083W        W39287  11.283   3.364  11.204 -0.1945  0.0741  0.0706
21084W        W39288  15.696  15.635   1.581 -0.4141  0.1974  0.0551
21085W        W39289   4.371   7.555  12.846 -0.2224 -0.0924  0.0442
21086W        W39290  16.738   8.872   2.666  0.0044 -0.0733  0.1170
21087W        W39291  11.757  13.906  11.444  0.0474  0.2291  0.1303
21088W        W39292  17.437   7.758  11.800 -0.0324  0.0822  0.0271
21089W        W39293   1.492   6.994  10.910 -0.1981  0.0648  0.1104
21090W        W39294  12.459   9.466  13.658 -0.2442  0.1678 -0.0303
21091W        W39295   2.951  16.745  11.051 -0.0059  0.0204  0.2345
21092W        W39296   4.658   6.764   3.673 -0.0539 -0.0796  0.1294
21093W        W39297   9.978   9.901   1.106  0.0315 -0.2404  0.1219
21094W        W39298  17.129   9.826  12.332  0.0432  0.4406 -0.1331
21095W        W39299  12.353   9.941  12.366 -0.2842  0.1258 -0.2365
21096W        W39300   9.698  13.341  12.276 -0.0766  0.0558 -0.2932
21097W        W39301   1.857   5.103  15.245 -0.1797  0.1387  0.1899
21098W        W39302  12.780  17.076  14.235 -0.0645  0.1131  0.2216
21099W        W39303   4.869   7.415   1.336  0.1893  0.0561 -0.2778
21100W        W39304   6.898   6.604   3.521  0.0665  0.1797  0.0678
21101W        W39305   6.492  15.763   1.223  0.2307  0.0565 -0.0664
21102W        W39306   1.696   4.215  12.382 -0.2375 -0.2332 -0.1422
21103W        W39307   6.573   0.894  11.931  0.0096 -0.0451 -0.1301
21104W        W39308  16.922   4.577  11.352 -0.0336 -0.2129  0.1554
21105W        W39309  16.592   4.501   1.838 -0.1985 -0.1636 -0.2731
21106W        W39310   0.136   5.880  11.621  0.0899 -0.3461 -0.0128
21107W        W39311   5.990   0.855  10.988 -0.1289  0.2127  0.1855
21108W        W39312  14.287   9.426   0.638 -0.3875  0.1618 -0.0753
21109W        W39313  16.243  13.196   1.394  0.1202  0.2090  0.0117
21110W        W39314  10.599   6.902  15.149  0.0415  0.1632  0.2070
21111W        W39315  11.340   4.592   3.680  0.1021 -0.2524 -0.0547
21112W        W39316  14.254  11.030   2.559  0.2697  0.0593 -0.3600
21113W        W39317   4.757  11.293  13.002  0.0544 -0.0828 -0.1000
21114W        W39318  13.762  10.929  12.215  0.1145  0.0538 -0.4661
21115W        W39319   4.677   4.065   0.216 -0.1853  0.2087 -0.0019
21116W        W39320  18.226   9.853  13.901 -0.1398  0.0317 -0.0743
21117W        W39321   9.724  13.712   3.970  0.1263  0.1475 -0.0602
21118W        W39322  15.340  15.859   0.674  0.1002  0.2280 -0.0015
21119W        W39323  13.539  16.472  12.340 -0.2167  0.0989 -0.0622
21120W        W39324   4.202  11.561  15.170  0.0029 -0.1521 -0.0880
21121W        W39325  10.108  10.134   5.151 -0.1840 -0.1206 -0.0311
21122W        W39326  15.508  11.826   0.662 -0.0276 -0.0525 -0.2271
21123W        W39327  11.056  13.484  11.862  0.1518  0.0058 -0.1889
21124W        W39328   9.660  13.147  15.652  0.0809  0.0696  0.2242
21125W        W39329   2.595   8.363  13.038 -0.1870  0.0109  0.1679
21126W        W39330   5.688  10.676  13.615 -0.0916 -0.1370 -0.2094
21127W        W39331   8.072   1.605   4.853 -0.1323 -0.1243 -0.1504
21128W        W39332   5.177   7.228  12.413 -0.0109 -0.0095  0.2740
21129W        W39333   8.391   6.277  11.633  0.3227 -0.2760  0.0586
21130W        W39334  17.592   5.713  15.446 -0.0805 -0.0950 -0.3124
21131W        W39335   8.124  11.818   2.372 -0.2378  0.0712 -0.0899
21132W        W39336  17.628   7.198   2.046  0.0501  0.0891  0.3392
21133W        W39337  18.027   9.281  11.382 -0.2095  0.0115  0.0702
21134W        W39338   4.385  10.284  13.299 -0.0704  0.2468  0.0769
21135W        W39339  17.188   1.876   0.448  0.0477 -0.2008 -0.1422
21136W        W39340   1.666  14.553   1.784  0.0186 -0.3804  0.0468
21137W        W39341   2.097  16.602   4.634 -0.1487  0.0753  0.2609
21138W        W39342  14.573   9.637   0.247 -0.2770 -0.0164  0.0847
21139W        W39343   7.729  11.454  12.486 -0.2908  0.2637  0.2010
21140W        W39344  10.765   2.769   0.555  0.0224  0.0060 -0.0678
21141W        W39345   1.517   9.260  11.892 -0.3497 -0.0790 -0.3260
21142W        W39346  13.164   2.682  13.099 -0.2111 -0.0271 -0.1743
21143W        W39347   3.735   0.763  11.350  0.2504 -0.0885 -0.1558
21144W        W39348   9.703   4.651  14.384  0.0843  0.3187  0.1075
21145W        W39349   9.643   6.821   3.054  0.0169 -0.1900  0.1510
21146W        W39350  15.895   9.011  13.165 -0.2145  0.2106 -0.3404
21147W        W39351   7.255   6.834  11.818 -0.2655 -0.2498 -0.0536
21148W        W39352  13.360  16.164  11.000  0.1366  0.0891  0.0533
21149W        W39353  10.947  14.328   2.284 -0.1283 -0.3077 -0.1352
21150W        W39354  10.282   3.878  13.094 -0.0456 -0.2685 -0.1831
21151W        W39355  17.884   2.397  14.104 -0.1974 -0.0331 -0.0564
21152W        W39356  18.168   0.556  12.792  0.1929  0.2844 -0.2581
21153W        W39357   9.990  10.887  13.669  0.1230 -0.2402 -0.3208
21154W        W39358   3.455   8.463  15.058 -0.1643  0.4383 -0.0402
21155W        W39359   1.103   0.576  12.615 -0.0569 -0.0026  0.2563
21156W        W39360  12.177  15.403  13.936 -0.2798  0.0492  0.2306
21157W        W39361   4.914   7.450   4.418  0.0917  0.2177 -0.1424
21158W        W39362   0.117   3.575   2.423  0.1612  0.2003  0.1967
21159W        W39363   4.714  17.794  12.916 -0.1527 -0.2004  0.2150
21160W        W39364  14.331  17.047  12.821 -0.0829 -0.0148  0.1434
21161W        W39365  17.890   3.345  13.028  0.0634 -0.0898 -0.1348
21162W        W39366  10.220   5.765  13.180  0.0521  0.1134  0.3258
21163W        W39367   8.428  16.376  15.323  0.1928 -0.1776 -0.2128
21164W        W39368  14.909   4.011  11.902  0.0292  0.0119 -0.0824
21165W        W39369   0.184  16.300   0.745 -0.0263  0.3975 -0.0058
21166W        W39370   6.586  10.584  14.770 -0.2063  0.1096  0.2303
21167W        W39371   3.591   3.957   0.381 -0.0674 -0.1060 -0.1404
21168W        W39372  16.074   6.714   3.919 -0.2756 -0.4008 -0.2261
21169W        W39373   9.552  14.802   4.151 -0.0462  0.4144 -0.3177
21170W        W39374   9.673  13.884   2.002 -0.0538 -0.0345  0.0945
21171W        W39375   8.667  15.079  12.876 -0.0532 -0.2093 -0.2281
21172W        W39376   4.270  13.846  13.349  0.2312 -0.0038  0.0148
21173W        W39377  13.397   8.449  12.405  0.5215 -0.0429  0.2405
21174W        W39378  16.406   1.587  12.539 -0.0591  0.0055 -0.0351
21175W        W39379   0.014   9.406  11.048  0.0199  0.1446  0.1498
21176W        W39380   7.729   9.472  13.378  0.0109 -0.2014 -0.0599
21177W        W39381  16.175   1.244  14.940  0.1967 -0.1531  0.2358
21178W        W39382   8.723   3.680   0.914  0.1658  0.0544 -0.2336
21179W        W39383  10.124   9.624  12.839  0.1353  0.3909  0.0673
21180W        W39384   0.393   7.202   2.917 -0.1189  0.0826 -0.0667
21181W        W39385  13.285   6.546   1.452 -0.1356  0.1834  0.0371
21182W        W39386   5.073   9.447   1.351  0.0039 -0.0965  0.1817
21183W        W39387   0.315  16.523   4.229 -0.1727 -0.1026  0.0597
21184W        W39388   1.085  12.759   4.374 -0.1677  0.2807 -0.0127
21185W        W39389  10.568   5.822  13.494  0.4931 -0.0170  0.0672
21186W        W39390  17.584   5.604   0.915  0.2347  0.2938 -0.1361
21187W        W39391  12.871  10.829  11.934  0.1178  0.2079  0.0517
21188W        W39392   6.052  13.704   0.484 -0.1794  0.0737  0.1034
21189W        W39393   4.793  10.356  13.750  0.0514 -0.1040 -0.1313
21190W        W39394  17.106  17.095   1.209 -0.1062 -0.0897 -0.2395
21191W        W39395  13.526   1.970   1.777  0.1278 -0.0068  0.1492
21192W        W39396   4.111   5.183  14.061  0.1576  0.0877  0.0063
21193W        W39397  16.191   3.893  12.545 -0.2458  0.0135 -0.2407
21194W        W39398   2.953  12.446  11.811  0.3802 -0.0810  0.3563
21195W        W39399   5.877  12.957   1.502  0.1777 -0.2614  0.0796
21196W        W39400   6.120  15.368  13.406  0.0678 -0.2198  0.1926
21197W        W39401   7.736  12.599   2.723 -0.0341 -0.1849  0.1834
21198W        W39402   6.659   0.997  15.273  0.0077  0.0358  0.0711
21199W        W39403  11.728   3.878  15.226 -0.0050 -0.4369  0.1763
21200W        W39404  12.475  17.431   0.782 -0.2129  0.0966  0.2410
21201W        W39405   9.864   7.231   2.203  0.2741 -0.0790 -0.1119
21202W        W39406  15.660   5.012   4.675 -0.2116 -0.1671 -0.1146
21203W        W39407  16.799   9.334   3.381 -0.0466 -0.3562 -0.0434
21204W        W39408  13.796  14.040   5.705  0.1036 -0.0502  0.3343
21205W        W39409   4.075   3.387  13.423 -0.0118  0.1086 -0.0355
21206W        W39410   8.460  11.074  12.245 -0.1356 -0.0877 -0.1539
21207W        W39411   9.526   4.119   0.045 -0.2081  0.0608  0.1449
21208W        W39412   9.429  12.380   0.166  0.1691  0.1148 -0.2615
21209W        W39413   9.748  12.607   2.529 -0.3522  0.0580  0.0327
21210W        W39414   3.356  13.529  10.877  0.1846 -0.2920  0.2512
21211W        W39415  14.559  13.726  11.547  0.0642  0.2196  0.0153
21212W        W39416   8.093  15.445  14.408  0.0781  0.0202  0.1418
21213W        W39417  10.507   1.514   4.742 -0.1834 -0.1539 -0.2439
21214W        W39418   2.682  17.473  12.493 -0.1897  0.0257  0.2303
21215W        W39419   4.814  18.114   3.940  0.1259  0.2834  0.0606
21216W        W39420   3.640   5.198  15.381 -0.1151  0.0746 -0.1023
21217W        W39421   7.814  13.607  12.394 -0.0850  0.1756  0.0471
21218W        W39422  11.525   9.159  12.968 -0.0501 -0.0104  0.0430
21219W        W39423   0.460  10.384   2.171  0.3794 -0.0386  0.0909
21220W        W39424   7.270   9.090  14.786  0.0973 -0.1375 -0.2151
21221W        W39425  10.438   6.566   3.076  0.0048  0.2198  0.1363
21222W        W39426  12.810   7.290   4.376 -0.4556 -0.3731 -0.0413
21223W        W39427  14.076  17.690   3.748  0.1234 -0.2140  0.0679
21224W        W39428   3.669   5.298   1.928 -0.0667 -0.0118  0.3320
21225W        W39429   8.606  11.468  11.930 -0.0482 -0.0701  0.1736
21226W        W39430  15.626   9.583  11.758  0.2415  0.1919 -0.1856
21227W        W39431   6.037   1.875  13.879  0.3706 -0.2007 -0.0205
21228W        W39432   9.431   9.160   4.629 -0.2102 -0.1259  0.1044
21229W        W39433   1.797   1.349  15.247 -0.1217  0.1028  0.3022
21230W        W39434   5.801   0.424   2.675 -0.2606  0.1190 -0.1621
21231W        W39435  14.530  11.185  12.437 -0.0793 -0.4242  0.0419
21232W        W39436  11.901   9.464   0.570  0.0759  0.2096 -0.2660
21233W        W39437   3.035  13.215   2.170 -0.0081  0.1410  0.0266
21234W        W39438   7.431  17.696  11.482 -0.2253 -0.1573 -0.0055
21235W        W39439   9.368   3.698  13.359 -0.2007  0.0924 -0.0310
21236W        W39440   7.263  16.031  14.304  0.0976  0.2337  0.1966
21237W        W39441  17.981  15.061   3.494 -0.1720 -0.1476 -0.0946
21238W        W39442  11.201  17.107   2.139  0.1307  0.1006 -0.2839
21239W        W39443   9.933  14.293  15.632 -0.1009 -0.0234 -0.1826
21240W        W39444  11.017   7.912   2.279 -0.2328 -0.4664 -0.0504
21241W        W39445   7.483   5.452   3.116 -0.0160  0.3248  0.2444
21242W        W39446  13.631  11.085  12.815 -0.3912 -0.1223 -0.0955
21243W        W39447   9.466   9.886   1.322  0.1501  0.2407 -0.0588
21244W        W39448   1.568   5.431   4.926 -0.0025 -0.0450 -0.1637
21245W        W39449  17.288   0.012  15.249  0.0385 -0.1345 -0.4825
21246W        W39450  12.881  15.572   1.861  0.1283 -0.1934  0.0398
21247W        W39451  17.849   0.459   2.705  0.2826 -0.1729 -0.1806
21248W        W39452   5.632   3.012  14.867 -0.0907  0.1978 -0.0144
21249W        W39453   0.388   8.698  13.395 -0.2883  0.2494 -0.1724
21250W        W39454   1.927   0.399  14.402  0.0628  0.0650  0.3403
21251W        W39455   9.861   7.812   6.240  0.1692 -0.2211 -0.0104
21252W        W39456   3.183  13.379  15.651  0.0661 -0.0066  0.0007
21253W        W39457  17.965   7.907  11.846 -0.0024 -0.0943 -0.3351
21254W        W39458   4.344   8.088  13.924 -0.0220 -0.0263 -0.0404
21255W        W39459  15.085   2.054   2.204  0.0586  0.0964 -0.1108
21256W        W39460   5.056   3.042  14.183 -0.3208 -0.0674 -0.0999
21257W        W39461   4.407   6.971   1.282  0.1392 -0.3162  0.0746
21258W        W39462  10.429   8.966  14.439  0.1073 -0.1029  0.0157
21259W        W39463  10.852   4.302  10.217 -0.0955  0.2541 -0.0944
21260W        W39464  10.542  12.193  13.618  0.3609 -0.1932 -0.3532
21261W        W39465   6.136   2.091  12.264 -0.0940 -0.1811  0.1544
21262W        W39466   9.739  17.968   1.764 -0.0206  0.2493  0.1647
21263W        W39467   9.595  10.914   4.786 -0.0306 -0.2720 -0.0539
21264W        W39468   9.065  13.027   2.654 -0.0639  0.3585  0.0156
21265W        W39469   2.711  15.234   3.119 -0.0634 -0.0744 -0.1505
21266W        W39470   9.463   6.065  12.192 -0.0934  0.1404 -0.3131
21267W        W39471   0.142   7.150   3.638  0.0704 -0.0420 -0.0367
21268W        W39472  17.582  11.010  15.700  0.1399  0.0420 -0.0003
21269W        W39473   4.188   8.032   3.341  0.0918  0.1176 -0.3302
21270W        W39474   2.478   4.964  12.887  0.1816 -0.0858 -0.1089
21271W        W39475  12.906   4.550   0.383  0.4020  0.0139 -0.0075
21272W        W39476   5.432   8.676  12.539 -0.0475  0.0471  0.4565
21273W        W39477   0.508  14.922   1.860  0.2490 -0.1736  0.0229
21274W        W39478  10.570   0.030  12.690 -0.3491  0.1691 -0.1932
21275W        W39479   7.414  15.126  12.167 -0.1608 -0.0477 -0.1286
21276W        W39480   7.214   9.001  13.808  0.2482  0.0161  0.2184
21277W        W39481  14.636   0.163   1.925  0.4057  0.0685  0.2236
21278W        W39482   3.352   7.748   3.320 -0.2866  0.0971 -0.2989
21279W        W39483  13.602  12.617   4.329 -0.2847 -0.1550 -0.1771
21280W        W39484   4.954   0.394  11.238 -0.1687 -0.2663 -0.3663
21281W        W39485   7.809   9.331  13.872 -0.1019  0.3814 -0.2184
21282W        W39486   5.294   6.394  15.511 -0.2733 -0.0214  0.1203
21283W        W39487  14.464  13.693  10.470  0.3696  0.1182  0.0037
21284W        W39488   7.445  18.359  15.701 -0.0456 -0.3113  0.0431
21285W        W39489  15.443  15.802  15.706  0.0860  0.1356  0.0407
21286W        W39490  16.462  17.473  14.942 -0.0812  0.0429  0.0144
21287W        W39491   2.256  12.505   3.511 -0.0061 -0.2813  0.1943
21288W        W39492   3.894  15.362   1.347 -0.1002  0.1088  0.0385
21289W        W39493  17.028   8.957   2.213  0.1305 -0.1270 -0.0711
21290W        W39494  17.680  16.234  12.390  0.0586 -0.0484 -0.1589
21291W        W39495  13.272  17.692   0.743 -0.2285 -0.2506 -0.0140
21292W        W39496  13.041   6.304   1.122  0.1022  0.0350 -0.1406
21293W        W39497  10.000   0.095  13.684  0.0055  0.1576 -0.0085
21294W        W39498  15.921  10.066   0.336  0.2123  0.1148 -0.1056
21295W        W39499   6.935   3.644  10.402 -0.0859 -0.2090 -0.2140
21296W        W39500  10.393  15.229   2.644 -0.0290 -0.3636 -0.0067
21297W        W39501  10.252   3.789  13.655 -0.0739 -0.2537  0.3277
21298W        W39502   3.771   4.363  14.580 -0.1070  0.1721  0.2165
21299W        W39503  17.459  13.802  15.414  0.1014  0.2379  0.2150
21300W        W39504  17.509   7.100   3.797 -0.1268  0.0100  0.5655
21301W        W39505   5.215   1.795   4.022  0.2467  0.2614 -0.0142
21302W        W39506  16.718   8.890   3.785  0.1959 -0.1067 -0.0618
21303W        W39507   4.952  14.949   5.464 -0.3611  0.1539  0.0432
21304W        W39508  10.747  12.524  12.830 -0.1027  0.0013 -0.4328
21305W        W39509   2.519   7.996  15.352 -0.1125 -0.0546  0.2043
21306W        W39510  13.990   9.579   3.102  0.0963 -0.0454  0.0570
21307W        W39511   4.536  14.005   2.194  0.0045 -0.2225  0.3789
21308W        W39512  10.080  16.080   2.381 -0.1153  0.2478  0.0441
21309W        W39513   1.720   1.833  15.540 -0.0838 -0.0403  0.0938
21310W        W39514   8.908   7.852   0.111  0.2178  0.1412  0.0978
21311W        W39515  16.183   1.415   0.513  0.2008 -0.2191 -0.1663
21312W        W39516   9.349  11.494   0.195  0.3054 -0.1714  0.1808
21313W        W39517  14.259   7.717   4.769 -0.1042  0.4997 -0.0462
21314W        W39518   1.622   8.512  12.874  0.3767  0.0328  0.0275
21315W        W39519   7.004   0.495   0.028  0.1398  0.2627 -0.0237
21316W        W39520   4.729   2.145  13.244  0.1607  0.4637 -0.1250
21317W        W39521   4.701   4.153   0.793 -0.1636  0.2568 -0.1825
21318W        W39522  11.995   3.671  13.091 -0.0901 -0.0654 -0.3038
21319W        W39523  10.007   6.604  12.697  0.0844  0.0602  0.3379
21320W        W39524  17.791  11.916   0.631 -0.2365  0.0453 -0.0418
21321W        W39525  17.724  14.347  13.827  0.0371 -0.0658 -0.0100
21322W        W39526  16.015  14.568   4.419  0.0586  0.0799  0.0092
21323W        W39527  14.780   4.378   1.098  0.1923 -0.0495  0.2026
21324W        W39528  15.897  15.110  12.579 -0.0454  0.2478 -0.2980
21325W        W39529  13.546   0.909   2.033 -0.0016 -0.0629 -0.1739
21326W        W39530  16.194   7.836  12.272  0.1357 -0.1699  0.0105
21327W        W39531  13.410  12.836  15.011 -0.0816 -0.0682  0.1419
21328W        W39532   5.676   4.914   0.021 -0.1309 -0.1412 -0.2406
21329W        W39533  17.960  13.431  11.958  0.3345  0.0265 -0.2655
21330W        W39534   0.353   9.463  13.173  0.3502 -0.0301  0.1873
21331W        W39535  13.340   7.399  14.354  0.0043  0.1821 -0.1153
21332W        W39536  14.518  16.571  13.361  0.0523 -0.1419 -0.0473
21333W        W39537   3.303   0.640   1.604  0.1938  0.1321 -0.0945
21334W        W39538  14.909  17.133   3.049 -0.2558 -0.0053 -0.3792
21335W        W39539  14.619  18.372  13.352 -0.5023  0.3671 -0.1351
21336W        W39540  10.418  11.421  15.230 -0.0035 -0.1997 -0.0285
21337W        W39541  16.633   8.804   0.881 -0.2587  0.4956  0.2118
21338W        W39542  17.521   9.354   3.048  0.2335 -0.0102 -0.0046
21339W        W39543   6.771  15.422  12.638  0.0484 -0.1186 -0.0433
21340W        W39544   0.570   3.185  11.660 -0.2126  0.2758  0.0574
21341W        W39545   3.161   8.170  12.595  0.0012  0.0959 -0.2063
21342W        W39546  14.537  17.089   1.012  0.1013 -0.1264  0.1310
21343W        W39547   0.532   1.333   4.557  0.0121 -0.0530 -0.0246
21344W        W39548  11.557   8.660   5.017 -0.0154  0.1799  0.3173
21345W        W39549   3.988   6.935   4.320  0.2158 -0.1798 -0.1479
21346W        W39550   2.166   3.072  13.112  0.2218  0.0609  0.1578
21347W        W39551  10.924   7.584   1.206 -0.0391 -0.3493  0.1672
21348W        W39552   6.902   0.352  13.915  0.0498  0.0569  0.1580
21349W        W39553  10.779  16.307   4.492  0.1430  0.1152 -0.0303
21350W        W39554  15.424   9.221  13.456 -0.0439  0.0856  0.0555
21351W        W39555  12.910   6.504  14.522 -0.0529 -0.0465  0.2698
21352W        W39556   8.020  12.328   2.338 -0.1420 -0.0968 -0.0789
21353W        W39557   2.567  10.245  12.739 -0.0883  0.2189  0.0117
21354W        W39558  17.823   0.857   1.409 -0.0188  0.3965 -0.0253
21355W        W39559   2.668   7.565   2.545  0.0313  0.1214  0.0448
21356W        W39560  10.516   1.513   0.553  0.1718 -0.0040  0.0970
21357W        W39561  11.770  11.098  13.130 -0.1575 -0.2132  0.0822
21358W        W39562   1.781   6.672  12.920  0.2280 -0.0308  0.2740
21359W        W39563  14.482  10.515  14.088 -0.0205  0.0955  0.0370
21360W        W39564  18.200   2.388  14.515 -0.0775 -0.1323 -0.0167
21361W        W39565  13.490   9.763  15.322  0.2702  0.3091 -0.1467
21362W        W39566   0.910  12.882  14.659 -0.0849 -0.0568  0.0894
21363W        W39567  15.466  17.451   2.283 -0.3391  0.0318  0.1955
21364W        W39568  14.860  15.622   0.025  0.5058 -0.2892  0.0257
21365W        W39569   0.843   2.475   0.393 -0.0053  0.0798  0.2459
21366W        W39570  14.264  11.553  11.770  0.1871  0.5773  0.1901
21367W        W39571  16.774   6.565  12.416  0.0779 -0.0594  0.0588
21368W        W39572   9.734   5.970  13.572 -0.0937 -0.4412 -0.0298
21369W        W39573  14.302   9.337   4.000  0.1140  0.0487 -0.0698
21370W        W39574   6.838   0.314   3.050  0.0692 -0.2392  0.0264
21371W        W39575   8.047   0.267  11.835  0.0737  0.4040 -0.1018
21372W        W39576  12.724  13.936  11.061 -0.0500 -0.3004 -0.2148
21373W        W39577  15.817   4.779  13.258 -0.0273  0.4491  0.2047
21374W        W39578   8.830   5.358  15.566 -0.4217  0.0550  0.1524
21375W        W39579   7.564  17.865   3.888 -0.0004  0.0744  0.1512
21376W        W39580  14.156   4.693  12.596  0.1520  0.1173  0.0383
21377W        W39581  13.180   5.767  12.487 -0.0320  0.3407  0.2009
21378W        W39582  11.641   0.951   4.613 -0.3560 -0.1935 -0.1248
21379W        W39583   6.920   3.749   0.059 -0.0102 -0.0326  0.0762
21380W        W39584   5.725   3.628  14.182  0.3699  0.1051  0.1906
21381W        W39585   2.725   1.114   2.012  0.0377 -0.3016  0.0630
21382W        W39586   4.941   2.825  12.726  0.2501  0.1415 -0.1500
21383W        W39587  17.619  18.367   5.502  0.1000 -0.1191 -0.0644
21384W        W39588   3.218  16.961  12.064  0.0357 -0.1368 -0.1939
21385W        W39589  11.577  15.778   2.079 -0.3004  0.1810 -0.1749
21386W        W39590   5.635  11.839   4.447 -0.0008 -0.0398 -0.0490
21387W        W39591  10.011  16.441   1.860  0.0435  0.0555  0.1442
21388W        W39592  14.253   6.946   2.977 -0.2118  0.0151  0.0249
21389W        W39593   6.459  16.787   0.657  0.1229  0.0763 -0.1219
21390W        W39594  11.709   7.334   2.397  0.3193  0.2330 -0.0241
21391W        W39595  13.466   4.201  11.237 -0.2710 -0.1004 -0.2604
21392W        W39596   8.468  12.921  13.343 -0.2465  0.4262  0.3186
21393W        W39597  10.336  13.412   0.033  0.1394 -0.1978  0.1341
21394W        W39598   0.202   3.613  14.786  0.1047  0.1471 -0.1034
21395W        W39599   8.746   1.450  13.807  0.3819  0.3262  0.1623
21396W        W39600  12.638   4.930   3.965 -0.0927  0.1260 -0.0816
21397W        W39601  10.225   7.749  14.958 -0.1763  0.1182 -0.1451
21398W        W39602   5.219   7.912   1.422 -0.0406 -0.1922 -0.1257
21399W        W39603   5.863   4.760   2.085 -0.0520  0.1167  0.0991
21400W        W39604   8.969   9.462  13.410  0.0320 -0.1687 -0.0904
21401W        W39605  16.114  12.190  12.886 -0.0334 -0.3441 -0.1849
21402W        W39606   7.915  13.896   2.089  0.1538 -0.0038 -0.0149
21403W        W39607  14.799  15.034   4.383 -0.0276  0.1452 -0.2911
21404W        W39608  11.795   3.362  15.328  0.0575 -0.2957 -0.0934
21405W        W39609  13.157   7.483   1.307 -0.2340 -0.0480  0.1557
21406W        W39610   2.132   7.473   2.378  0.0266  0.0533  0.0999
21407W        W39611  12.192  15.334   4.684  0.0594  0.1826  0.2467
21408W        W39612  17.736  13.854  12.090 -0.1412  0.0656  0.4058
21409W        W39613  13.947  12.908   5.822  0.0728 -0.0610 -0.0739
21410W        W39614  15.516   5.458  11.394 -0.2150  0.1167 -0.4171
21411W        W39615  17.941  12.429  10.157 -0.0261 -0.0550 -0.0411
21412W        W39616   3.630  11.698  10.275  0.0633  0.2860  0.0748
21413W        W39617  12.221  16.954   2.871 -0.0005  0.0811  0.3045
21414W        W39618  13.614   1.746   4.789 -0.2765  0.1207  0.2170
21415W        W39619  12.192  14.041   3.409 -0.1613 -0.0314 -0.1091
21416W        W39620  10.018   3.150   4.529  0.0120  0.0544 -0.0454
21417W        W39621  13.303   1.473   4.502 -0.1302 -0.0342  0.3130
21418W        W39622  17.224   9.825  11.565 -0.0917 -0.3207 -0.3820
21419W        W39623   0.925   6.802   1.931 -0.0915 -0.2384 -0.1201
21420W        W39624   4.308   6.153   3.093  0.3341 -0.3395  0.1245
21421W        W39625  17.780   6.211   0.017  0.0889  0.2064 -0.0802
21422W        W39626   8.764  17.453   4.949 -0.2084  0.0457 -0.0912
21423W        W39627  14.436   0.010   4.330  0.1558 -0.1969 -0.0029
21424W        W39628   0.070  14.659   1.583 -0.0018 -0.0060 -0.1998
21425W        W39629  14.123   0.931   0.542 -0.0431  0.4401  0.0769
21426W        W39630   9.942   8.260   3.036 -0.5694 -0.1092  0.2568
21427W        W39631  18.132  14.449   3.727 -0.1283  0.0671  0.1870
21428W        W39632   9.312  11.086  13.325 -0.2156 -0.0963 -0.0327
21429W        W39633   4.677   0.147   0.456 -0.1209  0.0476 -0.0010
21430W        W39634  12.324   4.133   5.109  0.0961  0.1021  0.0263
21431W        W39635   9.624  16.706  12.402  0.1048 -0.0257 -0.0024
21432W        W39636   3.346   9.243  13.297 -0.0570  0.2859  0.0796
21433W        W39637   9.186   7.982  12.146 -0.0795  0.1675  0.4835
21434W        W39638   0.489   4.440  12.534 -0.1926 -0.1011  0.0779
21435W        W39639   4.224  12.622  14.307 -0.0593 -0.1071 -0.0373
21436W        W39640   1.759   7.963   3.918  0.0287 -0.1261  0.3523
21437W        W39641  10.301  15.486   1.654  0.0940 -0.0611  0.0737
21438W        W39642   9.887  13.266  11.039  0.2418 -0.1631 -0.1652
21439W        W39643   9.688   9.250   2.537  0.0741  0.1706  0.0904
21440W        W39644   8.780   9.241  14.775 -0.1184  0.2332  0.2270
21441W        W39645   4.854   6.202   0.375  0.3784  0.4419 -0.0817
21442W        W39646   3.145  15.998   4.183  0.2422 -0.1869  0.0244
21443W        W39647   9.252   9.643  15.659  0.3252 -0.0627 -0.0164
21444W        W39648   9.171  11.555  12.085  0.0017 -0.1129 -0.1632
21445W        W39649  15.361  17.248  14.720 -0.1584 -0.0622 -0.1589
21446W        W39650   0.936   9.422  15.147  0.0669 -0.3367 -0.2551
21447W        W39651   1.069  17.725  15.261 -0.1394 -0.1131 -0.1492
21448W        W39652   0.873  17.071  12.720 -0.4812 -0.1590  0.1849
21449W        W39653   1.213  11.946  11.232 -0.2562  0.3209  0.2982
21450W        W39654  14.679  13.109   3.037 -0.0886 -0.1545  0.3434
21451W        W39655  13.754   2.555  15.538 -0.0136  0.1905 -0.0309
21452W        W39656  18.197   9.472  12.919 -0.2959  0.1263 -0.2708
21453W        W39657  11.370   8.563  15.251 -0.0723 -0.0934 -0.3435
21454W        W39658   5.206   1.412  12.674  0.0894 -0.1549  0.0788
21455W        W39659   7.397   4.876   0.977 -0.1673  0.0345  0.0871
21456W        W39660   8.235   3.585   1.283  0.1552  0.0533  0.0500
21457W        W39661   3.207   3.439   4.206 -0.2125 -0.0737  0.0156
21458W        W39662   0.017  11.632   3.116  0.0773  0.0463 -0.1568
21459W        W39663  11.618   2.955  11.044  0.3805 -0.1326  0.4137
21460W        W39664  10.406  14.853  14.420  0.1565  0.0443  0.0907
21461W        W39665  11.886   6.364  13.706 -0.0955 -0.0271  0.2755
21462W        W39666   5.342   0.504  12.214 -0.1603 -0.0105  0.1784
21463W        W39667  13.112  13.343   3.570 -0.0591  0.0859  0.0089
21464W        W39668   5.950   4.939  13.816  0.2755  0.1079  0.2975
21465W        W39669   5.322   7.475   3.857 -0.3468 -0.2728  0.2812
21466W        W39670  15.113   5.700  11.088  0.0322 -0.0181  0.1191
21467W        W39671   8.848   1.569   4.112 -0.1761  0.0124 -0.1256
21468W        W39672  16.735  10.078   2.945 -0.1894  0.1132 -0.0468
21469W        W39673  14.845   8.800  12.492 -0.1022  0.2059 -0.3566
21470W        W39674  16.156   2.629  15.711 -0.1277  0.1101  0.1034
21471W        W39675  17.045   9.928   1.318  0.1932 -0.3615 -0.0384
21472W        W39676   6.261   8.517  11.599  0.2856  0.1451 -0.0893
21473W        W39677  13.483  14.334  10.487  0.0621  0.3494 -0.0536
21474W        W39678  10.643   7.198   4.106 -0.3502  0.2040 -0.1241
21475W        W39679  14.599   1.154   0.572 -0.1402 -0.2666 -0.2436
21476W        W39680   2.582  13.648   4.108  0.2789 -0.1436 -0.0914
21477W        W39681   5.911  13.859  14.532  0.1616  0.1581  0.2670
21478W        W39682   5.522  18.262  14.236 -0.1031 -0.3813  0.1905
21479W        W39683   3.628   5.920  13.410  0.2793 -0.3416 -0.1126
21480W        W39684   1.046   0.645  12.115 -0.1643 -0.0658  0.0280
21481W        W39685  17.048  10.474   1.330  0.1673  0.0628  0.2320
21482W        W39686  12.277  11.891   0.945 -0.3960  0.0057  0.1023
21483W        W39687  10.459   6.473  13.964 -0.0363 -0.3193 -0.3187
21484W        W39688  17.193   4.134   3.316 -0.1999 -0.1475 -0.0506
21485W        W39689   3.131   6.082   0.424  0.0103 -0.1714 -0.1563
21486W        W39690  16.081  15.025   4.538  0.0988 -0.1753 -0.3446
21487W        W39691  16.334   4.636  13.403 -0.1770 -0.1662 -0.1651
21488W        W39692   5.648  14.811  11.467 -0.1431 -0.1473 -0.0515
21489W        W39693  11.141  11.502  14.535  0.1503 -0.2879 -0.1031
21490W        W39694  16.577   8.149  13.925  0.3584  0.1721  0.1489
21491W        W39695  10.718   6.566  11.323 -0.1130 -0.1770 -0.2565
21492W        W39696  17.061   2.524  13.281 -0.0277  0.0179 -0.1565
21493W        W39697   1.470  13.773  15.272 -0.0369 -0.0165  0.0407
21494W        W39698   2.520   9.755   3.387  0.0815  0.2904 -0.2015
21495W        W39699  12.326  14.108   0.038  0.3049 -0.1814 -0.1932
21496W        W39700  14.629  12.346  10.957 -0.0163  0.3466 -0.1440
21497W        W39701   0.066  13.755   4.495 -0.3373 -0.0431 -0.3974
21498W        W39702  15.491  14.403  15.684 -0.0464  0.3105 -0.0298
21499W        W39703   4.429   5.377  12.183  0.1034 -0.0695  0.1180
21500W        W39704   3.648   7.041   2.698 -0.1931  0.0613 -0.0545
21501W        W39705  16.821   2.531   2.861 -0.1823  0.2398  0.0172
21502W        W39706  10.723   8.895   1.146 -0.0233  0.2585 -0.0966
21503W        W39707  16.848   7.060   4.125  0.0335  0.1003  0.0111
21504W        W39708  11.803   9.238  14.303 -0.1244 -0.2283 -0.0245
21505W        W39709  16.530  15.679  13.332 -0.0693 -0.0427 -0.0280
21506W        W39710   1.330  13.389  11.739 -0.0404  0.0655 -0.2168
21507W        W39711  10.948  11.703  13.178  0.0900  0.0755 -0.0726
21508W        W39712   9.064   1.795  14.192  0.1262  0.0943 -0.0949
21509W        W39713  14.996   4.641  12.876 -0.2098 -0.0984  0.2113
21510W        W39714   3.408   3.448   0.493 -0.1868 -0.1567 -0.1902
21511W        W39715  13.332   7.862   4.070  0.0431 -0.2423  0.1281
21512W        W39716   5.567   0.776   1.343  0.0469 -0.2439  0.0607
21513W        W39717   3.084   8.382   3.435  0.0442  0.1754 -0.2350
21514W        W39718   7.142  11.237   0.280  0.0581 -0.1434  0.0605
21515W        W39719  15.268   5.139   2.117 -0.2449  0.0449 -0.1220
21516W        W39720   2.412  17.702  11.486  0.0811 -0.2646  0.1788
21517W        W39721  10.552  12.823   1.706  0.2539  0.1595 -0.2190
21518W        W39722  15.355   8.324   2.824  0.0049  0.1779  0.1776
21519W        W39723  10.534  10.832  12.084 -0.1083  0.2813 -0.0914
21520W        W39724  10.035  11.385  13.727 -0.1726  0.0737  0.1718
21521W        W39725   4.992   6.314  11.019 -0.0209 -0.1791 -0.1038
21522W        W39726   2.312   5.130   3.559  0.1144 -0.4524 -0.2376
21523W        W39727   0.824   9.284   0.491 -0.0946  0.1342 -0.0353
21524W        W39728   3.191   7.508   3.693 -0.1845 -0.2301 -0.0882
21525W        W39729   2.866   0.302  12.336 -0.1558 -0.2855 -0.1274
21526W        W39730  17.492   1.657  14.799  0.1860 -0.0559  0.0954
21527W        W39731  14.992   1.732   0.510  0.0729  0.1769  0.0717
21528W        W39732   9.867   1.243  12.548 -0.2201 -0.0162  0.0214
21529W        W39733   9.749   2.015  11.038  0.1872 -0.0083  0.1873
21530W        W39734   2.158  17.038  13.085 -0.0206  0.5186  0.1875
21531W        W39735   0.535  15.235  10.533  0.0729  0.2851 -0.3722
21532W        W39736   0.169   0.814   2.082 -0.1800  0.0991 -0.1352
21533W        W39737  17.069  12.410   2.793  0.5476 -0.1269 -0.3532
21534W        W39738   1.408   6.622  11.321  0.1616 -0.0681  0.1038
21535W        W39739   4.140   2.629  12.887 -0.4711 -0.1501  0.0271
21536W        W39740   1.309   9.690   2.972 -0.1663  0.0291  0.1849
21537W        W39741  12.298   8.419  13.434  0.0853  0.3612 -0.0654
21538W        W39742   9.604   0.511   1.051 -0.1890 -0.1890  0.0709
21539W        W39743   2.176   8.760  12.374 -0.1741 -0.0330 -0.1686
21540W        W39744  17.775  12.832  11.253  0.0688 -0.0883 -0.1183
21541W        W39745   1.284  13.554  11.205  0.0135  0.4537 -0.1577
21542W        W39746  12.787  11.433   3.760  0.2647 -0.1909 -0.0772
21543W        W39747   2.510   2.678   0.594  0.0282  0.2140  0.0686
21544W        W39748  11.945   5.848   1.766 -0.0346  0.1856  0.1649
21545W        W39749   8.812  18.070  11.692 -0.1537 -0.0057 -0.0950
21546W        W39750   9.512   4.891   1.956 -0.4531  0.1393 -0.0035
21547W        W39751   0.361   7.600  15.628 -0.1053 -0.0631  0.2123
21548W        W39752   7.438   4.022  13.643 -0.1863  0.1311  0.1874
21549W        W39753   1.427  13.595   4.593  0.0588  0.1278  0.0216
21550W        W39754  18.370  10.680   1.809 -0.0018  0.2297  0.0882
21551W        W39755   8.875   9.345  15.418 -0.2531  0.2896  0.0774
21552W        W39756   0.070   3.413  11.644 -0.0184 -0.0031 -0.0797
21553W        W39757  17.970  18.118   3.480 -0.0141 -0.1234  0.1155
21554W        W39758  15.347  15.026   4.228  0.0232  0.2634  0.2741
21555W        W39759  10.745  13.890   3.819  0.1569  0.1736  0.0535
21556W        W39760  11.739   3.594   0.291 -0.1784  0.1539  0.1225
21557W        W39761   4.425   4.594  14.031 -0.1999 -0.2775  0.0672
21558W        W39762   0.153  12.790  12.632 -0.0101 -0.1909 -0.0631
21559W        W39763  13.174  15.345  12.800  0.1451 -0.1200 -0.2527
21560W        W39764   2.098  17.779   3.245  0.0444  0.0148 -0.1021
21561W        W39765  14.295   8.753   0.003 -0.0292 -0.1036 -0.0267
21562W        W39766  16.805   8.441  11.912  0.1401 -0.1657 -0.0942
21563W        W39767  10.842  11.797  13.671 -0.2117  0.1561 -0.0460
21564W        W39768   9.994   6.598   2.774  0.0417  0.2775 -0.1557
21565W        W39769  11.491   9.453  11.322  0.1260 -0.2205 -0.3800
21566W        W39770   0.821   4.162  15.432 -0.1893 -0.2770  0.0408
21567W        W39771  17.056   9.130   0.704  0.1441  0.0672  0.2989
21568W        W39772  10.043  10.784  11.747  0.0219 -0.0335  0.0715
21569W        W39773   3.782  17.916   4.715  0.4303  0.1496  0.0636
21570W        W39774   8.913   9.151  10.938 -0.0018  0.0959 -0.0183
21571W        W39775   3.432  10.620  14.787 -0.0810  0.0365 -0.2163
21572W        W39776   4.798  13.015   2.100 -0.1216 -0.1542 -0.1451
21573W        W39777   8.935   0.497   2.493 -0.1171 -0.1011  0.0539
21574W        W39778  10.667   3.697  14.436  0.0845  0.2844  0.0894
21575W        W39779   7.591  16.012   1.054  0.4154 -0.0157  0.0440
21576W        W39780  12.402   9.983   3.378  0.1498  0.1552  0.0175
21577W        W39781   8.752   3.311   2.198  0.3033  0.2458 -0.1242
21578W        W39782   2.086   7.383  13.452  0.0619  0.3358  0.3222
21579W        W39783   7.781  10.412   3.232  0.0122  0.1145 -0.2386
21580W        W39784  13.707  12.361   1.047  0.0643  0.3111  0.0528
21581W        W39785   3.380  18.063  15.213  0.1273  0.1917 -0.0893
21582W        W39786  12.270   1.784  15.059 -0.1733  0.1147 -0.2612
21583W        W39787  11.268   5.108   4.022 -0.0601 -0.2754  0.0953
21584W        W39788   7.074  17.375  12.643  0.0023  0.5249 -0.1958
21585W        W39789  12.335  10.722  12.381 -0.0045 -0.2727  0.1825
21586W        W39790  18.309   7.828  14.911 -0.3292  0.3038  0.1423
21587W        W39791  10.155   1.916   4.077  0.0501 -0.1304  0.0314
21588W        W39792   5.786  11.721   2.308 -0.3368  0.2993  0.0588
21589W        W39793   7.895   2.926  15.548  0.1081  0.0463 -0.0592
21590W        W39794   1.531   4.130   2.221 -0.0433 -0.0107  0.4125
21591W        W39795   5.230  16.441  11.949 -0.0591 -0.0320  0.1630
21592W        W39796   1.887  16.237   1.706  0.2469  0.1127  0.0597
21593W        W39797   0.045   9.431   5.468 -0.0341 -0.0200  0.2116
21594W        W39798   4.465   6.330   4.551 -0.0389  0.0692 -0.1234
21595W        W39799  15.922  10.505   0.829  0.0133 -0.3540 -0.0531
21596W        W39800   1.813  11.356   1.579 -0.0822  0.1947  0.1359
21597W        W39801  17.593   6.346   3.879  0.0528  0.3634 -0.1388
21598W        W39802   9.201   0.330   3.610  0.0045  0.0597 -0.0947
21599W        W39803  12.246   0.383   0.504  0.1062 -0.1288 -0.0601
21600W        W39804  16.647  12.809  12.156 -0.2767  0.3837  0.0735
21601W        W39805  17.062  15.462  15.509  0.1765  0.1153 -0.3117
21602W        W39806   1.436   4.603   0.547 -0.1145  0.1966  0.2025
21603W        W39807   4.970  10.551  12.012 -0.3415  0.0690 -0.1107
21604W        W39808   3.813   0.611  13.476 -0.1365 -0.1616  0.1173
21605W        W39809  17.930   0.722   4.281  0.0692 -0.0594 -0.0690
21606W        W39810   8.157  14.277   4.618  0.2560 -0.1644 -0.0549
21607W        W39811  15.253   8.241  12.530 -0.1579  0.2210 -0.1686
21608W        W39812   8.096   0.292   1.381 -0.4088 -0.0153 -0.2208
21609W        W39813   0.438   1.401  15.190  0.2775 -0.2393 -0.2398
21610W        W39814  17.428   8.340   2.745  0.0779 -0.0968 -0.2380
21611W        W39815   6.858   7.915  10.727 -0.3253 -0.2570  0.1668
21612W        W39816  15.284   5.882  11.633  0.1056 -0.0459 -0.1367
21613W        W39817  14.447   1.808   1.561 -0.0704  0.1256 -0.0782
21614W        W39818  12.753   0.468  11.272  0.0216 -0.1241  0.1986
21615W        W39819   8.064  15.105   3.318 -0.1033  0.0754 -0.0140
21616W        W39820  16.244   4.639   1.395  0.1112  0.0707 -0.3958
21617W        W39821   9.050   6.086  14.920  0.3426 -0.0007  0.0609
21618W        W39822   1.362   4.319  15.571  0.0686  0.0314  0.1973
21619W        W39823  13.565  15.694   4.197 -0.2744 -0.0527  0.8396
21620W        W39824   5.727   0.666  14.695  0.0602 -0.0225  0.4404
21621W        W39825   5.483  17.073  11.986  0.0890  0.4320 -0.0271
21622W        W39826   7.463   7.080  13.796  0.1289  0.0309  0.2051
21623W        W39827   9.280   5.304   2.357  0.2778 -0.2694 -0.1597
21624W        W39828  11.794  14.833   3.824 -0.3961 -0.1858 -0.2052
21625W        W39829   2.498  14.875  12.455  0.0564  0.1779  0.3449
21626W        W39830  10.258   7.513   5.387  0.0626 -0.1391 -0.0486
21627W        W39831   2.639   2.548   1.277 -0.0501  0.3249  0.2101
21628W        W39832   7.074   1.738   4.270 -0.0472  0.1140  0.1815
21629W        W39833  12.615   1.558   4.296  0.1293  0.0468 -0.0487
21630W        W39834  10.759   4.714  14.452 -0.2120 -0.3320 -0.2287
21631W        W39835  14.178  12.060  12.679 -0.1149  0.1534  0.0951
21632W        W39836   6.442  17.992   1.611 -0.0920 -0.3618 -0.3420
21633W        W39837   5.675   1.072  11.390  0.0294 -0.0501  0.1479
21634W        W39838  11.821   6.745   5.954  0.2256  0.0165  0.0319
21635W        W39839   6.787  10.887  13.301  0.2924 -0.0791  0.1090
21636W        W39840   0.445   1.408  11.848 -0.3931  0.2372 -0.1633
21637W        W39841  17.479   3.679   3.830 -0.1714 -0.0812  0.0560
21638W        W39842  13.885  16.648  10.935 -0.2620 -0.1872 -0.0938
21639W        W39843  11.226  17.081  11.141 -0.1835  0.2708 -0.0254
21640W        W39844   1.554   3.137  11.023 -0.0638  0.1794  0.3559
21641W        W39845   6.490  12.048  11.431  0.1008 -0.0427 -0.1230
21642W        W39846  11.221   9.920  13.004  0.0690  0.3031  0.1495
21643W        W39847   1.424   1.952   3.565  0.1016  0.1477  0.1010
21644W        W39848   4.911   2.532  14.634 -0.0539  0.0077  0.2976
21645W        W39849  16.002  16.739  11.522 -0.0840  0.2106  0.1918
21646W        W39850  17.849  17.694   4.297  0.1815 -0.2260  0.0922
21647W        W39851  14.553  14.471  15.535 -0.2740 -0.0811 -0.0783
21648W        W39852   6.404  16.337   4.314  0.1091  0.1175  0.0388
21649W        W39853  13.854  15.159  11.536 -0.2079  0.1033  0.3092
21650W        W39854   8.236   8.372   1.872  0.1292 -0.0266  0.0059
21651W        W39855   4.370  15.121   0.657  0.3694  0.1057 -0.0224
21652W        W39856  14.466   1.216  14.816 -0.0396  0.0255 -0.0763
21653W        W39857   3.034   5.894  14.723 -0.0752  0.3261 -0.1442
21654W        W39858  16.800  15.871  12.387  0.1839  0.0407  0.0262
21655W        W39859   3.261   6.290   3.918  0.1234  0.1613 -0.1107
21656W        W39860  15.545   9.176   2.311 -0.0543  0.2813 -0.2270
21657W        W39861   0.505   0.103  10.921 -0.2377  0.1817  0.3230
21658W        W39862   0.732   3.927   3.275 -0.0805  0.2602  0.3546
21659W        W39863   4.525  12.554   1.903 -0.0871 -0.0621  0.0182
21660W        W39864  11.345   4.358   1.884 -0.0587  0.0932  0.2708
21661W        W39865  15.040   7.957   0.862 -0.0988  0.0141  0.0423
21662W        W39866   4.567   3.259   2.018 -0.2477 -0.1156 -0.1592
21663W        W39867   2.183  14.411   3.608  0.0198 -0.0733  0.1554
21664W        W39868  10.808  14.033  11.302  0.3230 -0.0239 -0.5628
21665W        W39869  10.380   6.245  12.929  0.1169 -0.2494  0.2354
21666W        W39870  13.147   0.876   2.692  0.0866  0.1690 -0.0042
21667W        W39871   7.728   8.085   2.853 -0.0984 -0.3096  0.4890
21668W        W39872  10.911  11.289  13.494 -0.1169 -0.4326 -0.1912
21669W        W39873   2.592  10.264   0.138  0.1496  0.0055 -0.2804
21670W        W39874  17.946   2.439  14.972  0.1705  0.2583 -0.0375
21671W        W39875  15.754   4.398   2.394  0.1327 -0.2724 -0.2550
21672W        W39876  14.205   1.569  14.975 -0.0842  0.0308  0.2332
21673W        W39877  17.222  12.222  12.149 -0.1545  0.2178 -0.2037
21674W        W39878  13.928   8.375  13.578 -0.1635  0.2161  0.2850
21675W        W39879  17.886  15.558   0.735 -0.1048 -0.4393  0.2577
21676W        W39880   9.996  14.792  15.611  0.3021 -0.0263 -0.0731
21677W        W39881   1.024   1.598  14.081  0.0649  0.1123  0.1641
21678W        W39882   8.665   8.896  13.652  0.0624 -0.0101 -0.1193
21679W        W39883   0.249   0.561  12.661 -0.0824 -0.1581  0.1235
21680W        W39884  13.019  14.192   1.669 -0.2495  0.1267  0.0836
21681W        W39885  12.679   9.324  12.397 -0.1799  0.1490  0.2676
21682W        W39886  17.310   3.898  13.565 -0.1825  0.1581 -0.0052
21683W        W39887   8.212   1.398  12.342  0.1539  0.1175  0.1566
21684W        W39888  18.082  13.393   2.326 -0.0253 -0.0349 -0.1097
21685W        W39889   1.291   6.750  15.171 -0.1637 -0.0269 -0.4232
21686W        W39890  14.965   4.622  11.115  0.1116 -0.1319  0.0210
21687W        W39891  17.895  13.763  11.611 -0.0564  0.1521 -0.1225
21688W        W39892  13.841  11.897   3.181 -0.1847  0.2937  0.2255
21689W        W39893   9.505   4.615  13.367 -0.0071 -0.1008  0.2119
21690W        W39894   6.337  10.229  13.852 -0.0962 -0.2095 -0.1354
21691W        W39895  10.536   9.316  12.568 -0.1099  0.0071  0.2641
21692W        W39896   1.345   0.010  11.486 -0.0153  0.3135 -0.0953
21693W        W39897  12.911  13.895  13.648 -0.0672 -0.0978 -0.1549
21694W        W39898   6.663   5.462  14.368  0.0761 -0.0765 -0.2478
21695W        W39899  10.333  10.413  12.175  0.0482  0.2073 -0.0909
21696W        W39900  11.917   1.284  13.412 -0.1145  0.1952 -0.1401
21697W        W39901  11.280   9.499   3.804  0.0679  0.0797 -0.0099
21698W        W39902  11.413   6.158  13.619  0.0988 -0.4107  0.0508
21699W        W39903  16.810   5.696   2.780 -0.0894  0.0744 -0.4541
21700W        W39904   5.836   3.811   1.409  0.0537  0.1132 -0.1866
21701W        W39905  15.153  15.118  14.975  0.1382 -0.0211  0.1080
21702W        W39906   9.955  10.668   4.998 -0.1692  0.0582 -0.0156
21703W        W39907  14.621  10.497   3.532  0.0007  0.2095  0.0593
21704W        W39908   2.438  12.549   2.166 -0.1687  0.0011  0.1026
21705W        W39909   8.896  10.900  13.019 -0.1624 -0.0964 -0.0941
21706W        W39910  11.277  15.746  13.766  0.3354 -0.0916  0.0178
21707W        W39911  15.637  17.175   3.699 -0.0940 -0.2011  0.3064
21708W        W39912   8.433   5.190  14.169  0.0894 -0.0577 -0.0220
21709W        W39913  12.999   6.683   0.799 -0.1299  0.3217 -0.0598
21710W        W39914  11.253   2.957  10.723  0.2016 -0.5733  0.0682
21711W        W39915  15.219  12.549  13.256 -0.0698 -0.0608 -0.0091
21712W        W39916  13.144   1.422   0.140  0.1326 -0.1071  0.0064
21713W        W39917  16.941  11.686   0.607 -0.1535  0.1623  0.2772
21714W        W39918   8.975  15.238   1.793  0.4068 -0.0526  0.0084
21715W        W39919   5.653  14.336  12.979 -0.3996 -0.1450 -0.1757
21716W        W39920   9.045   5.722   0.142 -0.0882  0.3462 -0.1937
21717W        W39921   8.505   0.442  14.889  0.0840  0.1024  0.0837
21718W        W39922  11.315  15.916  15.435 -0.0136 -0.1872 -0.0516
21719W        W39923   8.866   8.744  12.250 -0.0944 -0.0158 -0.0981
21720W        W39924   9.789  13.834  11.266  0.0553 -0.0339 -0.0800
21721W        W39925  16.428  13.568  14.319  0.0840  0.3003 -0.3030
21722W        W39926  16.220  15.450  12.212 -0.0365  0.2526 -0.0092
21723W        W39927   6.014   7.043   2.699  0.0532  0.1895 -0.1781
21724W        W39928   8.294  11.511   1.246  0.3577 -0.0650 -0.0455
21725W        W39929   1.624   3.639   2.203 -0.0038  0.5109  0.2288
21726W        W39930  11.405  12.522  11.602 -0.2855  0.1256  0.0733
21727W        W39931  13.148   6.875   4.628 -0.3212 -0.0894 -0.0845
21728W        W39932  13.216  15.575  13.279  0.0424  0.2801  0.0729
21729W        W39933   5.482   5.989  14.227 -0.0738 -0.1377 -0.2614
21730W        W39934  16.696   1.562   3.405  0.0679  0.1021 -0.0092
21731W        W39935   3.585   7.846  11.459 -0.2423 -0.2424  0.0411
21732W        W39936  14.566   5.378  14.738  0.0065  0.1353 -0.1334
21733W        W39937  16.131   9.537   0.978 -0.0926 -0.0325 -0.3386
21734W        W39938   4.450   8.825   4.228 -0.1533 -0.2703  0.1658
21735W        W39939  12.221   6.437   5.882  0.0133  0.3105 -0.0159
21736W        W39940   9.469  13.817  10.884  0.1168 -0.1174  0.3731
21737W        W39941   7.729   8.387   3.343  0.0140  0.0267  0.0470
21738W        W39942   9.417  12.532   5.255 -0.2723  0.1563 -0.1697
21739W        W39943   4.115   0.413  11.360 -0.2129  0.3990  0.2013
21740W        W39944  11.136  16.442  10.561 -0.1621 -0.1086  0.0973
21741W        W39945   0.666  14.900   2.329 -0.1416 -0.2015 -0.3291
21742W        W39946  10.678  18.231   1.738  0.1396  0.0748 -0.0454
21743W        W39947   1.844  11.398  13.743 -0.2962 -0.1193  0.1458
21744W        W39948   5.393   9.636   3.769 -0.0246  0.0640 -0.1191
21745W        W39949  11.050   5.467  14.366 -0.2128  0.2547 -0.2001
21746W        W39950  17.332   7.528   4.542 -0.2655  0.1182 -0.1806
21747W        W39951  18.121  10.243   1.636 -0.2058  0.0629  0.2102
21748W        W39952   4.603   8.016  14.937 -0.3939  0.0839  0.0671
21749W        W39953   8.287  17.872  13.359 -0.1197  0.0663  0.1106
21750W        W39954   5.304  13.827  12.387 -0.2549 -0.0608  0.1199
21751W        W39955   6.412   9.632  12.573  0.1060 -0.0609 -0.1790
21752W        W39956   0.627  16.068  12.022  0.0018 -0.1652  0.0702
21753W        W39957  11.696   0.509  13.240  0.0156  0.0602 -0.1152
21754W        W39958   3.164  14.995  14.835 -0.0235 -0.1660  0.0890
21755W        W39959   0.928   2.659  15.681 -0.0067  0.4824  0.2036
21756W        W39960  10.859  18.210  13.078  0.0613  0.2256  0.0223
21757W        W39961   9.934  15.597  13.256  0.1370 -0.0302  0.0964
21758W        W39962  17.275   0.852  11.777 -0.3289 -0.1262 -0.2593
21759W        W39963  15.130   2.917   2.322  0.0201  0.0095 -0.3027
21760W        W39964   9.625  13.474   0.679  0.0635 -0.0749  0.1843
21761W        W39965   2.005   4.507   4.249 -0.1934 -0.2737  0.1182
21762W        W39966   3.138  17.929   0.834 -0.1082  0.1401  0.0743
21763W        W39967  14.243  12.011  14.323 -0.0990  0.0474 -0.0011
21764W        W39968  17.831  11.090   4.157  0.0497 -0.0521 -0.2973
21765W        W39969   7.914   8.324  14.340 -0.1489 -0.1607 -0.0454
21766W        W39970  15.404  17.957  13.863 -0.0199  0.1658  0.1312
21767W        W39971   2.002  13.489   3.307 -0.0579  0.0749  0.3956
21768W        W39972  10.409   2.954   1.806  0.1375  0.0007 -0.0289
21769W        W39973   1.656  14.201  13.572 -0.2197  0.1137 -0.0100
21770W        W39974   9.207  11.490   0.827 -0.0435  0.1924 -0.1279
21771W        W39975   3.626  14.290   2.242  0.0196 -0.3097 -0.0478
21772W        W39976   0.475  11.710  12.208  0.2216  0.4292 -0.1021
21773W        W39977  10.568   8.146  12.234  0.1659 -0.2261  0.0348
21774W        W39978  10.177   2.568   2.614  0.1320 -0.0798  0.1407
21775W        W39979  12.351  11.731  13.065  0.1378 -0.2822 -0.1271
21776W        W39980   2.529   0.003  10.329 -0.2592 -0.0854  0.2020
21777W        W39981   3.571  10.247  13.713  0.0762  0.0734 -0.0732
21778W        W39982  13.732  13.685  14.111 -0.1567 -0.3255 -0.2914
21779W        W39983  14.300  16.751  11.820  0.0005 -0.1699  0.1671
21780W        W39984  17.535  16.046  13.217 -0.0553 -0.2020  0.0794
21781W        W39985   6.498  15.487   2.397 -0.0466  0.1404  0.1642
21782W        W39986  12.849  17.659   4.482 -0.4276 -0.0000  0.1503
21783W        W39987  16.796  12.359   1.418  0.2239  0.2139 -0.0102
21784W        W39988  15.047   9.281  12.084 -0.1391 -0.0736  0.3379
21785W        W39989  11.040   1.006  11.174 -0.0706 -0.0129  0.2219
21786W        W39990  11.540  11.295  14.112 -0.1281  0.0131 -0.0627
21787W        W39991   4.750  11.823   2.589  0.0600 -0.3025  0.0356
21788W        W39992  12.032   6.780   5.127 -0.1044  0.2770  0.0190
21789W        W39993   5.231   2.151  14.723  0.1723  0.0115  0.0509
21790W        W39994  17.795   2.539  15.439 -0.0206  0.2593  0.1812
21791W        W39995   2.236   9.495   0.100 -0.1637  0.1994 -0.0084
21792W        W39996  12.021  12.562  13.268 -0.1075  0.1136 -0.0451
21793W        W39997  17.018   3.712  13.131  0.0619  0.1862 -0.0086
21794W        W39998   0.142   9.673   4.296 -0.6738  0.1060  0.1504
21795W        W39999  14.852  16.541   3.302 -0.0132 -0.0501 -0.0349
21796W        W40000   2.004  17.444  15.302  0.0766  0.2157  0.1744
21797W        W40001   0.386  10.107  12.610 -0.0688 -0.0215 -0.2778
21798W        W40002   6.213  15.178   2.084 -0.1011 -0.1104 -0.2297
21799W        W40003  13.772  14.202  12.720 -0.3531 -0.1653 -0.2074
21800W        W40004   0.647   8.463  10.731  0.3116 -0.2690 -0.0193
21801W        W40005   5.579  13.421  13.127 -0.0208 -0.1707  0.1029
21802W        W40006   9.600   3.035  13.305  0.2775 -0.3841  0.1810
21803W        W40007   1.022  15.082   2.015  0.0518 -0.2377 -0.1703
21804W        W40008   3.934  15.480  10.833  0.0841 -0.1378 -0.0964
21805W        W40009   1.431   6.831   1.947 -0.0680  0.3672 -0.1025
21806W        W40010   5.976  17.249   4.425 -0.1555 -0.1689 -0.1965
21807W        W40011   0.325   6.691  12.723  0.0323 -0.0961 -0.0939
21808W        W40012  15.961  16.855   4.381 -0.1190 -0.1071  0.2317
21809W        W40013   3.442  12.107   1.577  0.0202  0.1558 -0.1014
21810W        W40014  12.570   0.156   1.593 -0.1574  0.2378  0.3268
21811W        W40015   9.903   0.956   4.293  0.1533 -0.1698 -0.3745
21812W        W40016  12.928  16.424  15.724  0.0778 -0.5114 -0.1264
21813W        W40017   5.124   5.151   4.067 -0.0550 -0.0644  0.1195
21814W        W40018   7.644  10.625   3.856  0.2225 -0.2563  0.0472
21815W        W40019  13.204  10.265  12.411 -0.2531 -0.0490 -0.0543
21816W        W40020   8.435   3.882  11.117  0.2874 -0.1139 -0.2065
21817W        W40021   5.572  15.253   3.937  0.0134 -0.0315 -0.0804
21818W        W40022   4.921   3.050   3.273  0.1074 -0.1971 -0.0591
21819W        W40023   8.174   7.282  10.711  0.2063 -0.0895 -0.1972
21820W        W40024   8.054  11.639  11.714 -0.2278  0.2717 -0.0049
21821W        W40025   2.990   8.651  11.086 -0.1574 -0.1196 -0.1480
21822W        W40026   3.434  11.767   3.144  0.1576  0.1747 -0.0685
21823W        W40027   9.373  18.014  13.469  0.0791 -0.0016 -0.3977
21824W        W40028  15.522  15.765  12.910 -0.0679  0.1255  0.0469
21825W        W40029   4.006   8.619  13.971  0.0201  0.0781  0.0451
21826W        W40030  17.778  17.325   0.912  0.1052  0.1178  0.1354
21827W        W40031  13.033  10.900  13.765 -0.1811  0.1182 -0.2099
21828W        W40032   2.133   9.773   2.031 -0.0931  0.1104 -0.1292
21829W        W40033   5.715   6.731  11.624 -0.0023 -0.0317  0.0363
21830W        W40034   0.449   6.054  15.655  0.1928  0.2649 -0.1382
21831W        W40035   5.814   4.560  14.240  0.0781 -0.2614  0.1339
21832W        W40036   9.749   0.704  11.559 -0.1078 -0.1854  0.1662
21833W        W40037   0.908   7.017  14.985 -0.2603  0.0611 -0.0245
21834W        W40038   8.214  16.503  12.779  0.0654  0.0637  0.0534
21835W        W40039   9.103  10.263   3.002 -0.0226  0.1152 -0.1402
21836W        W40040   2.711  12.163  12.955  0.0949 -0.0644  0.1210
21837W        W40041   9.006  13.564  11.180 -0.2464 -0.0747 -0.2003
21838W        W40042  10.189  15.117  13.826 -0.1504 -0.1346 -0.2284
21839W        W40043   0.436   5.119   4.381 -0.3657 -0.0275 -0.3335
21840W        W40044  11.233   0.564  12.992 -0.0782  0.1272 -0.1901
21841W        W40045   3.540   5.453   3.244  0.2195  0.1638 -0.0804
21842W        W40046  18.245  15.010   2.747  0.0138 -0.0765 -0.0795
21843W        W40047   8.422   0.606  11.761  0.0117 -0.0975 -0.0747
21844W        W40048   6.044   0.764   1.644 -0.2123 -0.1780 -0.1622
21845W        W40049   4.153   8.252  15.160  0.0548 -0.1833  0.0547
21846W        W40050   2.983   0.378  13.792  0.0653  0.2302 -0.0230
21847W        W40051  13.933  18.083  14.913  0.1478 -0.1496 -0.0599
21848W        W40052   5.778  12.231   2.164  0.2036 -0.1717 -0.2140
21849W        W40053  13.455   4.721  12.700 -0.1229  0.0856  0.0339
21850W        W40054   9.316   3.685  15.134  0.0559 -0.0835  0.1272
21851W        W40055  13.136  11.042   0.153  0.3856  0.0424  0.1411
21852W        W40056  15.586   2.111  14.656 -0.0500 -0.1634 -0.0483
21853W        W40057  12.358  15.675  12.323 -0.3531 -0.2090 -0.1442
21854W        W40058  12.156  12.599   4.282 -0.1393  0.0918 -0.2207
21855W        W40059   9.578  18.262  13.866  0.4353 -0.3307 -0.1013
21856W        W40060   3.558   5.014   4.653  0.0379 -0.1665  0.4944
21857W        W40061  15.930   2.103   3.962 -0.1679  0.1200  0.1729
21858W        W40062   1.197  14.352  11.258  0.2693 -0.0881  0.3412
21859W        W40063   2.401   8.664   3.911 -0.1584  0.1872 -0.0849
21860W        W40064   2.047   3.898   5.063 -0.0557 -0.0297 -0.2138
21861W        W40065   5.915   8.000   0.445  0.0272  0.2851 -0.3111
21862W        W40066   2.433   2.256  11.647  0.0706  0.0806 -0.1522
21863W        W40067  16.496   7.120  10.233 -0.1885 -0.2712  0.2134
21864W        W40068   8.430   9.082  12.299 -0.3220  0.0172  0.1262
21865W        W40069  15.858  10.916  13.092 -0.3053  0.1085  0.0749
21866W        W40070   2.120   4.288  11.990  0.0113  0.0220 -0.0744
21867W        W40071   0.382  13.493  14.154 -0.1581  0.0692  0.0429
21868W        W40072   2.784   9.761  11.036  0.0563  0.1629 -0.1893
21869W        W40073  17.496  15.689   4.326 -0.0639  0.1921  0.0398
21870W        W40074  16.182   0.911  14.554 -0.0115  0.1700 -0.2966
21871W        W40075   8.644  13.496   3.450  0.0821  0.0417  0.1370
21872W        W40076   3.176   0.705  11.485 -0.1771  0.0200  0.2421
21873W        W40077  13.428   9.644   1.865 -0.0939 -0.0081  0.0809
21874W        W40078   9.182   4.103  15.438 -0.2121  0.0166 -0.2036
21875W        W40079   0.787  12.201   3.045 -0.0650 -0.2548 -0.3686
21876W        W40080   2.876  12.422   0.830 -0.2135  0.0814 -0.0394
21877W        W40081  18.376   7.526  12.591 -0.1911  0.1355  0.0749
21878W        W40082  10.384   7.934   2.858  0.1281 -0.1708  0.1986
21879W        W40083  12.810   3.781   1.517 -0.1986 -0.1819  0.0620
21880W        W40084   4.719  13.835  15.073  0.1942  0.0302  0.1837
21881W        W40085  11.377  18.255  12.433 -0.1967  0.2984  0.2071
21882W        W40086  13.335  17.569  12.518  0.2990 -0.1665  0.0962
21883W        W40087   5.468   2.616  15.508 -0.0980  0.0094 -0.1643
21884W        W40088  12.257   1.850  13.306  0.3325 -0.0086  0.0416
21885W        W40089   6.992   2.924   3.404 -0.2271 -0.1401 -0.1313
21886W        W40090   7.972   7.848   1.951  0.0504 -0.1901  0.3662
21887W        W40091   1.787  13.932   1.517 -0.0674 -0.1009  0.1036
21888W        W40092  15.090  17.200  12.212  0.1936 -0.2610 -0.3211
21889W        W40093  16.684  17.925   3.202 -0.5155 -0.0568 -0.2251
21890W        W40094  15.755   7.030  13.491 -0.0122 -0.2492 -0.2303
21891W        W40095  15.064   0.903   0.644 -0.1710  0.0096 -0.2315
21892W        W40096   4.872   8.636  14.478 -0.3297  0.0413  0.0653
21893W        W40097   9.654   7.451   3.892 -0.1136 -0.0225  0.0346
21894W        W40098   2.122   2.254   2.163  0.0316 -0.0831 -0.2277
21895W        W40099  13.531  12.094   1.776 -0.3457  0.0433 -0.0906
21896W        W40100  13.379  16.252  14.307 -0.1538  0.0783  0.0330
21897W        W40101  17.601   6.815   4.638 -0.2642 -0.2034  0.1956
21898W        W40102   7.237  15.610  14.025 -0.0945  0.1253  0.3310
21899W        W40103   6.078   1.703   1.485  0.0088  0.0436  0.0242
21900W        W40104   8.039   2.186   4.211  0.0874  0.1841  0.0227
21901W        W40105   2.508  17.979  14.148 -0.3314  0.0411  0.0752
21902W        W40106   7.337  18.206   2.288  0.0686 -0.0108  0.0579
21903W        W40107   8.623   1.054   1.629 -0.1765  0.1287  0.0977
21904W        W40108  12.453   4.871  13.944 -0.0986 -0.1321 -0.0868
21905W        W40109   0.086   0.524  12.216  0.2459 -0.1259 -0.0915
21906W        W40110  10.943   3.954  10.597 -0.0122  0.2184 -0.1516
21907W        W40111   5.782   7.132   9.959 -0.0447 -0.0599  0.0119
21908W        W40112   8.656   8.201   4.092 -0.0601 -0.1546  0.1448
21909W        W40113  17.408   3.330  12.907 -0.0022 -0.0622 -0.0996
21910W        W40114   3.450  17.095  15.120  0.0828  0.2751 -0.0926
21911W        W40115   0.544   4.671  15.606 -0.0434 -0.1465 -0.0857
21912W        W40116  15.316   0.951  15.178  0.3427  0.0536  0.0147
21913W        W40117  10.394  12.267   5.636 -0.5172 -0.0388  0.0339
21914W        W40118  12.910   8.777   5.784 -0.2561 -0.0094 -0.1599
21915W        W40119   0.103  10.212   3.107  0.1026 -0.0732  0.0337
21916W        W40120  12.479   7.315  15.392  0.0892 -0.0117 -0.0199
21917W        W40121   5.908   4.819   3.389 -0.0290  0.1370  0.1396
21918W        W40122   5.815   5.666  10.969  0.3287  0.1236  0.0060
21919W        W40123  18.353   6.773   2.308  0.3151  0.2555  0.1125
21920W        W40124  15.858  11.762  14.082  0.0460 -0.1305  0.0050
21921W        W40125   6.948   9.630  13.288  0.0951  0.0479 -0.0897
21922W        W40126   5.263  12.605   0.870  0.0351  0.1816  0.2494
21923W        W40127  15.486   8.103  11.652  0.0150  0.1535 -0.1564
21924W        W40128  12.238   9.518  12.588  0.2074 -0.1075 -0.0512
21925W        W40129   8.924   7.368   1.201 -0.1969  0.2620  0.1145
21926W        W40130   3.883   5.491  13.463 -0.0366 -0.0432  0.0186
21927W        W40131   2.831   2.493   4.611 -0.0647  0.0189 -0.2990
21928W        W40132  11.834  13.686  12.753 -0.1975 -0.1375  0.3692
21929W        W40133  16.253  14.716  11.989  0.2931  0.0865 -0.0969
21930W        W40134   7.818   7.395  14.555 -0.3002  0.4683 -0.0893
21931W        W40135   4.641   4.262  13.720  0.0523  0.1077  0.1577
21932W        W40136   2.220   5.514   1.329  0.0044  0.2198  0.2402
21933W        W40137   8.848   5.806  10.609 -0.1708 -0.3114 -0.0931
21934W        W40138   2.523   2.846   1.679  0.0977  0.2462  0.1163
21935W        W40139   4.505  13.322   3.999  0.2648  0.0432 -0.2948
21936W        W40140   6.773  14.298  13.785  0.0465  0.0963 -0.0836
21937W        W40141   8.064  11.313   2.329 -0.0056 -0.0730  0.0896
21938W        W40142  18.142   1.068  12.851  0.0460  0.2087  0.2603
21939W        W40143   1.001   5.398  14.787  0.3354 -0.0191 -0.1779
21940W        W40144   0.611   0.121   1.601  0.1018 -0.0071 -0.2122
21941W        W40145   1.177   8.633  14.013  0.0726 -0.2018  0.0371
21942W        W40146  12.797   1.447  11.295 -0.1499  0.2142 -0.1907
21943W        W40147   0.308   7.969   0.716  0.0011  0.2186  0.0239
21944W        W40148  10.269   9.878   1.997  0.1193 -0.0645  0.0322
21945W        W40149  10.243  14.289   4.625 -0.1042 -0.0391  0.1820
21946W        W40150  16.119   5.606  15.024  0.0207 -0.1506 -0.0864
21947W        W40151  12.845   9.892  12.079 -0.0545 -0.0207  0.1283
21948W        W40152  11.541   6.241  11.010 -0.0178 -0.1550  0.1008
21949W        W40153   0.806  10.171  11.267 -0.2442  0.3074  0.0465
21950W        W40154  11.026   8.108  13.923 -0.0618  0.3067 -0.2490
21951W        W40155   7.424  14.061  15.391 -0.2478 -0.0939  0.0938
21952W        W40156   5.926   6.188  11.189  0.0392  0.0535  0.1334
21953W        W40157   2.789   3.301   3.608 -0.1401 -0.0094 -0.0848
21954W        W40158   6.096   4.076  12.102 -0.1721 -0.0318  0.1725
21955W        W40159  11.519  10.225  14.310  0.0343 -0.0329  0.0967
21956W        W40160   3.854  11.097  11.455  0.0859  0.0030  0.1463
21957W        W40161   6.570   6.467   1.447 -0.3251 -0.3895 -0.1201
21958W        W40162   9.645  17.723  14.382 -0.1930 -0.4285  0.1376
21959W        W40163  13.066   4.102  15.099 -0.0934 -0.2651 -0.0084
21960W        W40164   8.357   6.170  15.465 -0.0106  0.4364  0.2473
21961W        W40165   1.330   2.139  12.198  0.0079 -0.1254  0.0782
21962W        W40166  18.253   8.781  14.548 -0.1960 -0.0650 -0.1084
21963W        W40167   2.834   5.155   4.862  0.2123  0.3175 -0.2601
21964W        W40168  17.845   3.987  10.907 -0.1193  0.0453 -0.1107
21965W        W40169   2.814  12.562   4.390 -0.0925  0.1813 -0.0168
21966W        W40170   7.771  13.244  12.115  0.2673  0.2001 -0.4329
21967W        W40171  13.977  11.411  15.515  0.0643  0.2615  0.3694
21968W        W40172   1.856  17.837   3.696  0.1325 -0.1900 -0.0196
21969W        W40173   6.344   1.373   4.215  0.1711  0.6607  0.0700
21970W        W40174  13.966   2.010   4.494  0.4628  0.1123  0.0053
21971W        W40175   2.349   7.030   0.312  0.0437 -0.1264  0.0644
21972W        W40176  12.466  14.285   4.281 -0.1601 -0.1114 -0.2894
21973W        W40177   0.465   2.922  15.555 -0.2553  0.1732 -0.1403
21974W        W40178  11.780  13.649  10.564 -0.1237 -0.0621  0.0306
21975W        W40179   0.466   4.647   1.068  0.3061  0.0413 -0.5454
21976W        W40180  10.219  10.342   4.694  0.0117 -0.1433 -0.0469
21977W        W40181  17.360  12.026  11.381 -0.3324 -0.1909  0.0417
21978W        W40182   6.934   5.311   1.860 -0.3774  0.0923 -0.2915
21979W        W40183   0.355  10.897   1.256  0.0017 -0.1454  0.0982
21980W        W40184   8.483  17.302  11.312 -0.2230 -0.2171 -0.0641
21981W        W40185  15.247   7.919  14.669  0.0240  0.2241  0.0284
21982W        W40186  15.828  18.230  14.052 -0.0524  0.1719 -0.3014
21983W        W40187   0.772   1.023  11.937  0.0607  0.0195 -0.1798
21984W        W40188  15.435  11.207  11.344  0.0007 -0.2085  0.0589
21985W        W40189   8.315   3.973   1.613  0.0127 -0.0827  0.0519
21986W        W40190  13.913   1.461  12.659  0.1438 -0.1918 -0.0565
21987W        W40191  18.228   0.579  11.314 -0.0372 -0.1785 -0.0432
21988W        W40192   5.844  11.696   3.428  0.0525 -0.0407 -0.0145
21989W        W40193  17.719   3.864  11.380 -0.0838 -0.0926  0.0455
21990W        W40194   1.404   5.154  11.597  0.1271  0.0851 -0.1467
21991W        W40195  11.617   5.760  15.520  0.0944  0.1143 -0.2942
21992W        W40196   9.434   7.640   2.045 -0.0320  0.0686 -0.1588
21993W        W40197  11.151   7.001   3.675 -0.0680  0.1697 -0.2559
21994W        W40198   1.896  18.050   0.463 -0.3434 -0.1348  0.0925
21995W        W40199   3.432   7.533  11.886  0.1589  0.1553 -0.0555
21996W        W40200   8.888  11.223  11.370  0.1200  0.2399 -0.2336
21997W        W40201   7.071   3.044   4.827 -0.3830  0.2599 -0.2905
21998W        W40202  10.077  15.157   0.864  0.0343  0.0855  0.0530
21999W        W40203   2.612   9.114  12.474 -0.2513  0.2761  0.1642
22000W        W40204  11.671  13.357  14.381  0.5418 -0.0671  0.0988
22001W        W40205   1.265  11.920  15.067 -0.0696 -0.0473  0.0248
22002W        W40206   1.404   2.822   0.011  0.0839  0.1737 -0.0932
22003W        W40207  11.449  14.400  15.435  0.1301 -0.4309 -0.0998
22004W        W40208   7.372  14.058  13.225 -0.1236  0.1862 -0.0839
22005W        W40209  15.335   5.465   3.351 -0.3945 -0.1127  0.0994
22006W        W40210   4.544   5.719   4.625  0.0532  0.1132  0.0337
22007W        W40211   4.392  16.596  11.182 -0.1143 -0.2999  0.3074
22008W        W40212  15.149  17.954   4.838 -0.4506 -0.3657 -0.2700
22009W        W40213  17.387   1.758  10.989 -0.2931  0.2448 -0.0486
22010W        W40214   2.072   4.761   2.260 -0.1241 -0.1135 -0.0293
22011W        W40215  12.305   5.553   0.801 -0.0742  0.2572 -0.0214
22012W        W40216  14.970   7.632  11.248  0.3096 -0.0299  0.0182
22013W        W40217   1.538  13.674   5.289  0.3220 -0.1273 -0.1584
22014W        W40218   4.316  10.407  10.890  0.1627  0.3245 -0.1732
22015W        W40219  14.051   9.327   2.491 -0.0224 -0.1968  0.3165
22016W        W40220   9.304   9.580   0.423 -0.0785  0.1541 -0.1934
22017W        W40221   1.940  10.787   2.600 -0.4052 -0.4311  0.0140
22018W        W40222  13.740   4.017  13.944 -0.2066  0.1084 -0.1876
22019W        W40223   3.348   2.739   0.592  0.0709  0.1566 -0.0045
22020W        W40224  14.358   8.649   3.973 -0.1621 -0.1902  0.2497
22021W        W40225  14.686  12.933  12.647 -0.2892  0.2335  0.1160
22022W        W40226  14.153  14.151   4.888 -0.0302  0.0022  0.1179
22023W        W40227   2.968   4.807  14.332 -0.0833  0.1129  0.3085
22024W        W40228   7.214  15.126   1.128  0.1626  0.1386  0.0335
22025W        W40229   3.688  14.802   3.479 -0.0221 -0.1819  0.0900
22026W        W40230  18.091  17.376  12.424  0.0153 -0.0908  0.1647
22027W        W40231   8.732   5.878   3.971 -0.2303  0.0053  0.3312
22028W        W40232   9.986   4.645   1.371  0.1153 -0.2812 -0.1597
22029W        W40233  17.077   5.126  14.949 -0.1887  0.3993  0.0523
22030W        W40234  15.571   6.567  12.769 -0.2006  0.0524 -0.2069
22031W        W40235   5.564  10.997   5.326  0.0844  0.0205 -0.2502
22032W        W40236   8.844  11.835   3.148 -0.4953  0.2531 -0.2122
22033W        W40237   5.723   9.088  15.445  0.0584  0.0149  0.3391
22034W        W40238   2.075  16.778   2.765  0.0202  0.0054  0.2370
22035W        W40239   4.771   1.003   1.206 -0.1232  0.0366 -0.2749
22036W        W40240  16.368   0.106  14.033 -0.0054 -0.0077  0.1884
22037W        W40241   1.712  15.099   5.545 -0.3086  0.1222 -0.1434
22038W        W40242  16.663  15.133  15.666 -0.0239  0.0349 -0.1759
22039W        W40243  13.819   6.160  14.073 -0.0328 -0.0076 -0.4487
22040W        W40244  14.563  18.281   3.758 -0.3296  0.0622 -0.3890
22041W        W40245   3.733   2.249   1.152  0.0958  0.2433 -0.3124
22042W        W40246   5.918  14.718   3.347  0.2551 -0.0298  0.0007
22043W        W40247  14.085  14.760  13.530  0.0650  0.0326  0.1411
22044W        W40248   5.063  10.890  12.353 -0.1992 -0.1696  0.0035
22045W        W40249   5.237   5.054  12.727  0.0027 -0.0353  0.0769
22046W        W40250   1.150  15.370  11.421 -0.0905  0.1320  0.1878
22047W        W40251   1.664  12.542   1.683  0.2276  0.2887  0.1241
22048W        W40252  14.749  10.495   4.898 -0.1977  0.0623  0.1918
22049W        W40253   7.565  11.378  11.204  0.1230  0.1644  0.0224
22050W        W40254   2.824   0.891   3.686 -0.1303 -0.0496  0.3582
22051W        W40255  13.247  16.095   4.198 -0.1726 -0.3756  0.1256
22052W        W40256   3.266  15.036   0.624 -0.1907  0.1084  0.5252
22053W        W40257   4.977   9.328   2.957 -0.1321  0.1003 -0.2280
22054W        W40258  17.861  18.150   1.504  0.2079  0.0870 -0.5042
22055W        W40259  11.511   8.993  12.064 -0.0066  0.5342  0.2858
22056W        W40260   1.686   2.992   3.040  0.2449  0.0596  0.0350
22057W        W40261  16.903   7.164   2.288 -0.1856 -0.1516  0.1236
22058W        W40262   1.668   0.451   0.789  0.0040 -0.1097  0.0672
22059W        W40263  14.250   2.790   3.080 -0.0066 -0.2754  0.0412
22060W        W40264   1.758   1.390   1.245  0.2115 -0.0794  0.0343
22061W        W40265  14.141   0.027   2.110 -0.4389 -0.2145 -0.2504
22062W        W40266   8.798   6.019  13.975 -0.0490  0.1655  0.1310
22063W        W40267   0.558  14.559  14.911  0.2671 -0.1367 -0.3669
22064W        W40268   2.917   8.479  14.732  0.1065 -0.2255  0.0456
22065W        W40269   3.967  14.917   1.100 -0.1236 -0.0958 -0.1529
22066W        W40270   3.794   3.352  13.873  0.0147  0.2207 -0.2778
22067W        W40271   6.087   3.160   1.396  0.2124  0.0420 -0.1468
22068W        W40272   1.452   8.153   3.482  0.0740 -0.2686 -0.2014
22069W        W40273  16.466   0.493   0.241 -0.1838  0.2087  0.0814
22070W        W40274   9.809   3.506   0.548  0.1177 -0.0776 -0.0821
22071W        W40275  13.544   5.804  13.270  0.0974 -0.2805  0.0110
22072W        W40276  10.232  17.030  14.183  0.0462 -0.0380 -0.0864
22073W        W40277  12.201   1.366   3.395  0.2341 -0.0297 -0.1724
22074W        W40278   8.474  16.223  14.831  0.0175 -0.3470  0.1660
22075W        W40279   2.723  14.061   1.837  0.1586 -0.0482  0.5625
22076W        W40280   6.554  16.467   1.060  0.1490 -0.0351  0.2691
22077W        W40281   2.760  13.411  14.963 -0.0920 -0.0959 -0.0796
22078W        W40282  13.735  15.803   1.465  0.0468 -0.5435 -0.0117
22079W        W40283  17.696  14.125   4.697 -0.0810 -0.0843  0.0205
22080W        W40284   9.487  10.719  15.290  0.0427 -0.1216  0.2648
22081W        W40285   9.827   7.723  14.567 -0.1602 -0.0344  0.1209
22082W        W40286  10.250  10.966   5.279  0.2404 -0.4299 -0.1699
22083W        W40287  12.824  10.061   2.992  0.0776  0.0069 -0.0200
22084W        W40288  14.549   5.011  12.841  0.0194  0.3346  0.1742
22085W        W40289   6.455   5.066   1.840 -0.2168 -0.3011  0.0583
22086W        W40290  14.848  16.922  13.177  0.1202 -0.0095  0.1219
22087W        W40291  13.674  14.226   4.956  0.0954 -0.0533 -0.1670
22088W        W40292   4.718  13.398  13.655 -0.0392 -0.2472  0.1833
22089W        W40293   5.844  12.985   3.960 -0.2573 -0.2095  0.0674
22090W        W40294   8.287  18.197   2.918 -0.0477 -0.0133 -0.0198
22091W        W40295   0.615   8.541  15.187 -0.0956 -0.1134  0.1381
22092W        W40296  12.210  12.498  11.777  0.1299 -0.0774 -0.0118
22093W        W40297   9.340   0.671   3.288  0.1077 -0.3400 -0.1369
22094W        W40298  16.432  12.414  13.838  0.0348  0.3134  0.1683
22095W        W40299  11.738   6.393   3.865  0.0512  0.0193 -0.1764
22096W        W40300   6.048  13.736  12.756  0.0905 -0.2953  0.0166
22097W        W40301  14.446  13.596  14.430 -0.1443 -0.0200  0.0305
22098W        W40302   6.024   3.402   3.864  0.3143 -0.1263 -0.0299
22099W        W40303   5.364  11.803   0.490  0.1706 -0.0040  0.1006
22100W        W40304   4.891  13.681  11.802 -0.3108  0.0567 -0.1269
22101W        W40305  17.634  12.052  11.845  0.4405 -0.1962 -0.1423
22102W        W40306   8.466  18.273  15.057  0.1536  0.1204 -0.1582
22103W        W40307  18.138   6.372   0.393 -0.0028 -0.0300 -0.0924
22104W        W40308  12.401   2.279   2.586  0.0515  0.1455  0.1931
22105W        W40309   6.865   2.329  11.771 -0.2050 -0.0369 -0.1995
22106W        W40310  15.806   6.137  14.832 -0.2722 -0.0252 -0.0871
22107W        W40311   7.473   0.241  15.232  0.0539 -0.0478  0.0059
22108W        W40312  12.451  12.017   2.469  0.2266  0.2691 -0.2438
22109W        W40313   6.639   7.819   4.255  0.1369  0.0127  0.2000
22110W        W40314   5.792   3.417   1.768  0.0162 -0.1530 -0.0836
22111W        W40315   4.635  16.137  13.053  0.0441 -0.0421  0.0656
22112W        W40316   8.226   6.336  13.616 -0.1410 -0.1538 -0.3078
22113W        W40317  17.858   9.027  13.343  0.1016  0.0798 -0.0172
22114W        W40318  15.355  12.367  12.325  0.0294  0.1385  0.3380
22115W        W40319   8.650   4.852  12.047  0.1077 -0.0851 -0.0266
22116W        W40320   8.296   3.461  13.836 -0.2830  0.0350  0.1439
22117W        W40321   7.624  14.895  15.565 -0.0224 -0.0527 -0.1745
22118W        W40322  11.222  11.480   0.696  0.2046  0.1448  0.1282
22119W        W40323   9.051   4.417   2.737 -0.0566 -0.1110 -0.0042
22120W        W40324  12.196  12.943   0.822  0.3661 -0.2360  0.0365
22121W        W40325  11.846   9.553   1.166 -0.3096 -0.0137 -0.3461
22122W        W40326  17.782  15.129   0.993 -0.1077  0.3690 -0.1086
22123W        W40327   7.412  10.717   2.303  0.0348  0.2524 -0.2846
22124W        W40328   8.754   1.028  11.102  0.1468 -0.0777  0.1634
22125W        W40329  12.675   0.790   3.389  0.0858  0.2461  0.2435
22126W        W40330   4.907  15.622   4.269  0.0283  0.0656  0.1077
22127W        W40331   7.841  10.840   5.067  0.1673  0.0361 -0.0970
22128W        W40332  16.324  16.570   1.382 -0.1795  0.1444 -0.2378
22129W        W40333  14.985  13.738  15.211  0.0191  0.2071 -0.2747
22130W        W40334   9.932  11.125   0.804  0.3833  0.0803  0.3007
22131W        W40335   6.932  11.322   4.715  0.1217  0.0348 -0.1829
22132W        W40336   1.304   9.839  13.453  0.0531  0.2839  0.2047
22133W        W40337   2.958   5.775  12.629 -0.1671  0.1362  0.2113
22134W        W40338  13.444  15.376  14.077  0.2216  0.4155 -0.1722
22135W        W40339   7.244  14.123   4.298 -0.0110 -0.0220  0.2884
22136W        W40340  11.422   7.565   1.489  0.2538  0.2636  0.1609
22137W        W40341  15.121   5.067   3.492 -0.1808 -0.0398  0.0520
22138W        W40342  14.168   0.652  14.437 -0.1614 -0.3596 -0.5239
22139W        W40343   9.163   1.760   9.507  0.1437  0.2577  0.0542
22140W        W40344  17.895   4.216  12.804 -0.1791 -0.0156 -0.1999
22141W        W40345   7.407   1.621   2.161 -0.0577  0.0092 -0.0933
22142W        W40346  17.918  15.590   4.016  0.2158  0.0096  0.2379
22143W        W40347   4.773   0.814  14.487  0.1273  0.1614 -0.0293
22144W        W40348  17.401   6.312  11.318 -0.0013  0.0039  0.0650
22145W        W40349  16.039  16.640  15.183  0.1224  0.1744 -0.2009
22146W        W40350  13.371  16.553   4.009  0.1785 -0.1858  0.0724
22147W        W40351  18.379   0.240  13.143 -0.2577  0.0361 -0.2498
22148W        W40352   6.589   6.174   4.756  0.2591 -0.0781 -0.1231
22149W        W40353   5.380   9.247   4.119 -0.2932 -0.1058  0.2913
22150W        W40354   6.272  12.050  13.511 -0.2083  0.1013  0.0954
22151W        W40355  11.475   2.428   2.973  0.1815  0.3125 -0.1315
22152W        W40356  10.001  14.331  12.082 -0.1419  0.0615  0.1335
22153W        W40357   3.892   6.406  13.399  0.2364 -0.0769  0.2038
22154W        W40358   5.494   9.187  14.875  0.0180  0.2213  0.0929
22155W        W40359  17.509  18.125  12.062  0.0358  0.1320  0.0590
22156W        W40360   0.938  16.717   3.157 -0.3232 -0.1957 -0.4367
22157W        W40361  17.681   7.562   5.245  0.1890 -0.1031 -0.1959
22158W        W40362   4.706  13.914  14.011  0.1243 -0.1293  0.0243
22159W        W40363  15.208   2.079  12.032  0.1559  0.2115  0.0861
22160W        W40364   6.755   6.046   4.276 -0.0640  0.0852 -0.0528
22161W        W40365   5.631   1.097   1.824  0.0310 -0.1425  0.2922
22162W        W40366   8.984  13.717  13.256 -0.1240 -0.1092  0.1902
22163W        W40367   3.181   4.615   0.461  0.1513  0.0734 -0.0559
22164W        W40368   5.518  17.962   0.366 -0.1581 -0.5263  0.4872
22165W        W40369  10.674   0.173  15.449 -0.0523  0.1853  0.1660
22166W        W40370   0.907  18.250   3.267  0.1933  0.0679 -0.1229
22167W        W40371   7.660  11.413   2.047  0.1474 -0.3061  0.0010
22168W        W40372   0.704  10.518  13.560 -0.0540  0.2344 -0.0892
22169W        W40373  12.781  15.949   0.234  0.0877  0.1707 -0.2981
22170W        W40374   3.100  17.250  14.797 -0.1411  0.3966  0.0995
22171W        W40375   4.933  10.536  14.239  0.3058 -0.3304  0.1338
22172W        W40376   9.567   0.262   4.555 -0.2005  0.3310  0.2011
22173W        W40377  13.750  17.378  12.258 -0.0809  0.0227  0.1552
22174W        W40378   4.112  17.373   3.712 -0.3555  0.0615  0.2342
22175W        W40379   7.812  10.548  14.991  0.2883  0.0342  0.0142
22176W        W40380   0.811  17.335   0.987  0.0209 -0.0813  0.2442
22177W        W40381   4.955   5.939  14.147  0.0804 -0.0432 -0.1133
22178W        W40382   8.336  15.942   2.226 -0.2261  0.0446 -0.3095
22179W        W40383   5.586   3.484  11.132 -0.0343  0.1653 -0.0658
22180W        W40384   7.427  10.871  14.771 -0.1656 -0.1522  0.0940
22181W        W40385  12.752  11.686   3.186 -0.0715 -0.0909  0.1339
22182W        W40386   9.667  18.268   0.511 -0.1207 -0.1160  0.3208
22183W        W40387  16.041  10.916   2.036 -0.0887 -0.0806  0.1855
22184W        W40388  16.339  11.879  14.868 -0.0659  0.0274 -0.2307
22185W        W40389   5.924  18.101   5.556 -0.2410  0.0491 -0.1504
22186W        W40390  13.747   6.987   0.250 -0.1683  0.3317 -0.2135
22187W        W40391   3.157   9.323  11.800  0.2128 -0.1685  0.1204
22188W        W40392   7.586  17.630  10.274  0.4105 -0.0332  0.0357
22189W        W40393   9.649  16.780   0.451  0.1079 -0.1978 -0.0539
22190W        W40394  15.950   5.503  11.028  0.1208 -0.1112 -0.0505
22191W        W40395   3.576  11.608  13.949 -0.1945  0.4280  0.0101
22192W        W40396   2.972  12.361  12.342 -0.1592 -0.0395 -0.5619
22193W        W40397  14.059   9.481  12.465 -0.3499  0.0637  0.2320
22194W        W40398   0.098  11.186   5.551 -0.0664  0.3531  0.0635
22195W        W40399  14.676   8.209  14.406  0.0210  0.0707 -0.0778
22196W        W40400  13.243  16.202  15.403 -0.0961 -0.1304  0.2113
22197W        W40401   2.336   1.300  12.872 -0.3687  0.3478  0.0366
22198W        W40402  11.893  11.193  12.277 -0.0770  0.2063 -0.1409
22199W        W40403  14.442  17.403   1.364  0.0115  0.0554 -0.0553
22200W        W40404   7.164  15.984  11.891 -0.0301  0.3939  0.0547
22201W        W40405  11.155  10.060  14.718 -0.0251 -0.1731 -0.0564
22202W        W40406   1.709  11.297  12.824  0.2448 -0.2099 -0.1146
22203W        W40407  16.533  12.300  11.481 -0.1335 -0.1105  0.1184
22204W        W40408   5.899  16.185   1.615  0.2203 -0.0816  0.0527
22205W        W40409  18.342   4.364  15.676  0.1222  0.1591  0.2617
22206W        W40410   3.959   1.787  12.252 -0.1263  0.1263  0.1487
22207W        W40411  13.364  11.143  11.912 -0.0411 -0.0861 -0.1119
22208W        W40412   2.380   0.103  11.240  0.0194  0.2406  0.0892
22209W        W40413   4.736   5.648   1.339 -0.0667 -0.1526  0.0208
22210W        W40414   9.935   9.709  13.324 -0.3274 -0.0084 -0.0262
22211W        W40415  10.656   6.220   1.956 -0.3667 -0.0382  0.1510
22212W        W40416  18.101  17.487  15.234  0.0529  0.1037 -0.2881
22213W        W40417  10.678   8.643   2.412  0.1593  0.3148  0.1054
22214W        W40418   0.916   4.965  11.823 -0.1997  0.0975  0.1003
22215W        W40419  17.988   2.773  11.836 -0.0649 -0.3043  0.2142
22216W        W40420  10.546  11.685  12.759 -0.5043 -0.2201  0.1190
22217W        W40421   2.996  13.640   3.802  0.1151 -0.0372  0.3300
22218W        W40422   9.976  11.765   4.863 -0.3659  0.3873 -0.2674
22219W        W40423  10.850  16.808   2.477 -0.0472  0.0337 -0.0710
22220W        W40424   0.747  16.198  12.506 -0.2228  0.0141  0.2474
22221W        W40425  15.883  12.228   1.393 -0.2068 -0.2333  0.0682
22222W        W40426  16.281  10.675  13.297  0.1328 -0.0611  0.0636
22223W        W40427   2.139   7.998  14.553 -0.1596 -0.1653  0.0634
22224W        W40428   5.484  15.219  12.689 -0.1140  0.0406  0.1543
22225W        W40429  16.821   4.002   5.587 -0.1282 -0.1808 -0.3039
22226W        W40430   9.990   0.507  11.067  0.0960 -0.2179 -0.3171
22227W        W40431  11.052  15.113   3.677 -0.1872  0.1260 -0.0919
22228W        W40432   0.389   9.967   3.993 -0.3677 -0.0049 -0.0518
22229W        W40433  18.134  13.529   1.802 -0.2167 -0.0439  0.1049
22230W        W40434   3.632   4.844  12.329 -0.0338  0.1216  0.1103
22231W        W40435   4.553   2.053  14.721 -0.1886 -0.3175  0.2300
22232W        W40436  16.612  14.078   1.439 -0.0163  0.4849 -0.1103
22233W        W40437   4.944   8.764  13.682  0.0180  0.1782 -0.0952
22234W        W40438  10.081   0.593   2.072  0.0774 -0.2165 -0.1263
22235W        W40439  12.341   0.742   2.661 -0.1926  0.2523  0.1149
22236W        W40440   4.818  12.943  15.154 -0.1472  0.1715  0.0009
22237W        W40441  11.193  15.040   1.422  0.0189  0.1772 -0.0321
22238W        W40442  12.937   8.423   1.837 -0.0363  0.0424 -0.0150
22239W        W40443  17.543  16.197  15.031 -0.0547 -0.0936 -0.0463
22240W        W40444   1.682   0.001   1.624 -0.0265  0.0460  0.1737
22241W        W40445  13.973  12.551  13.605 -0.1569 -0.0705  0.2655
22242W        W40446   8.687   4.256   1.746 -0.1452 -0.0522 -0.2915
22243W        W40447   3.069   4.517  15.629 -0.0430  0.2160  0.3280
22244W        W40448   9.107  13.703   3.419  0.0995  0.3621 -0.3445
22245W        W40449  16.909  17.597  12.849  0.0922 -0.0260  0.3018
22246W        W40450  10.866  18.257  14.135 -0.0432  0.1961  0.1040
22247W        W40451  17.272   0.746   0.095 -0.2132 -0.1359 -0.0370
22248W        W40452  10.365   0.893  13.784 -0.1602  0.0578 -0.0717
22249W        W40453  10.213   8.683  13.785 -0.0320 -0.0799  0.0957
22250W        W40454   5.246   1.488  10.887  0.0655 -0.1354 -0.1929
22251W        W40455   0.601   9.893  13.089  0.0252  0.0554 -0.4133
22252W        W40456  17.997   0.726   5.603  0.1377 -0.1134 -0.1643
22253W        W40457   5.602   6.612   1.457 -0.0408 -0.1887  0.4266
22254W        W40458  17.015   6.804   1.552  0.3636 -0.2877  0.2652
22255W        W40459  11.158   8.939   4.870 -0.5071 -0.0013  0.4580
22256W        W40460  18.128   1.926   3.454 -0.1952 -0.2721  0.2189
22257W        W40461   9.355  10.734   2.891  0.0245 -0.0503 -0.0806
22258W        W40462   6.415  17.214   0.986  0.1499 -0.4052  0.1234
22259W        W40463   7.673   5.643   3.931  0.0613  0.1247 -0.3938
22260W        W40464  14.584   5.543   0.685 -0.0780  0.1258 -0.0854
22261W        W40465  14.945   1.601   1.655  0.3698  0.1461 -0.1690
22262W        W40466   5.720   7.158  11.276  0.3230  0.1158  0.2464
22263W        W40467   6.503   7.029  12.935 -0.1864  0.1100 -0.1009
22264W        W40468  17.402  10.984   4.896 -0.0641  0.0472 -0.0307
22265W        W40469   3.747  17.153   0.123 -0.0701  0.2238 -0.0100
22266W        W40470  14.916   3.512  14.593  0.0322 -0.2124  0.0149
22267W        W40471   0.323   3.403   1.472 -0.2156 -0.2012 -0.0943
22268W        W40472  14.067  17.558  14.289  0.0908 -0.2456 -0.0372
22269W        W40473  12.161  18.308   4.217 -0.1485 -0.1828 -0.3702
22270W        W40474  15.573   8.913   4.007  0.4815  0.0718 -0.0369
22271W        W40475   7.500   6.098  11.247 -0.0351  0.1934  0.0589
22272W        W40476   5.998   1.926   0.359 -0.0999 -0.1366  0.0998
22273W        W40477  12.888   7.204   3.636 -0.1876 -0.1039  0.0375
22274W        W40478   7.779   9.670  12.743 -0.0481  0.1819 -0.0152
22275W        W40479  11.192  15.083  11.113 -0.0210  0.1532 -0.0469
22276W        W40480   4.011   5.936   4.495  0.1886 -0.0807 -0.1780
22277W        W40481   0.071   1.359  15.624  0.1069 -0.2388  0.0693
22278W        W40482   5.681  12.930  14.509 -0.2847 -0.0938  0.0750
22279W        W40483   5.041   2.917   0.063  0.2182  0.1795 -0.1442
22280W        W40484  15.758  15.033  12.137 -0.2291 -0.2249 -0.0009
22281W        W40485  14.155   5.921   3.215 -0.0292  0.0502  0.0017
22282W        W40486  13.975  11.225   3.835 -0.0597  0.0761 -0.1423
22283W        W40487  17.110   6.313  14.220  0.3036  0.1079  0.2460
22284W        W40488   4.134  15.380  13.567  0.2160  0.0666  0.2187
22285W        W40489  12.844  12.337   3.793  0.2653 -0.0343  0.2380
22286W        W40490   0.431  12.729   0.590 -0.0633 -0.1352 -0.0141
22287W        W40491   5.452   8.258  14.975  0.0205  0.1337  0.1304
22288W        W40492  16.425   2.553  14.765 -0.0777  0.1110 -0.0493
22289W        W40493   6.668   6.747  14.997  0.2513  0.1981  0.3974
22290W        W40494  10.303   2.719  14.097  0.0659 -0.1973 -0.2005
22291W        W40495   5.345   2.400  11.165  0.2115 -0.1848 -0.1098
22292W        W40496   8.797  13.367   3.936  0.0418  0.0477 -0.1039
22293W        W40497   0.321  11.474   4.206 -0.0547  0.0651 -0.4885
22294W        W40498  11.116   7.520   3.257  0.2474  0.1621  0.0429
22295W        W40499  16.968   3.211  14.788 -0.0832 -0.0185 -0.0117
22296W        W40500  15.865  14.889   4.013  0.0450 -0.1353 -0.0705
22297W        W40501  14.301   9.147  15.324  0.0060  0.0941  0.1872
22298W        W40502  15.240  13.919  12.221 -0.2811 -0.2863  0.0103
22299W        W40503   1.093  16.268   0.542  0.2505 -0.1832  0.0022
22300W        W40504  12.837   5.786  13.943 -0.2362  0.4725 -0.2175
22301W        W40505  14.479   3.762  12.079  0.0966  0.0031 -0.1387
22302W        W40506   8.015  14.579  15.492  0.2100 -0.0968  0.3294
22303W        W40507  16.838  10.581  12.980  0.1484  0.0986 -0.1169
22304W        W40508   2.073   2.744  15.163  0.0395 -0.3598  0.1742
22305W        W40509   8.167   3.346   4.096 -0.1850 -0.1349  0.2108
22306W        W40510  13.143  17.790   3.195  0.1203  0.2315 -0.3219
22307W        W40511  17.274   2.749   2.970  0.2533  0.0937 -0.1160
22308W        W40512   7.533   5.082   0.093 -0.0541 -0.1433 -0.1660
22309W        W40513  12.315  16.837   1.840 -0.0667 -0.0752  0.1104
22310W        W40514  14.572  17.109  12.137 -0.2289  0.1958 -0.0118
22311W        W40515   2.430  17.176   4.262  0.0582 -0.1024 -0.2138
22312W        W40516  18.112  18.241  13.333  0.1112  0.1775 -0.0450
22313W        W40517   4.597  11.570   1.563  0.0966  0.3287  0.0206
22314W        W40518   3.080   3.256   2.670  0.1267 -0.3743 -0.0369
22315W        W40519  11.314   7.254   1.112  0.2188  0.0821  0.1036
22316W        W40520  18.355  11.079   4.385 -0.2365  0.0233  0.0048
22317W        W40521  10.405   5.230   0.848 -0.0653 -0.1870 -0.1621
22318W        W40522   2.900  15.534   3.551  0.2122  0.2375 -0.0283
22319W        W40523  13.801  10.991   2.888 -0.1847 -0.3116  0.0702
22320W        W40524  17.343   4.711  15.573 -0.1426  0.2140 -0.1012
22321W        W40525  15.643  15.814   2.545 -0.2096 -0.1216  0.0019
22322W        W40526   4.639   6.908   4.682 -0.2689  0.2546  0.2486
22323W        W40527  11.275   4.242  10.852 -0.6202 -0.0881 -0.0884
22324W        W40528  13.186  18.015  12.780  0.1913 -0.1448  0.2234
22325W        W40529   4.760  15.603   3.790 -0.3056 -0.1158 -0.0474
22326W        W40530  18.299   3.788  12.590 -0.0798  0.0352 -0.0025
22327W        W40531   0.504  14.392   0.959  0.1420  0.0993 -0.1312
22328W        W40532   8.475  12.631  12.874 -0.0954 -0.0982 -0.3158
22329W        W40533  16.961   8.973   4.227  0.1727 -0.2275  0.2625
22330W        W40534  15.812   0.709  12.393 -0.2628 -0.2290  0.0851
22331W        W40535   1.731   9.968  13.280 -0.0391  0.0582 -0.3245
22332W        W40536  16.776  12.707   4.703  0.3244  0.0922  0.1439
22333W        W40537   8.219   9.869   0.159  0.0046  0.4152  0.3554
22334W        W40538   6.341   4.335   4.165  0.3255  0.5393  0.0475
22335W        W40539  15.329   9.458   0.587 -0.2439  0.1970  0.2826
22336W        W40540   4.213  13.462   3.047 -0.0626  0.0215  0.1506
22337W        W40541  17.898   2.802   1.897 -0.3568  0.1624  0.3728
22338W        W40542   8.097   4.936  12.291  0.1006  0.0112 -0.0844
22339W        W40543   8.982   5.176  12.276  0.1341  0.1331 -0.0942
22340W        W40544   3.480   0.913   2.880  0.1194 -0.0536  0.0884
22341W        W40545  12.864  12.127  12.463  0.0487 -0.0908 -0.2651
22342W        W40546   2.661   6.163   0.116 -0.1062  0.2250 -0.0195
22343W        W40547  16.028   7.276  13.803  0.0478  0.1554  0.1657
22344W        W40548   4.323  13.605  10.984 -0.3061  0.1396 -0.2100
22345W        W40549   4.669   5.540  12.695 -0.1756  0.1320  0.3644
22346W        W40550   4.266   4.851   3.527 -0.1066  0.0450  0.0902
22347W        W40551  15.250  17.163  13.040 -0.1929 -0.1692 -0.0157
22348W        W40552   4.838   7.909   1.122 -0.3745  0.1482 -0.0382
22349W        W40553  14.634   6.869  14.863  0.2165  0.0992 -0.0885
22350W        W40554  11.209  11.971  11.690 -0.0689  0.3661  0.1920
22351W        W40555  11.570  15.374  13.789 -0.1036 -0.0681 -0.3810
22352W        W40556  18.206   3.705  11.306  0.3811  0.0025  0.2919
22353W        W40557   9.458   5.855   2.375  0.0115  0.2617  0.2597
22354W        W40558   3.662   0.174  12.700 -0.0536 -0.3795 -0.0154
22355W        W40559  16.748  17.468   3.363 -0.1268 -0.2055 -0.0171
22356W        W40560  10.503  16.705   4.483  0.1145  0.1325 -0.0582
22357W        W40561  18.095  18.102   0.799  0.3437 -0.0035 -0.1261
22358W        W40562   4.883  11.305   2.562 -0.3600 -0.2561  0.2995
22359W        W40563  11.702  17.265   1.271  0.0487 -0.0013 -0.2261
22360W        W40564   1.203   0.176  12.343  0.0742 -0.1953  0.1296
22361W        W40565  12.663  18.342  11.184 -0.0672  0.2937 -0.5949
22362W        W40566   7.423   3.887   4.046 -0.2288 -0.0486  0.1889
22363W        W40567   2.102  10.991  12.648  0.1708 -0.0871 -0.0238
22364W        W40568  17.755   8.760  11.426 -0.1463  0.2639 -0.0378
22365W        W40569   4.136   1.689   3.164 -0.0753 -0.1328  0.5889
22366W        W40570   3.344  16.356   0.667  0.0783  0.0301  0.5820
22367W        W40571   7.406   7.144   0.565  0.3331 -0.2703 -0.1923
22368W        W40572   9.477   6.181   0.435 -0.1055  0.0247  0.0504
22369W        W40573  11.534   0.993   1.573  0.1875  0.0148  0.0185
22370W        W40574  13.535   9.047   4.728 -0.1206 -0.0713  0.0334
22371W        W40575   7.215   3.640   3.164  0.4453  0.0929  0.0758
22372W        W40576   2.257   1.458  15.107 -0.4655 -0.2750 -0.0987
22373W        W40577   7.691  13.620   1.655  0.0157 -0.1047 -0.0369
22374W        W40578  13.511   0.900  11.516  0.0409 -0.1404  0.1084
22375W        W40579   6.242   6.141   3.149 -0.1583  0.1470  0.2050
22376W        W40580  10.290  12.383   1.926 -0.1994  0.3313  0.0352
22377W        W40581  15.927  13.524  13.266 -0.1217 -0.1219  0.0607
22378W        W40582  14.122  12.146  13.857 -0.2559 -0.0092 -0.0245
22379W        W40583  12.102  11.398  14.951  0.1488  0.2887 -0.1557
22380W        W40584  17.929  15.765  13.225 -0.0486 -0.1453 -0.0102
22381W        W40585   4.574   8.019  12.588 -0.1630  0.0465 -0.0061
22382W        W40586  10.556   2.714  11.754 -0.0532 -0.0207  0.2718
22383W        W40587  13.428   5.907   0.995  0.0713  0.4724 -0.1378
22384W        W40588   3.193  11.775   0.357 -0.0866 -0.1067  0.0161
22385W        W40589   1.838  14.740  15.247 -0.1308  0.0178  0.1532
22386W        W40590   4.668  10.459   4.493 -0.1995 -0.0596  0.2090
22387W        W40591   0.448   2.226   1.229 -0.0194 -0.2676  0.2553
22388W        W40592   7.040  12.631   2.207 -0.1595 -0.1575  0.1087
22389W        W40593   7.471  13.637   1.026  0.0249  0.2322 -0.2550
22390W        W40594  12.686  10.048  11.354  0.1575  0.0466 -0.3463
22391W        W40595   6.698   7.003   3.252  0.3683  0.0734  0.0080
22392W        W40596  14.042  14.591  13.992 -0.1469 -0.0011 -0.1101
22393W        W40597  13.056   2.837  12.304 -0.1455  0.4268  0.0682
22394W        W40598  17.881   5.904   3.554 -0.2087  0.2068 -0.0646
22395W        W40599  16.339  15.932  12.173 -0.2465  0.0189  0.0202
22396W        W40600   8.695   5.214  13.736  0.0276 -0.1597 -0.1244
22397W        W40601  13.584   8.777  11.415 -0.1271  0.1442  0.4157
22398W        W40602   5.155  17.097  11.158  0.1812  0.1486  0.0563
22399W        W40603   4.711  17.700  15.648 -0.1978  0.1212 -0.0766
22400W        W40604   3.421  15.628  10.712  0.1699  0.0119  0.2133
22401W        W40605   0.161  15.768  11.146  0.0672 -0.3377  0.2881
22402W        W40606  10.098   2.344  13.517  0.0744  0.2557  0.2290
22403W        W40607   5.042  11.916   0.030 -0.0587  0.0626  0.1519
22404W        W40608   8.962  17.357   0.196  0.0025  0.2013 -0.0254
22405W        W40609  16.137   3.966  15.318 -0.3320 -0.0806  0.3084
22406W        W40610   1.473  14.283   3.334 -0.1510  0.1493  0.1519
22407W        W40611   1.765  11.668   2.973  0.0549 -0.2180 -0.1003
22408W        W40612   3.398   5.304   1.474 -0.2926 -0.1993  0.2558
22409W        W40613  17.088  16.037  13.909  0.1191 -0.1349  0.1280
22410W        W40614   3.753  16.602   3.685  0.0932  0.0572  0.4171
22411W        W40615   6.963   6.180   5.111  0.0037 -0.2255 -0.1649
22412W        W40616   2.093   5.499  15.720  0.3245  0.2270  0.0821
22413W        W40617  10.714   5.846  13.026 -0.2741 -0.0798 -0.2593
22414W        W40618  13.253  14.444  14.377  0.0837  0.0733  0.1404
22415W        W40619   8.418   4.459  13.786  0.3372 -0.1248  0.0997
22416W        W40620   4.174  12.137  14.522  0.1668  0.1917  0.1272
22417W        W40621  12.880  15.891  11.609  0.0583 -0.4718 -0.0697
22418W        W40622  12.542   7.417   0.773 -0.1643 -0.0980  0.1352
22419W        W40623   8.359   2.766   1.989 -0.0386 -0.1252 -0.0590
22420W        W40624  13.076  12.256   2.834  0.1515 -0.0093  0.0804
22421W        W40625   0.773   2.053   1.874 -0.1828 -0.0624  0.1061
22422W        W40626  16.124   2.102  15.454  0.0554  0.1165 -0.0592
22423W        W40627   0.319   2.455  15.400 -0.2099 -0.2786  0.0751
22424W        W40628  13.433  12.990   3.646  0.2314 -0.0085  0.2738
22425W        W40629   3.588   7.395  14.480 -0.1116 -0.0165 -0.0894
22426W        W40630  13.635   1.857   1.063  0.0104  0.1982 -0.1940
22427W        W40631  14.170  15.503  11.319 -0.0275  0.0140 -0.2784
22428W        W40632  16.373   6.528  15.289 -0.1383  0.0633  0.0315
22429W        W40633   1.355  12.059   2.806 -0.1702  0.0437 -0.1700
22430W        W40634  15.566   5.776   4.754 -0.1651  0.1834  0.2164
22431W        W40635   2.073   5.060   1.144 -0.0234  0.0080  0.1638
22432W        W40636   7.682   8.202   3.824  0.1814 -0.3462 -0.0958
22433W        W40637  10.794  10.835  13.286 -0.2312  0.1002 -0.0075
22434W        W40638   7.057   4.715   3.594 -0.0135  0.0916  0.1636
22435W        W40639  14.681  16.313  11.992 -0.0122  0.1570 -0.2516
22436W        W40640   4.066   8.159   5.838  0.2423  0.3821  0.2597
22437W        W40641   0.034  15.698   1.857 -0.1141  0.0177  0.1157
22438W        W40642   9.221   2.217   9.780 -0.1788  0.0823 -0.0321
22439W        W40643   4.912  16.151  14.066  0.1345 -0.2271 -0.1087
22440W        W40644   6.612  14.494   1.498 -0.5778 -0.0439  0.0687
22441W        W40645   2.088  11.732   1.944 -0.0031  0.0348  0.1496
22442W        W40646  18.311   4.495  14.376  0.1642 -0.2949  0.1571
22443W        W40647  14.938  12.470   0.083 -0.1193 -0.0883  0.0698
22444W        W40648  18.136   3.182   2.134 -0.1342  0.1812  0.0955
22445W        W40649  15.955   3.902  11.672  0.0788 -0.1942 -0.0904
22446W        W40650   4.279   5.217  12.771  0.0489  0.1348  0.1109
22447W        W40651   2.128   2.650   1.935 -0.6513  0.2118  0.1094
22448W        W40652   2.093  15.406   0.210 -0.3401 -0.1436 -0.0529
22449W        W40653   5.486  12.906  13.251  0.0096  0.0251 -0.3748
22450W        W40654   8.664   1.677  13.314  0.2514  0.0898 -0.0100
22451W        W40655   9.171   5.823   3.635  0.0365 -0.0224  0.2176
22452W        W40656  10.290  11.465   3.739 -0.0417 -0.3203  0.2566
22453W        W40657   6.209   7.199   1.038 -0.0663 -0.8200  0.1060
22454W        W40658   9.073   6.262  11.028 -0.2082 -0.3048 -0.3667
22455W        W40659   8.955   9.561   0.798  0.1036 -0.0673 -0.0056
22456W        W40660  12.179  18.338   3.595  0.1863  0.2465 -0.0229
22457W        W40661   7.677   6.925   3.453 -0.0372 -0.0205  0.1954
22458W        W40662  15.606  14.720   1.698  0.0909  0.0017 -0.1441
22459W        W40663  12.191   4.936  11.630 -0.1716 -0.4743  0.2774
22460W        W40664  15.500   3.981   1.503 -0.1411  0.1539  0.0465
22461W        W40665  13.768   1.399   0.635 -0.2206  0.2804  0.1281
22462W        W40666   6.324  12.672   3.209  0.3186 -0.3537  0.1148
22463W        W40667  17.197  10.205   9.953 -0.0545 -0.1641 -0.1841
22464W        W40668  16.033  15.366   2.501 -0.2557 -0.0147  0.2425
22465W        W40669   8.263   8.353  14.774  0.0163  0.1585  0.2352
22466W        W40670  11.450  15.104   0.596 -0.0477 -0.1290  0.0407
22467W        W40671   7.549   2.549  15.217 -0.2394  0.2243 -0.1534
22468W        W40672   9.811  11.136  13.303  0.2466 -0.2513  0.0050
22469W        W40673   7.630  17.756   1.421  0.1403  0.0512 -0.2653
22470W        W40674   0.466   5.511  15.326 -0.0891 -0.0873 -0.1320
22471W        W40675   4.752  13.565   4.428 -0.1646 -0.1061 -0.0183
22472W        W40676   2.936   9.186   0.967 -0.0884 -0.2037  0.2272
22473W        W40677  10.402   4.301   2.955  0.1732  0.0918  0.0513
22474W        W40678  10.614   4.003   3.530 -0.0042  0.2307 -0.0425
22475W        W40679  17.753   7.653   4.277 -0.0591  0.0080  0.3006
22476W        W40680  16.666   9.568   2.973 -0.1439  0.1271 -0.1293
22477W        W40681  15.734   1.015  14.812 -0.0184  0.1292 -0.1030
22478W        W40682   1.299   3.473  12.912 -0.0957 -0.0286 -0.2518
22479W        W40683  12.864   9.129  14.860  0.1078 -0.1773  0.1361
22480W        W40684   8.144  14.288   2.269  0.0814  0.0670 -0.0532
22481W        W40685   7.429   6.803  11.009 -0.0664 -0.0613 -0.1320
22482W        W40686   1.932  16.181  14.129 -0.1495  0.0337 -0.3055
22483W        W40687  13.301   6.020  13.992 -0.2180  0.1403  0.0654
22484W        W40688   6.104  18.004   4.164  0.2942  0.1094 -0.1325
22485W        W40689   0.356   3.727   2.890 -0.0774 -0.4285  0.0386
22486W        W40690  13.643  10.532   3.436 -0.1429  0.0176 -0.1832
22487W        W40691   8.811   6.974  14.095  0.2305 -0.2288 -0.0556
22488W        W40692   9.876  12.635   4.862 -0.1213 -0.0585 -0.1160
22489W        W40693   8.968   5.968  12.534 -0.1037 -0.0179  0.0233
22490W        W40694  17.403   8.970   0.330 -0.0951  0.3490  0.0562
22491W        W40695  10.221  14.984   1.717 -0.0423 -0.2827  0.1625
22492W        W40696  15.428  18.197  10.218 -0.0681 -0.0896  0.4766
22493W        W40697   2.717   6.809  15.093  0.2154  0.1513 -0.1935
22494W        W40698  16.283  13.221  12.072  0.0213  0.1903  0.1534
22495W        W40699  14.837   0.673  12.377 -0.0108  0.2234  0.0049
22496W        W40700  11.078  14.563  12.786 -0.0353  0.2713 -0.0291
22497W        W40701   6.043  16.470  11.771  0.2942 -0.2223 -0.2653
22498W        W40702  10.391  13.284   0.652 -0.1312  0.0581 -0.0708
22499W        W40703   0.397   5.988   4.691 -0.1610 -0.2086 -0.2087
22500W        W40704   2.806   8.620  13.482 -0.0372 -0.3197 -0.1012
22501W        W40705  14.553  11.398  12.893  0.0180  0.5009 -0.3399
22502W        W40706  10.706  14.021   4.694 -0.2674  0.0457 -0.1760
22503W        W40707  13.898   8.266   1.589 -0.0901  0.1664 -0.1839
22504W        W40708  12.284  11.018   3.897 -0.1557 -0.2937  0.2098
22505W        W40709   3.210   4.135  12.673 -0.2114 -0.2462 -0.0538
22506W        W40710  14.720  10.125  13.296 -0.0948  0.0232  0.2509
22507W        W40711   8.440   4.696   0.457  0.1781  0.1001  0.1669
22508W        W40712   5.381  16.294  13.911 -0.2011  0.1227 -0.0520
22509W        W40713  14.161   8.920  13.509 -0.2298  0.0961 -0.3670
22510W        W40714   4.685  12.190  12.799  0.0408  0.2080  0.0733
22511W        W40715   5.418  10.036   2.892 -0.2566 -0.1635  0.0876
22512W        W40716   0.394   5.321   1.166  0.1983  0.0589 -0.0950
22513W        W40717   8.384  12.217  11.168 -0.1073  0.0784 -0.1069
22514W        W40718   0.693   9.378  11.980 -0.0619  0.1193 -0.1924
22515W        W40719   0.653   6.796  14.570 -0.0767 -0.0924  0.1754
22516W        W40720   4.669  16.519  13.865  0.1733  0.0208 -0.3354
22517W        W40721  14.912   2.440  14.984 -0.3230 -0.2901 -0.0467
22518W        W40722   1.281   9.007   2.376 -0.1007  0.2729  0.2586
22519W        W40723   6.667   7.103  13.420 -0.0612  0.0132 -0.2717
22520W        W40724   1.505  15.570   2.795  0.0065  0.0055 -0.0479
22521W        W40725   0.036   6.939   4.793 -0.1045 -0.0212 -0.2313
22522W        W40726  16.453   5.134   1.218  0.1696  0.0444 -0.1558
22523W        W40727  15.677  16.258   4.188  0.2213 -0.1949  0.0714
22524W        W40728   5.113   0.409   3.907 -0.0785 -0.1711  0.2446
22525W        W40729   1.281  14.190  15.558  0.2065 -0.3393 -0.0233
22526W        W40730   8.195  10.611  14.424 -0.0274  0.0178  0.0450
22527W        W40731   5.620   2.093   4.292 -0.2759  0.1198  0.1674
22528W        W40732   6.589   7.044  11.685 -0.0920 -0.0570  0.0087
22529W        W40733  12.437  11.114  11.352  0.4434 -0.1975 -0.2499
22530W        W40734  13.846   1.015   3.093 -0.3193  0.0955  0.0040
22531W        W40735  14.686  18.366   1.204  0.0484  0.0819  0.0542
22532W        W40736   5.790  15.163   2.415 -0.1634 -0.0529  0.1803
22533W        W40737  12.693   4.568  12.964  0.1407  0.1764  0.1711
22534W        W40738  10.153   1.900   1.986  0.0573 -0.0969  0.1018
22535W        W40739   3.003  11.553  14.868 -0.1758  0.1811 -0.0075
22536W        W40740   9.885  13.048   0.767  0.0951  0.3853 -0.0735
22537W        W40741   3.367   7.210   4.705  0.0782  0.1600  0.0267
22538W        W40742   2.943   2.808  14.427 -0.1515 -0.0159  0.1294
22539W        W40743   9.675  12.938   3.840 -0.3503 -0.1812 -0.4831
22540W        W40744  15.663   3.409   2.090  0.1321  0.2073  0.1108
22541W        W40745  17.085  15.917  14.443  0.0784 -0.4033  0.2367
22542W        W40746  16.571   7.102  13.290  0.0805  0.0349 -0.1357
22543W        W40747   2.000  16.242   3.915 -0.0971  0.1205  0.0266
22544W        W40748  12.011  17.506  13.761  0.1393 -0.0586 -0.1303
22545W        W40749  17.799   6.737  13.889  0.0887 -0.3902  0.1825
22546W        W40750  17.227  17.161   0.197  0.0644 -0.1236  0.2678
22547W        W40751  18.325  11.234   1.058  0.1820 -0.2302  0.4025
22548W        W40752  16.142   8.610   2.904  0.0814 -0.1853  0.1244
22549W        W40753   7.160   6.629   3.045  0.0398 -0.2636  0.0813
22550W        W40754   0.795   6.366  13.050  0.0655  0.1672  0.4851
22551W        W40755  13.983   1.597   1.890 -0.1400  0.0663 -0.0317
22552W        W40756   5.954  14.646  12.042 -0.0282  0.0804  0.1684
22553W        W40757  10.177  12.836  11.148  0.1029 -0.0532  0.0765
22554W        W40758   4.577  17.177  11.900 -0.0848 -0.1948  0.0587
22555W        W40759  16.172   8.683  11.321  0.0840 -0.6152 -0.1507
22556W        W40760   8.051   2.175  14.594 -0.0318  0.1142 -0.0591
22557W        W40761   8.611   5.039   0.803  0.2759 -0.1679 -0.2186
22558W        W40762  11.109   0.315   3.376  0.1208 -0.2359 -0.0749
22559W        W40763  18.308  10.018  15.645  0.1822  0.1657 -0.0642
22560W        W40764   0.166   3.533   3.922  0.0649 -0.1234  0.1466
22561W        W40765   3.604  11.847  13.008 -0.0610 -0.0223 -0.0555
22562W        W40766  10.931   2.195   0.748  0.0828 -0.1054 -0.0413
22563W        W40767   6.946   6.473  13.570  0.2938 -0.1110  0.0854
22564W        W40768   4.028   9.102   4.127 -0.2665 -0.0925 -0.1351
22565W        W40769  14.407  15.844   3.347 -0.1095 -0.2910 -0.2187
22566W        W40770   4.122   7.289   3.398 -0.0659  0.2235  0.2191
22567W        W40771  11.156  16.866  11.553 -0.0817 -0.0167  0.1142
22568W        W40772   5.881  15.408   0.687  0.1428 -0.0040 -0.1852
22569W        W40773  10.925  11.240   0.218  0.0383  0.3037  0.1216
22570W        W40774   3.379  16.825   4.087 -0.0082  0.1201  0.2960
22571W        W40775   8.645   8.418   2.107 -0.0831 -0.0462 -0.0942
22572W        W40776  15.237  10.448  14.000 -0.1257  0.2326 -0.0388
22573W        W40777  11.826  11.751   5.099 -0.0900  0.1762  0.3994
22574W        W40778   5.663   8.733   4.456  0.2672 -0.1098  0.0230
22575W        W40779  14.057   1.316  13.166  0.2330 -0.0036 -0.0797
22576W        W40780   3.204   3.598  11.666  0.2448  0.0996 -0.2258
22577W        W40781  11.593   2.800   0.978 -0.0319  0.1293  0.1540
22578W        W40782   2.834   2.038   4.258 -0.1150  0.0909  0.0671
22579W        W40783   4.038   3.124   1.160  0.2263 -0.2551 -0.0866
22580W        W40784   1.517  13.026   1.372  0.1289 -0.0366 -0.0407
22581W        W40785   1.278   4.431  12.937 -0.0799 -0.0325 -0.3036
22582W        W40786  15.009   8.921  13.444  0.0785 -0.2060 -0.0681
22583W        W40787   6.637   4.162  13.238 -0.0050 -0.1727 -0.1556
22584W        W40788  12.043   5.831   1.241 -0.1590 -0.0226 -0.0364
22585W        W40789   2.901  10.943  13.461  0.2919 -0.3526  0.2322
22586W        W40790  12.229  13.708  13.683  0.0726  0.4935 -0.2770
22587W        W40791   0.435   7.405  13.416 -0.2603 -0.1974 -0.0582
22588W        W40792  15.435   5.364   0.442 -0.0174 -0.0453  0.2183
22589W        W40793   2.540   8.627   2.657 -0.1081 -0.0633 -0.0072
22590W        W40794   3.313  15.632  15.510 -0.3348  0.2599 -0.0824
22591W        W40795   7.136   8.174  15.374 -0.4648  0.2267  0.2672
22592W        W40796  15.798  15.050  14.193 -0.0269 -0.0002  0.0881
22593W        W40797   6.614  10.335   0.032  0.1700  0.2674  0.3716
22594W        W40798   7.083   6.218  14.580 -0.1353  0.4722 -0.3153
22595W        W40799   8.465  13.283  13.645  0.1059  0.2250  0.2262
22596W        W40800   7.631  14.078   2.544  0.1381  0.0248  0.0778
22597W        W40801  10.208   1.794   3.263 -0.0054 -0.0246 -0.1790
22598W        W40802  12.705  14.134  13.263  0.3044 -0.0682 -0.2265
22599W        W40803   2.074   7.676   4.154  0.0736 -0.1587  0.2112
22600W        W40804   2.864  14.503   2.679 -0.1471  0.0315  0.0573
22601W        W40805   2.998   0.379   4.369  0.4095 -0.0306  0.1375
22602W        W40806  14.807  17.042  12.627  0.0614 -0.1797  0.1477
22603W        W40807  15.787   2.682   2.733  0.0557 -0.1622 -0.0402
22604W        W40808  16.821  10.353   0.912  0.0095 -0.2372 -0.1790
22605W        W40809   6.853   9.259  12.961 -0.0846 -0.1601 -0.2191
22606W        W40810   7.575  13.178   0.934 -0.0291  0.1608  0.0806
22607W        W40811   4.205  14.010  14.123  0.1863  0.1930  0.0189
22608W        W40812   3.737  13.132  12.970  0.0930 -0.1870 -0.0434
22609W        W40813  15.862   1.509  12.237  0.0072 -0.1694 -0.0496
22610W        W40814   5.111   4.225   9.853 -0.0072 -0.2248 -0.1118
22611W        W40815   0.944  15.119   0.730 -0.1791 -0.0593  0.2407
22612W        W40816  13.298   5.683  14.739  0.2340 -0.0604 -0.1093
22613W        W40817   5.577  18.141   4.189 -0.5063  0.0836  0.3353
22614W        W40818  16.764   4.816   0.882  0.0552  0.5325 -0.3024
22615W        W40819  14.392   4.785   2.559 -0.0306  0.2356 -0.1146
22616W        W40820  14.358  13.319  12.542  0.0878 -0.1699 -0.5210
22617W        W40821  15.194  17.097  11.616 -0.1880 -0.2236  0.2665
22618W        W40822  11.089  10.464  12.970  0.1012 -0.0635  0.0290
22619W        W40823   3.997   0.479  15.288  0.1401 -0.2306 -0.0720
22620W        W40824   1.916   6.904   1.709  0.2368 -0.3107  0.0377
22621W        W40825   0.793  10.830   1.521  0.2518 -0.1732  0.0473
22622W        W40826   3.614  10.363  15.169  0.1347 -0.0641 -0.0977
22623W        W40827   3.437  10.236  11.331  0.1885  0.0668  0.1022
22624W        W40828   0.236  16.926  13.608 -0.1795  0.3381  0.0198
22625W        W40829   4.295   8.846  10.655 -0.2669  0.1876  0.2592
22626W        W40830   6.095   9.690  15.541 -0.2596 -0.4198  0.0765
22627W        W40831   6.877  13.076   1.525  0.1817 -0.2878  0.1500
22628W        W40832   4.043  16.113  12.624 -0.0574 -0.0109 -0.0056
22629W        W40833   5.018  15.577   0.889  0.4063 -0.0268 -0.2551
22630W        W40834  15.016   3.847  11.386 -0.1641  0.0606  0.2196
22631W        W40835   9.345   4.289  13.662  0.1344 -0.1352  0.0051
22632W        W40836   1.098   8.798   1.479  0.3278  0.3423 -0.1423
22633W        W40837  15.664   3.458  12.494  0.0071 -0.0253 -0.0103
22634W        W40838   5.690   0.807  15.547  0.3639 -0.1016 -0.1085
22635W        W40839   6.877   1.612  13.714  0.2291  0.1405  0.0127
22636W        W40840   4.954  11.422   4.668  0.2277  0.2816  0.2063
22637W        W40841  13.142  13.944  14.433  0.2598 -0.0370  0.0367
22638W        W40842   7.463   5.347  10.769  0.0832  0.1941  0.3688
22639W        W40843  16.764  16.577   5.356  0.1588 -0.0693  0.1617
22640W        W40844  15.873  14.848  13.438 -0.1537 -0.1625 -0.0591
22641W        W40845  13.263  17.091   4.460  0.3564 -0.1316 -0.1491
22642W        W40846   8.352  15.768   0.402  0.1744 -0.0048  0.2156
22643W        W40847   9.582  18.266  14.402  0.0040  0.0531 -0.3296
22644W        W40848  10.682   6.997   4.774 -0.1018  0.2912  0.0663
22645W        W40849  13.909   6.155  13.114 -0.2670 -0.0416  0.2100
22646W        W40850  10.674   1.166   1.644 -0.0878 -0.2364  0.0523
22647W        W40851  16.998   6.980  12.047  0.0851 -0.1279 -0.1319
22648W        W40852  14.047   6.962   1.574  0.0378 -0.3084  0.1064
22649W        W40853  15.562  10.092  11.756  0.1207 -0.2836  0.2252
22650W        W40854   0.245  15.312  15.429  0.0412 -0.1761 -0.3506
22651W        W40855  14.666   5.856  11.567  0.1177 -0.0802 -0.0915
22652W        W40856  17.172  13.848   3.054  0.0261 -0.1616 -0.0399
22653W        W40857   6.653   1.805   1.317  0.1088  0.0847 -0.0188
22654W        W40858   4.546  16.053   3.680 -0.0815  0.1760  0.0075
22655W        W40859  10.082  14.088   1.857  0.0487 -0.1257  0.0883
22656W        W40860  17.850  10.336   3.308 -0.5003 -0.1252  0.0719
22657W        W40861  14.457   2.025  11.535  0.0149  0.0227  0.2199
22658W        W40862  18.366   0.585   5.110 -0.1228  0.0867  0.3491
22659W        W40863  13.878  17.846   4.191  0.0962 -0.0726  0.2552
22660W        W40864   9.857  14.615  15.135 -0.5810  0.1757  0.3638
22661W        W40865  10.762  15.112   1.042 -0.0122 -0.1068  0.2063
22662W        W40866   8.900   5.372   3.584  0.2609  0.0524  0.1724
22663W        W40867  11.501   3.544   2.482 -0.0358 -0.0224 -0.3085
22664W        W40868   8.738  12.399   3.493 -0.1335  0.1517 -0.1633
22665W        W40869   2.657   2.144  12.448  0.0338  0.0741 -0.2190
22666W        W40870   4.182   8.707   0.572 -0.0091 -0.2966  0.2535
22667W        W40871  17.387   6.460  13.772 -0.1282  0.1016  0.0319
22668W        W40872  11.479   6.779  11.576  0.0583 -0.0969 -0.0622
22669W        W40873  11.318   8.492  13.896 -0.1847 -0.0071 -0.0352
22670W        W40874  15.265  11.606   0.194  0.1090 -0.1198 -0.2052
22671W        W40875  13.766   6.426  12.226  0.0691  0.1644 -0.0262
22672W        W40876   7.925  15.535   4.917  0.1182  0.2983 -0.1152
22673W        W40877   7.915  13.456   4.623  0.2368  0.0248  0.0912
22674W        W40878  14.383  10.399  12.622 -0.2008  0.1423 -0.0245
22675W        W40879  17.779   4.761  11.462 -0.0795 -0.0006 -0.1095
22676W        W40880   5.267   1.418  14.964  0.0398  0.3099 -0.0181
22677W        W40881  17.172  12.891  15.461  0.0770 -0.1769 -0.0759
22678W        W40882   2.830  12.260  14.002  0.2056  0.1120  0.3157
22679W        W40883   5.174  11.813  13.610 -0.1911  0.1282  0.1150
22680W        W40884   0.628   7.744  13.132 -0.2322 -0.0262 -0.1108
22681W        W40885  16.950   1.577   2.472 -0.1435  0.1087 -0.1328
22682W        W40886  10.639   9.293   3.166  0.4082  0.0954  0.1185
22683W        W40887   3.469  17.603  11.495  0.2193 -0.1299 -0.0105
22684W        W40888  15.461   7.472  14.744 -0.3817  0.1987  0.1641
22685W        W40889  15.233   9.350   1.857 -0.2688  0.1892  0.0827
22686W        W40890  16.039  10.832   3.747  0.0634 -0.0614  0.0368
22687W        W40891   7.347   0.707  14.071  0.0092 -0.1525 -0.0051
22688W        W40892   1.167   7.430  15.010 -0.1650 -0.3439  0.1144
22689W        W40893  15.514  16.681  13.760 -0.3067 -0.0268 -0.2119
22690W        W40894   3.073  10.864  11.057  0.2587  0.0713  0.0105
22691W        W40895   5.629   8.142  13.987  0.0561  0.1431  0.0738
22692W        W40896   5.739   5.327   1.276 -0.0340 -0.1109  0.1692
22693W        W40897  14.342   8.131   3.825  0.1636  0.2356 -0.0829
22694W        W40898  14.036   3.755   2.306 -0.2604  0.4583  0.1038
22695W        W40899  16.113   1.210   4.164  0.0476  0.2529 -0.0636
22696W        W40900  17.499   5.378  15.135 -0.0615  0.0968 -0.1559
22697W        W40901   7.142   1.948  12.119  0.0160  0.1720 -0.1651
22698W        W40902  11.323  16.681   2.869  0.1131  0.1382 -0.1010
22699W        W40903   9.767  17.383   4.617  0.0554  0.0686  0.1310
22700W        W40904  11.655  16.569  14.075  0.1540 -0.3481 -0.0790
22701W        W40905   8.670   2.234   5.845  0.1163  0.2942  0.4996
22702W        W40906  14.962   6.236  13.387  0.0545 -0.1994 -0.2299
22703W        W40907  16.526   8.904  13.009 -0.1234 -0.1803  0.1509
22704W        W40908  12.922   5.332   2.135 -0.3011  0.2981 -0.0514
22705W        W40909  16.363  13.735  12.375 -0.1919 -0.1081 -0.0306
22706W        W40910  11.644   4.828  13.260  0.1164  0.0859  0.0258
22707W        W40911   5.612  14.744  13.500  0.1001 -0.1488 -0.0836
22708W        W40912   0.519   4.633  11.159  0.2344 -0.2864  0.0088
22709W        W40913   8.627   2.971   1.186  0.0063 -0.1049  0.0690
22710W        W40914   0.576   3.665  11.510 -0.1452  0.0995 -0.4978
22711W        W40915  12.845  12.835   3.498 -0.1012 -0.0300  0.3317
22712W        W40916   4.844  17.514   2.456 -0.1910 -0.2255 -0.0755
22713W        W40917   4.714  13.582   1.947 -0.0116 -0.1582  0.0618
22714W        W40918  11.705   6.251  14.446 -0.0225  0.4910 -0.0659
22715W        W40919   1.280  14.915  12.682 -0.1702  0.0209  0.0951
22716W        W40920   0.718  14.418  11.287  0.0198  0.0449 -0.1029
22717W        W40921   3.464  18.197   3.606  0.1686  0.3206 -0.3567
22718W        W40922  12.152   7.268  10.327 -0.1096  0.3264  0.3356
22719W        W40923   1.385   2.246  14.193  0.1734  0.0124  0.2985
22720W        W40924  10.423  15.859  12.188 -0.1680  0.2101 -0.0605
22721W        W40925  13.082   8.945  12.580 -0.0199  0.1760  0.3031
22722W        W40926  16.030  14.925  14.815  0.2852  0.0701 -0.2677
22723W        W40927   9.153   2.300  11.869 -0.2274  0.0674 -0.1606
22724W        W40928  13.770  17.878   4.677  0.2529  0.0383 -0.1624
22725W        W40929   5.641  10.928  14.127 -0.0332 -0.0470  0.1529
22726W        W40930  13.464   1.209  13.982 -0.3300  0.0757 -0.0747
22727W        W40931  16.061   1.188  15.596 -0.0142 -0.0110  0.1591
22728W        W40932   5.533  12.078   5.076  0.1011  0.0889 -0.0406
22729W        W40933  15.789   7.560   0.036 -0.1289  0.0006 -0.2486
22730W        W40934  17.601  11.337  14.321  0.0548 -0.1059  0.0681
22731W        W40935   1.364  13.216  15.282 -0.1495  0.0930  0.1244
22732W        W40936  16.230   5.951  14.637  0.0736  0.2713 -0.1131
22733W        W40937  12.086  13.802   0.891 -0.0507  0.0148 -0.0181
22734W        W40938  15.357   8.771  12.520 -0.0513  0.0934  0.3088
22735W        W40939  10.375  12.830  14.601  0.0021  0.0348  0.1950
22736W        W40940   6.210  11.518  15.705  0.0963 -0.2375 -0.0558
22737W        W40941   4.115  17.653  13.826  0.0540 -0.2280  0.0223
22738W        W40942   7.853  12.415   4.530  0.0950 -0.5240 -0.0473
22739W        W40943   9.880   2.089  12.592 -0.3013 -0.5001 -0.2494
22740W        W40944   9.569   6.631  12.974  0.2353  0.3639 -0.1288
22741W        W40945   2.746   6.909   3.272 -0.1831  0.0763 -0.3069
22742W        W40946   2.880   5.912   2.162 -0.2647 -0.1737 -0.0325
22743W        W40947   3.245   9.409  14.213 -0.0369 -0.2132 -0.1808
22744W        W40948   2.807   7.862  13.974  0.1949 -0.4682 -0.1184
22745W        W40949   8.091  12.995   2.134 -0.0926  0.1645  0.1418
22746W        W40950  15.653  13.527   3.685  0.5674  0.3239  0.0251
22747W        W40951  15.951   9.765  14.523 -0.1917 -0.2000  0.0524
22748W        W40952   1.371   6.827  13.781  0.3433  0.1910 -0.2457
22749W        W40953  10.891   5.557   2.323  0.1093  0.0281  0.1782
22750W        W40954   4.101   8.265  14.307  0.0297  0.0665  0.0222
22751W        W40955   5.250   9.549  12.326  0.0881  0.1621 -0.3374
22752W        W40956  14.726   2.543   0.061  0.0247 -0.0144 -0.1448
22753W        W40957   1.199  15.461   4.261  0.2749  0.2279 -0.0676
22754W        W40958  11.219  12.823   5.056  0.0282 -0.2733 -0.2094
22755W        W40959  16.311   9.738   0.564 -0.0055  0.0301 -0.3265
22756W        W40960   6.745   0.504   1.776 -0.1716  0.0443  0.1382
22757W        W40961  17.487   6.391  15.315  0.1284  0.3080  0.2129
22758W        W40962  13.377   6.568  11.418  0.0897 -0.3249  0.1573
22759W        W40963  14.173   8.686   1.655 -0.1884  0.3830  0.0878
22760W        W40964  15.509   3.487   9.821 -0.0425  0.1113 -0.0926
22761W        W40965  14.555  18.314   2.386 -0.0103  0.1941  0.0627
22762W        W40966   0.805  16.007   2.385 -0.0416  0.1270  0.0430
22763W        W40967   6.166  12.802  15.303 -0.0792  0.0966 -0.1609
22764W        W40968   7.542   5.876  12.240 -0.0248 -0.1107 -0.1365
22765W        W40969   0.410   7.756   1.779 -0.2958 -0.0794  0.0656
22766W        W40970   9.535   5.205  13.044  0.1547  0.1149 -0.0184
22767W        W40971   9.582  10.277   0.996 -0.0313 -0.2108  0.1289
22768W        W40972  18.338   3.248   3.518 -0.0752  0.0387 -0.3487
22769W        W40973   7.392  13.332  11.352  0.0329 -0.2497 -0.1297
22770W        W40974   6.808   7.809   0.917 -0.2816  0.2065 -0.2859
22771W        W40975  10.367   6.740   1.681 -0.0663  0.0546  0.2353
22772W        W40976  16.929   1.944   0.893  0.0949 -0.0940 -0.1189
22773W        W40977   6.904   1.292   3.405  0.1148 -0.3090  0.0547
22774W        W40978  17.660   3.979   0.445  0.1287  0.0918 -0.1976
22775W        W40979   7.739   0.387  12.329 -0.1655  0.1998  0.0337
22776W        W40980  14.174   1.814   4.070 -0.0148 -0.0925 -0.0875
22777W        W40981  11.380   3.450   3.800  0.0815  0.1111 -0.0412
22778W        W40982  10.703  15.356  13.027 -0.0062 -0.3218 -0.1037
22779W        W40983   3.517  12.718  12.501  0.2502 -0.1700 -0.0397
22780W        W40984  10.594  11.109  10.384  0.3050  0.4892  0.1882
22781W        W40985  10.248   1.756  11.045  0.1810 -0.3264  0.0102
22782W        W40986   6.903   2.789  13.197  0.2380 -0.0191  0.0397
22783W        W40987   0.250   0.444   1.158  0.0261  0.2736  0.0603
22784W        W40988   5.249   2.677   3.381 -0.0988  0.1533 -0.2747
22785W        W40989   9.410  15.940   2.453 -0.2208 -0.0138  0.1436
22786W        W40990  13.717   4.977   5.168 -0.2875  0.0241 -0.2986
22787W        W40991   3.683  15.573   5.424  0.0547 -0.2245 -0.1225
22788W        W40992  18.290   1.205   2.398  0.1194  0.0444 -0.0317
22789W        W40993  11.159  17.781   0.740  0.0579  0.1102  0.1763
22790W        W40994  10.939   3.196  11.797 -0.1134 -0.2884 -0.1091
22791W        W40995   3.775   6.929   3.175  0.1689  0.0071 -0.1021
22792W        W40996   1.172  15.965   2.835 -0.1889  0.1239  0.3906
22793W        W40997   8.038  13.527  13.606  0.1837 -0.2479 -0.0594
22794W        W40998   5.560  11.989  11.933 -0.1456  0.1742 -0.1361
22795W        W40999  16.497  17.410  15.581  0.1467  0.0660  0.0601
22796W        W41000   6.466  11.097  14.960 -0.1210  0.0765  0.0656
22797W        W41001   6.516  16.333  12.508 -0.1797 -0.0122 -0.0973
22798W        W41002   1.752  12.542  11.824  0.0675  0.2849 -0.1311
22799W        W41003  11.223   4.581   5.059 -0.0208 -0.0425  0.1719
22800W        W41004   1.064   2.818  12.368 -0.3368 -0.1708 -0.0546
22801W        W41005  11.506   1.283  11.420  0.0398 -0.0550  0.1606
22802W        W41006  15.552  15.950   1.158 -0.2599 -0.1133 -0.1935
22803W        W41007   4.701  14.693   4.902  0.1854  0.2867 -0.1949
22804W        W41008   3.923   6.787   1.429 -0.1477 -0.1498  0.0523
22805W        W41009   5.688   1.882  10.358  0.0507  0.4092 -0.0263
22806W        W41010   9.897   8.908   5.684  0.1202  0.2227  0.0614
22807W        W41011  14.823   4.903  13.271 -0.2161 -0.2685 -0.1300
22808W        W41012   0.839  13.318  11.434  0.2354  0.2040 -0.1735
22809W        W41013   1.822   7.943  12.433  0.1920  0.2798 -0.0778
22810W        W41014  17.422  13.440  13.639 -0.1544  0.0153 -0.0113
22811W        W41015  12.613   2.737   2.670  0.2028  0.1948  0.0363
22812W        W41016  14.503  18.126  14.895  0.1538  0.3444 -0.2281
22813W        W41017   5.786  12.377  11.305 -0.2684  0.1567  0.1105
22814W        W41018   6.661   3.106  11.006  0.1165  0.2045 -0.0271
22815W        W41019   5.341  15.757   4.832 -0.0271  0.2855 -0.0668
22816W        W41020   6.411   3.215  12.282 -0.0160 -0.0476  0.0222
22817W        W41021  11.293  16.707   3.732 -0.2327  0.2262 -0.0017
22818W        W41022  17.679   6.502   0.980 -0.1681 -0.0104 -0.2667
22819W        W41023   9.234   6.465  14.651 -0.1865  0.0660 -0.3067
22820W        W41024   0.489   2.933   3.501  0.4600  0.0766  0.2069
22821W        W41025   9.988   1.465  15.503  0.1339  0.2217  0.0898
22822W        W41026  10.448   7.561   1.176  0.1926 -0.3287  0.0599
22823W        W41027   6.713  18.143   2.423 -0.1524 -0.0309 -0.0399
22824W        W41028   7.696  16.855   0.521 -0.0935  0.1673 -0.1137
22825W        W41029  18.138   3.468   0.007 -0.0212  0.1177 -0.3549
22826W        W41030  13.117  15.344  12.120 -0.0999  0.1669 -0.0552
22827W        W41031   9.189  15.820  12.855  0.0209 -0.1540  0.4204
22828W        W41032   3.645  12.355   2.206 -0.0447 -0.0425  0.4113
22829W        W41033  11.703   4.117  15.649  0.0323  0.1953  0.1106
22830W        W41034  11.714  12.289   3.458  0.0598 -0.2034 -0.0447
22831W        W41035  15.089   8.038   1.992  0.1029  0.0793 -0.3030
22832W        W41036   8.043   9.272  12.535  0.0542 -0.0270 -0.3987
22833W        W41037  15.206  15.440   0.341  0.2591 -0.1530  0.2008
22834W        W41038  11.682   5.969   4.602 -0.4013  0.3908 -0.1580
22835W        W41039  14.232  13.430  14.899  0.0032 -0.0185  0.0155
22836W        W41040   0.544  11.322  13.109 -0.1658  0.4429 -0.0616
22837W        W41041   9.459   3.227  11.451 -0.2822 -0.1032 -0.1175
22838W        W41042  15.803   8.232   1.279  0.1150  0.0756  0.3842
22839W        W41043   4.408   6.040   3.656  0.0989  0.1829  0.0907
22840W        W41044   5.683  15.367  10.871 -0.1920 -0.1923 -0.1922
22841W        W41045  13.981  11.309   4.340 -0.0135 -0.0466  0.1396
22842W        W41046   4.786   1.953  12.672  0.0298  0.3104  0.0530
22843W        W41047  14.535   3.868  12.652  0.1505 -0.0721 -0.0801
22844W        W41048   4.917   8.984   3.313 -0.0252  0.2767  0.0124
22845W        W41049   2.731  13.066  13.107 -0.2340 -0.2321  0.0312
22846W        W41050   5.448   4.356   4.054  0.0237  0.2054 -0.2130
22847W        W41051  14.562   2.137  11.047  0.0091  0.2003 -0.1475
22848W        W41052  13.986   4.682  14.469  0.1033 -0.0392 -0.2760
22849W        W41053  15.915   0.545   2.076 -0.1875 -0.1838  0.1745
22850W        W41054   7.025   3.681  11.532 -0.1594 -0.0405 -0.1636
22851W        W41055  14.277   1.149   2.062  0.2511 -0.0708  0.2042
22852W        W41056   2.101   0.648   3.239 -0.3353 -0.1731  0.1348
22853W        W41057   3.062  17.489   1.846  0.1115  0.0222 -0.0009
22854W        W41058  11.271   4.843   1.994 -0.0310  0.1124  0.0028
22855W        W41059  17.149  12.770  11.974  0.1655  0.0372 -0.1633
22856W        W41060   8.876   8.619  14.067 -0.1508 -0.4874  0.1772
22857W        W41061  17.253   3.059  14.332  0.4142  0.0932 -0.0135
22858W        W41062  16.582  15.479  13.788  0.0521 -0.1999  0.0586
22859W        W41063  16.568   6.067   3.892  0.0177  0.5383  0.0464
22860W        W41064  16.381   9.173   0.002  0.1624 -0.0356 -0.1396
22861W        W41065  16.940  15.436   2.974  0.3082  0.0712 -0.2275
22862W        W41066   1.201   5.041  14.436  0.1383  0.1998  0.1943
22863W        W41067  15.718  14.601  11.882  0.0592 -0.3542  0.0622
22864W        W41068   2.541  16.716   4.402  0.2925  0.0507  0.0367
22865W        W41069  10.692   4.352  13.645 -0.0199 -0.1805 -0.1710
22866W        W41070   4.450   4.484   0.471 -0.1944 -0.0738 -0.0976
22867W        W41071   1.550   9.995   3.575 -0.0007 -0.3151  0.0204
22868W        W41072   5.297  15.249   0.637  0.1671 -0.2390  0.0653
22869W        W41073  17.156   7.071   4.521  0.1070  0.0024  0.2676
22870W        W41074  17.997   3.690   3.762 -0.2423  0.0949 -0.1566
22871W        W41075   6.743  14.907   4.354  0.0047  0.2085 -0.0559
22872W        W41076   1.623  16.051  12.639 -0.0742 -0.0618 -0.1946
22873W        W41077  10.390   1.111   4.064 -0.0780  0.1028 -0.0795
22874W        W41078  14.899   9.874   5.551  0.0327 -0.0789  0.3425
22875W        W41079  14.949  11.047   3.923  0.2117 -0.1172 -0.0650
22876W        W41080  10.082  15.612   0.683  0.2461 -0.0392  0.3971
22877W        W41081  18.135   6.874  13.539  0.3137 -0.1959 -0.0370
22878W        W41082   9.429   6.530   3.442  0.1837 -0.1785  0.1365
22879W        W41083  14.230  11.882  15.344 -0.0036  0.0292 -0.1229
22880W        W41084   7.692   6.661   2.915  0.0588  0.2870 -0.1719
22881W        W41085  14.740  16.871   0.370  0.2343  0.0441  0.1988
22882W        W41086   6.937  11.381  11.974  0.0591 -0.0875  0.2821
22883W        W41087  15.881   2.197  11.051  0.0103  0.3614  0.0236
22884W        W41088  14.527   4.632   3.919  0.1237 -0.0377  0.0716
22885W        W41089  10.885   1.423   2.542  0.0679 -0.2318  0.2310
22886W        W41090  17.901  16.385  14.691 -0.2035  0.1144 -0.1608
22887W        W41091   8.097  16.732  11.489  0.0362 -0.0695  0.1473
22888W        W41092  14.352  17.080  15.483  0.1606  0.1943  0.0428
22889W        W41093  10.705  15.001   5.063 -0.3755 -0.1328 -0.0063
22890W        W41094  10.724  14.653   1.570  0.1320 -0.0528 -0.0078
22891W        W41095   4.947  18.071  15.379  0.0394 -0.0367  0.1052
22892W        W41096   1.752  16.667  10.290 -0.0209 -0.2325 -0.1211
22893W        W41097   6.645   3.898  14.618  0.3424 -0.1310  0.0615
22894W        W41098  14.754   0.002  15.563 -0.1314 -0.1173  0.1283
22895W        W41099  12.975   2.963   0.876 -0.1785  0.0625  0.0527
22896W        W41100   4.132   3.017   3.089 -0.0396  0.1237 -0.1433
22897W        W41101  12.325  10.799   1.791  0.0794  0.0742 -0.0176
22898W        W41102   5.153   8.729  11.196  0.0589  0.0071 -0.1524
22899W        W41103  15.427  13.031  11.297  0.1301  0.4246  0.0075
22900W        W41104   2.513  11.862   3.603  0.4308 -0.0866  0.2064
22901W        W41105  17.338  17.665   4.396  0.0933 -0.0805  0.1113
22902W        W41106   1.821   5.537   1.884 -0.0844 -0.0412  0.1880
22903W        W41107   7.428  16.426  12.148 -0.0816  0.1928  0.0341
22904W        W41108   7.526   1.751   1.082 -0.1764  0.0654  0.0141
22905W        W41109  13.258  12.436  12.503  0.0514  0.2309 -0.2577
22906W        W41110   1.741  16.214  13.135  0.1678 -0.1195  0.1312
22907W        W41111   8.712   0.538  15.558  0.3671  0.0281 -0.0771
22908W        W41112   8.269   0.691   1.747 -0.2577 -0.0394 -0.2366
22909W        W41113  10.584   2.520  13.100 -0.1613  0.3312 -0.1718
22910W        W41114  11.856  12.105   0.583 -0.1057  0.0345 -0.1020
22911W        W41115  17.743   2.299   2.309 -0.1950  0.3404  0.4622
22912W        W41116   9.903  13.399   0.277  0.0699  0.0321 -0.0670
22913W        W41117   2.578   0.727  12.059  0.1054 -0.1434  0.2994
22914W        W41118   6.930  12.056   1.452 -0.0001 -0.0620 -0.1217
22915W        W41119   2.719   3.052  15.141  0.1742 -0.0961  0.0565
22916W        W41120  11.087   1.007  11.655  0.0817 -0.0454 -0.2939
22917W        W41121   2.979   1.274  11.477  0.1679 -0.1897  0.0928
22918W        W41122  18.128   2.219  11.771  0.0219 -0.2279  0.1341
22919W        W41123  10.022  17.454  13.373  0.1155 -0.1005 -0.1144
22920W        W41124  10.386   2.457   1.501 -0.2315  0.0843 -0.1343
22921W        W41125   2.889  11.067  11.482  0.1178  0.1376 -0.0091
22922W        W41126  17.946   3.425  12.408 -0.0568 -0.1396  0.1255
22923W        W41127   6.712  11.591  15.720  0.2150 -0.1134 -0.0535
22924W        W41128   4.918   2.798   1.429 -0.0631 -0.1086  0.1281
22925W        W41129  11.889   8.100  13.303  0.0461 -0.0270  0.0242
22926W        W41130   2.266  10.091  12.144  0.1451  0.0804 -0.0101
22927W        W41131   8.497   6.372  14.248  0.0546  0.0776 -0.0297
22928W        W41132  13.790   4.596  11.214  0.2564 -0.0228  0.0368
22929W        W41133  15.063   4.276   0.555  0.1118  0.0757 -0.0352
22930W        W41134  11.189   6.982   0.641 -0.1284  0.1242  0.3492
22931W        W41135   0.132   3.846   1.355  0.2264 -0.1604  0.0873
22932W        W41136  13.277  16.747  13.182  0.0705  0.1460 -0.0300
22933W        W41137   9.822   1.656  10.633 -0.3703 -0.0496  0.0552
22934W        W41138   9.564  12.561  14.272  0.0423  0.1380 -0.0418
22935W        W41139  17.593  11.000  12.052  0.3265 -0.1166  0.3412
22936W        W41140  12.345   2.386  11.122 -0.1587 -0.2012  0.1814
22937W        W41141   1.976  12.554  14.255 -0.0699  0.0066 -0.2414
22938W        W41142   5.805   1.282   1.431 -0.0157  0.1758 -0.0819
22939W        W41143   7.257  12.287  14.575  0.1898 -0.0623 -0.1139
22940W        W41144   7.955  11.232  12.034  0.1564 -0.1122  0.2266
22941W        W41145  12.577   5.027  10.764 -0.1851 -0.0859  0.4163
22942W        W41146  11.618  15.394  10.943  0.1395  0.0301 -0.2419
22943W        W41147   0.513  12.870   2.373 -0.1585  0.0938  0.0137
22944W        W41148   9.386   1.559  13.882  0.0683  0.2335 -0.1194
22945W        W41149  15.739   3.523  12.985 -0.0041  0.0480  0.1874
22946W        W41150   4.100   1.834   1.273 -0.0019 -0.3105  0.1338
22947W        W41151  12.748   9.210   2.689  0.0292 -0.1051 -0.0557
22948W        W41152   4.128   5.441   1.487 -0.0022 -0.0874 -0.2397
22949W        W41153  10.157  12.016   5.998 -0.1403 -0.3244  0.0932
22950W        W41154   4.962   6.961   1.989  0.2314  0.1862  0.2062
22951W        W41155  17.666   7.009   2.564  0.0101  0.0931  0.0493
22952W        W41156   4.680  13.771   1.212  0.1968 -0.1503 -0.0410
22953W        W41157  16.308  17.551   3.055  0.0587 -0.0852 -0.2212
22954W        W41158  11.905   8.121   5.363 -0.0539  0.0849 -0.2444
22955W        W41159  13.012  17.900   2.008 -0.2144 -0.1056 -0.1628
22956W        W41160  17.831  13.877   1.706  0.0094 -0.2018 -0.1702
22957W        W41161   6.877  18.274  14.219  0.2042  0.0907  0.0532
22958W        W41162   9.755  14.832   1.137  0.0253  0.0114 -0.0796
22959W        W41163   2.330  16.271   2.991 -0.2814 -0.0159 -0.0660
22960W        W41164  11.536  11.881   1.564 -0.0346  0.0867 -0.0062
22961W        W41165   2.089   3.146   4.359  0.0725 -0.1715  0.0175
22962W        W41166  14.358   3.811   4.050 -0.3876 -0.0379 -0.0260
22963W        W41167  10.589   3.818   4.460 -0.2936  0.0437 -0.1464
22964W        W41168  12.533   0.128   0.083  0.2333 -0.1455 -0.1564
22965W        W41169  11.839   8.499   0.311  0.1987 -0.3150  0.1068
22966W        W41170   8.661  13.157   0.376  0.1507 -0.0095 -0.0590
22967W        W41171  11.024  10.915   4.789  0.0453 -0.0882 -0.1390
22968W        W41172   3.777  16.777   1.176  0.2342 -0.3373 -0.1903
22969W        W41173   7.675  10.465  11.734 -0.2802 -0.2514 -0.0209
22970W        W41174   0.846   5.846   2.978  0.3114 -0.0085  0.2344
22971W        W41175  14.643   9.011   0.515 -0.0182  0.3865  0.2004
22972W        W41176  14.814   2.928   0.610 -0.2130  0.2399 -0.2720
22973W        W41177  16.113  10.272   5.683  0.0645 -0.1936 -0.1280
22974W        W41178  15.350   3.989   4.595 -0.2750 -0.0473 -0.0174
22975W        W41179   1.958  10.152   3.404 -0.0756  0.1034 -0.4174
22976W        W41180  14.794  14.918  15.271  0.1561 -0.0551 -0.0183
22977W        W41181   7.405  12.887   3.914  0.2186  0.0908  0.3225
22978W        W41182   4.173   1.629   1.884 -0.0325  0.0215  0.1404
22979W        W41183   8.074   3.779  13.051 -0.2937 -0.1817 -0.0569
22980W        W41184   9.396  13.735   4.369 -0.0127  0.0164  0.0322
22981W        W41185   5.342   5.895   3.659  0.0579 -0.3734 -0.1009
22982W        W41186  14.141   7.499  15.426 -0.0973  0.2493 -0.0391
22983W        W41187  13.890  12.222   1.472 -0.1844  0.3054  0.1063
22984W        W41188   4.916   8.079   4.517 -0.1599  0.4012  0.0282
22985W        W41189  17.913  18.340  14.608 -0.2590 -0.2247 -0.1255
22986W        W41190  12.704   4.015   3.862  0.2366  0.2448 -0.0696
22987W        W41191  13.848   3.507   1.629  0.2366  0.0868 -0.1737
22988W        W41192  18.140   0.374  14.164  0.1312  0.1576  0.2041
22989W        W41193  10.899   4.996   4.507  0.1853  0.3182 -0.1478
22990W        W41194   9.857   4.786   4.924  0.0198 -0.1175 -0.1828
22991W        W41195  10.616   3.450   2.379 -0.1267  0.1375  0.2322
22992W        W41196   3.880   1.690   4.177  0.2303  0.2231 -0.3214
22993W        W41197   6.540   6.299   0.982 -0.0561  0.2220 -0.3076
22994W        W41198  15.746   9.033  10.134 -0.1081  0.2346  0.1036
22995W        W41199  12.103   0.258   1.378 -0.1268  0.0789  0.0258
22996W        W41200  10.189   6.158   2.368 -0.2160 -0.0732 -0.0735
22997W        W41201  11.727   4.630  12.179 -0.0893  0.0787 -0.2450
22998W        W41202   7.689  10.139   0.624  0.0418  0.1150 -0.0257
22999W        W41203   7.240  12.449  12.886 -0.2194  0.2743  0.2420
23000W        W41204   5.960  14.708  13.118 -0.3556  0.2182 -0.0505
23001W        W41205   0.693   5.140   3.094 -0.1811 -0.0399  0.1544
23002W        W41206  11.311  11.149   4.201  0.0482  0.1932 -0.0453
23003W        W41207   5.873  11.425  14.971  0.0926  0.1023 -0.1267
23004W        W41208  14.259  16.929  13.530  0.2824  0.2154 -0.1111
23005W        W41209  10.356   8.405   4.642  0.1553  0.1820  0.0351
23006W        W41210   2.656   8.665  13.964  0.1338 -0.2984 -0.2607
23007W        W41211  11.229   2.321  14.126  0.2089 -0.0651  0.0623
23008W        W41212   5.938   6.665   1.095 -0.1007 -0.2664 -0.3114
23009W        W41213   5.245  11.589   2.283  0.0392 -0.1278  0.1784
23010W        W41214   4.705   4.834   2.790  0.1641  0.0315  0.0796
23011W        W41215  15.499  15.092  11.061 -0.0325 -0.1953 -0.1502
23012W        W41216   4.349   2.072  12.324 -0.0555 -0.1308  0.0730
23013W        W41217   9.102  16.922   3.602 -0.1984 -0.0969 -0.3091
23014W        W41218  17.545  17.366  13.441  0.1583 -0.0799 -0.0496
23015W        W41219   5.975   7.690  12.753 -0.1904  0.2455  0.1030
23016W        W41220   5.257  17.325   1.618 -0.3631  0.1280 -0.1990
23017W        W41221  12.675   3.057  11.957 -0.1581 -0.1694 -0.1240
23018W        W41222   9.571  12.047  11.107  0.0020 -0.0883 -0.2744
23019W        W41223   9.738  15.935   0.391 -0.0757 -0.0178 -0.1597
23020W        W41224  17.064  17.235   4.243 -0.1288 -0.2119 -0.2177
23021W        W41225  16.268   3.531  15.152  0.0928  0.0248  0.1773
23022W        W41226   3.717  15.852  11.142  0.1017  0.0544  0.0539
23023W        W41227   0.800   0.771  15.577  0.0540  0.1521  0.0871
23024W        W41228   8.293   6.331  12.295 -0.2328 -0.2922  0.1253
23025W        W41229  15.955   8.979   4.345 -0.2392 -0.0599  0.2191
23026W        W41230   5.231   8.710  14.785  0.1006 -0.1101  0.2165
23027W        W41231  17.298   3.742   2.959 -0.2703 -0.0671  0.1679
23028W        W41232  17.996   2.428   3.831 -0.0100  0.2206  0.2081
23029W        W41233   0.475  14.443   5.796  0.0919  0.2104 -0.0606
23030W        W41234   8.646   9.155   3.950  0.0262 -0.0524 -0.2299
23031W        W41235   8.386   9.910  11.476  0.0803 -0.2946 -0.1650
23032W        W41236   5.184   3.975   2.661 -0.1122 -0.0012 -0.2668
23033W        W41237   9.463  11.127   4.333 -0.0029  0.0334  0.2360
23034W        W41238   0.916   9.978  12.753 -0.2866  0.0553  0.0757
23035W        W41239   5.192   0.239   0.349 -0.3790  0.3069  0.1609
23036W        W41240   6.729   0.159  13.384 -0.1586  0.1174  0.2455
23037W        W41241   3.968   4.539  10.745  0.0911  0.1226  0.0428
23038W        W41242  12.070   5.116   3.288  0.1781 -0.4089  0.1025
23039W        W41243   2.715   6.518   1.123 -0.0162 -0.1156 -0.0628
23040W        W41244   9.407  14.111   4.717 -0.0018  0.1071 -0.1305
23041W        W41245  12.453   9.356  15.713 -0.2297  0.0775 -0.1023
23042W        W41246   2.376   1.646   3.751 -0.3598  0.0360  0.0094
23043W        W41247  16.984   1.448  13.486  0.1146  0.2880 -0.0469
23044W        W41248   5.880  18.164  13.308  0.0112  0.1435  0.2108
23045W        W41249   5.428  16.516   1.535  0.4234  0.2325 -0.0234
23046W        W41250  17.847   4.016   4.527 -0.0695 -0.0630  0.1846
23047W        W41251   4.772   1.264   2.797  0.0450 -0.1370 -0.1352
23048W        W41252  10.508  10.709  14.179  0.0909  0.0788  0.0903
23049W        W41253   3.115   4.752   0.987 -0.0436 -0.0262 -0.0005
23050W        W41254   1.111  15.708  15.457 -0.2257 -0.1847 -0.1616
23051W        W41255  16.309  10.566   2.512 -0.1186 -0.2303  0.1245
23052W        W41256  17.783   4.243  14.312 -0.1145 -0.2329  0.3049
23053W        W41257   3.161  14.984   0.110 -0.1321  0.1806 -0.1443
23054W        W41258  12.199   7.829  14.609  0.2700  0.3028 -0.0834
23055W        W41259  12.603   5.820  12.370 -0.2320  0.0974  0.0041
23056W        W41260  16.008   7.316  11.404 -0.0882 -0.0434 -0.0831
23057W        W41261   6.956  12.149  13.297  0.4129  0.0206  0.0711
23058W        W41262   4.906  13.686   9.916  0.1349  0.0483  0.2811
23059W        W41263   1.414  18.047   4.555  0.0415 -0.0308 -0.0516
23060W        W41264   2.542  10.190  14.916  0.0013 -0.0618  0.0157
23061W        W41265   8.582   2.562   4.586  0.1283  0.2046 -0.1193
23062W        W41266  12.977   8.663  12.093  0.0331 -0.1188 -0.1417
23063W        W41267  13.642   0.391   2.262 -0.3361 -0.0730  0.0368
23064W        W41268   1.677   1.318  14.395 -0.0240  0.0151  0.0854
23065W        W41269  10.917   4.902   3.642  0.0451  0.0191 -0.4562
23066W        W41270   8.183   2.979   3.363 -0.0951  0.1230 -0.3135
23067W        W41271  14.742   1.267   3.937 -0.0694  0.0855  0.4805
23068W        W41272   7.102   4.404  13.277  0.1980  0.0252  0.0009
23069W        W41273   9.846   7.718  11.787 -0.0025  0.1019 -0.1114
23070W        W41274  17.420   1.533   0.180 -0.1817  0.0016  0.2099
23071W        W41275  11.673   9.924   0.916  0.4022 -0.1421 -0.0735
23072W        W41276   0.887  12.164   2.551  0.0224  0.1133  0.2517
23073W        W41277  11.420  13.342  13.935 -0.2719  0.0667 -0.2361
23074W        W41278  14.777  15.092   5.568  0.1205  0.2223  0.0620
23075W        W41279   9.426   6.654   0.727 -0.1374  0.1429 -0.0856
23076W        W41280   8.253   3.177   0.423  0.0484  0.1081 -0.1371
23077W        W41281  18.171   7.775   2.416 -0.1055 -0.3586 -0.2153
23078W        W41282  14.846   3.465   4.147  0.1270  0.2276 -0.2809
23079W        W41283   8.098   1.676   5.353 -0.1649  0.0957  0.2657
23080W        W41284  15.005  14.265  14.785 -0.1135 -0.1905 -0.0686
23081W        W41285   8.444  10.589   1.816  0.0175 -0.0397  0.0841
23082W        W41286  13.574   9.146   1.808 -0.0815  0.1477 -0.2970
23083W        W41287   1.495  14.304  11.999  0.1224  0.0552  0.0022
23084W        W41288   1.894   5.685   0.487  0.1967 -0.0706 -0.0119
23085W        W41289   5.328   2.455   1.305  0.1580  0.0230 -0.1982
23086W        W41290  14.670   1.722   3.807  0.0187  0.3483  0.4199
23087W        W41291   8.434   3.582  11.608  0.0099  0.0007 -0.2243
23088W        W41292   5.109   4.014   2.081 -0.0536 -0.2446  0.3398
23089W        W41293  17.591   0.362  12.861  0.0672  0.1653  0.1292
23090W        W41294  15.376   8.561   5.733  0.0376  0.0879 -0.3461
23091W        W41295  16.236  17.188   3.460  0.1404  0.1740 -0.2080
23092W        W41296   0.107  13.231  12.023  0.2415 -0.0796 -0.2673
23093W        W41297   5.992  12.228  13.949  0.0147 -0.1094 -0.0421
23094W        W41298   8.807   8.441   0.494 -0.0170  0.1604  0.1080
23095W        W41299  15.962   5.916  11.511 -0.2324  0.2246  0.2226
23096W        W41300   3.313   7.351   1.833 -0.1400  0.1257 -0.0883
23097W        W41301   4.946   0.900   2.470 -0.0123 -0.2418  0.1385
23098W        W41302  13.404   0.653   3.986 -0.2544  0.1969  0.3518
23099W        W41303   3.324  11.328   0.211  0.0575  0.1014  0.0697
23100W        W41304   9.042   9.516  13.926  0.2013  0.0855 -0.0072
23101W        W41305   8.447  11.618  14.251  0.3871  0.1810 -0.2787
23102W        W41306  10.989   3.050  15.281  0.1587  0.2632 -0.0768
23103W        W41307  10.770  17.894  11.313  0.1142  0.1260  0.1164
23104W        W41308   8.371  14.642  15.184  0.0178 -0.2014 -0.1399
23105W        W41309  12.597   9.937  13.510 -0.3369 -0.0488  0.0504
23106W        W41310  17.261  17.332  12.550  0.1085 -0.2983  0.0385
23107W        W41311  13.837  12.140  13.351  0.0461 -0.2292  0.0834
23108W        W41312  13.317   6.788  14.906  0.0350  0.0203 -0.2581
23109W        W41313   5.303  11.374  12.190 -0.0057  0.5044  0.1631
23110W        W41314  17.701  17.670  12.505  0.1496 -0.3610  0.0272
23111W        W41315   8.436   4.394   4.077  0.0705 -0.1266 -0.4496
23112W        W41316  13.390   1.170   2.971  0.0672 -0.1940 -0.2246
23113W        W41317   1.721   0.006   0.898  0.2465  0.0833 -0.1254
23114W        W41318   2.645   5.337  14.035  0.2994  0.4004  0.2186
23115W        W41319   6.014   5.704  15.466 -0.0240  0.1306  0.0558
23116W        W41320  10.167   2.034  14.889  0.1504  0.1198  0.3136
23117W        W41321  15.248   9.045  13.878 -0.0823  0.2473 -0.1672
23118W        W41322   9.709   0.669   2.453  0.1426  0.3805  0.0850
23119W        W41323  12.682   8.985  11.167 -0.0177 -0.0377 -0.1549
23120W        W41324  17.279  17.531   1.735 -0.3172  0.0436 -0.1736
23121W        W41325  10.786   6.404  14.898  0.1169 -0.1198 -0.1018
23122W        W41326  12.175  15.954   2.623  0.2585  0.0831 -0.1235
23123W        W41327  14.644   6.608   0.358  0.0161 -0.0259  0.0808
23124W        W41328  16.861   4.173   0.146  0.2273 -0.2572 -0.1366
23125W        W41329   7.420   5.055   3.383  0.0500 -0.0388 -0.1100
23126W        W41330   8.141   3.429  11.180 -0.0096 -0.0822 -0.0716
23127W        W41331  15.510   1.726   2.258  0.2289  0.2647  0.2452
23128W        W41332   9.738  14.542   3.725  0.0807 -0.0196  0.0674
23129W        W41333   7.994  10.125   4.439 -0.3566 -0.0025 -0.2352
23130W        W41334   5.957   6.215   4.793  0.0475 -0.0825 -0.0427
23131W        W41335  11.694  15.648  14.621 -0.0883  0.0815 -0.0011
23132W        W41336  14.919   1.595   2.459  0.2271  0.0932  0.1691
23133W        W41337  10.967  11.819   1.745  0.1875  0.2620  0.2314
23134W        W41338   7.954  16.489  15.469 -0.2279  0.0797 -0.0538
23135W        W41339   9.841   4.690  12.056  0.2555 -0.2169 -0.0618
23136W        W41340  16.568   8.689   0.095  0.0942  0.1406 -0.0383
23137W        W41341  14.300  11.298  13.790 -0.0597 -0.0085 -0.0364
23138W        W41342   3.724   7.432  10.572  0.0317  0.1516 -0.3565
23139W        W41343   7.136   6.381  11.041  0.1594 -0.1119  0.2761
23140W        W41344   1.015   1.322   3.287  0.0646 -0.1277  0.0268
23141W        W41345   0.855   0.390  14.672  0.1344  0.2591 -0.0328
23142W        W41346  16.208  13.431  10.111 -0.0903  0.1003  0.0203
23143W        W41347   5.315   4.331   1.746 -0.0412 -0.0375 -0.2980
23144W        W41348  15.472  14.653   4.587  0.4608 -0.0172 -0.2045
23145W        W41349  17.588  14.535  15.549 -0.0052 -0.0894  0.1050
23146W        W41350   9.318   1.184   1.853  0.1188  0.0150 -0.1405
23147W        W41351  14.511  11.107   1.955 -0.2272  0.4448 -0.2770
23148W        W41352  12.529  13.169  10.010  0.0717  0.2602  0.0762
23149W        W41353  16.359   5.077   0.726 -0.3224  0.1393  0.2264
23150W        W41354  12.456   9.494   3.163 -0.0948 -0.0051 -0.1141
23151W        W41355   7.079   8.774   3.280 -0.0234  0.2467 -0.1998
23152W        W41356   9.376  14.491   1.488 -0.0960 -0.1846 -0.3897
23153W        W41357  11.222   6.881  14.041  0.2049 -0.1031 -0.2441
23154W        W41358  14.149  17.035  12.335  0.3694 -0.2905 -0.3445
23155W        W41359   8.529  11.267  13.237  0.1658 -0.0158  0.2329
23156W        W41360   4.879   0.676  12.035 -0.2794  0.1652  0.1406
23157W        W41361  17.219   0.303  13.299  0.1042  0.4168 -0.1062
23158W        W41362   5.991   4.228   1.222  0.0361 -0.5319 -0.0955
23159W        W41363  16.988   8.035  12.686  0.0200  0.3048 -0.2001
23160W        W41364   8.132  13.715   0.024  0.2036 -0.0922 -0.2455
23161W        W41365  13.433   9.861   2.295 -0.3040 -0.0917  0.2864
23162W        W41366   7.350  17.776   1.896 -0.0959  0.0364  0.0170
23163W        W41367  11.364  12.957  15.568 -0.0979 -0.0942  0.1013
23164W        W41368  10.514   5.309   4.416  0.0573  0.0463  0.0919
23165W        W41369   8.666  17.458   1.814  0.1073 -0.2170  0.0574
23166W        W41370  15.630  17.351   4.148  0.1894  0.1323  0.1526
23167W        W41371   0.457  17.112   0.633  0.0026  0.3202 -0.1339
23168W        W41372   8.879   2.365  11.402 -0.1943  0.0198 -0.3470
23169W        W41373  15.875  15.900  11.446 -0.2629 -0.0684 -0.1699
23170W        W41374  11.181   7.461  12.051  0.1000  0.1849  0.2878
23171W        W41375   2.455   9.694  14.894 -0.2069  0.1230  0.1302
23172W        W41376   3.461   7.672   2.241  0.2217 -0.0209  0.1276
23173W        W41377   9.692  13.903   2.806 -0.2412  0.2951 -0.1901
23174W        W41378   0.204  17.949   0.691 -0.1471 -0.2151  0.3647
23175W        W41379   3.138  15.238   2.344 -0.0602  0.0790 -0.0012
23176W        W41380  14.173  13.529   1.906 -0.0425 -0.1520  0.2359
23177W        W41381  12.933  18.245  14.193 -0.1634 -0.3462  0.2218
23178W        W41382   5.152   2.082   1.712 -0.0498 -0.1334  0.1063
23179W        W41383  13.296   4.954   3.090 -0.0615 -0.1855  0.1834
23180W        W41384   0.778   1.272   2.383  0.3360 -0.0229  0.0233
23181W        W41385  11.147   6.359   1.828  0.0150 -0.2833  0.0232
23182W        W41386   0.220   6.800  13.625 -0.2131 -0.1701  0.2260
23183W        W41387   8.763   1.805  15.210  0.0997 -0.0078 -0.1426
23184W        W41388   0.077  12.551   4.165  0.0942  0.0819  0.1862
23185W        W41389   5.550   9.578   2.565 -0.0424  0.0339 -0.3644
23186W        W41390  13.984   3.198  15.602 -0.0566 -0.2181 -0.1379
23187W        W41391   0.666  14.915  15.454 -0.1519 -0.0778 -0.1067
23188W        W41392   6.686  11.832  14.323  0.0483  0.2029 -0.2655
23189W        W41393  13.076  12.747  13.517 -0.0829  0.1922  0.1059
23190W        W41394   8.728  12.655   2.102 -0.1380  0.0497 -0.0152
23191W        W41395   0.106   6.694  11.382  0.0252  0.0124  0.0654
23192W        W41396  14.815  10.711  14.483 -0.0672 -0.2201  0.4986
23193W        W41397  15.295  13.329  14.754 -0.0732 -0.0542 -0.1585
23194W        W41398   3.005   9.432   3.183  0.1698  0.0819  0.0990
23195W        W41399   2.495   1.591  11.466 -0.1031  0.1069  0.1018
23196W        W41400   2.338  15.626   2.411  0.1167  0.4380  0.1663
23197W        W41401   4.338   1.575  10.285 -0.1191  0.2165 -0.2336
23198W        W41402   9.681  17.201  11.092 -0.0106  0.3781 -0.1823
23199W        W41403   2.701  12.863  15.059 -0.0594  0.2337  0.1933
23200W        W41404  18.153  16.488   1.090  0.0732  0.1571  0.0855
23201W        W41405   2.696  15.032  15.081  0.2360 -0.3000 -0.3957
23202W        W41406  15.150   8.417   1.614 -0.2604  0.0868  0.0496
23203W        W41407   1.814  12.155   0.166  0.3525 -0.0488 -0.1233
23204W        W41408  16.740   4.524   3.257  0.0763 -0.0781 -0.4333
23205W        W41409   2.205   8.329  14.219 -0.0159  0.3247  0.0973
23206W        W41410   7.679  10.115   2.819 -0.2383  0.0884 -0.0196
23207W        W41411  18.009   0.915  11.028  0.2491  0.1533  0.1442
23208W        W41412  15.849  17.486   2.731 -0.0244  0.1789  0.1646
23209W        W41413   2.980  10.561   1.777 -0.1959  0.0167  0.4552
23210W        W41414  15.996   4.058   1.477  0.0095 -0.0546 -0.0383
23211W        W41415   6.844  17.150   0.618  0.2510  0.2019  0.0816
23212W        W41416   1.175  11.415   3.504 -0.1053  0.1201  0.3190
23213W        W41417  12.035   4.144  12.295  0.0469 -0.3596 -0.0612
23214W        W41418  13.012  12.475   4.578 -0.0061  0.0591 -0.0380
23215W        W41419   5.027  13.112  13.163  0.3517  0.0110 -0.0461
23216W        W41420   7.520  15.739  14.944 -0.1578  0.0833  0.0570
23217W        W41421   8.661   4.301  11.985 -0.1202 -0.2834 -0.2597
23218W        W41422  14.401   4.558   3.309  0.0994  0.2181  0.0662
23219W        W41423  12.823  13.168  13.292 -0.0644  0.0531 -0.1909
23220W        W41424   8.732  10.014   3.330  0.1955  0.0242 -0.1045
23221W        W41425   2.854  16.146  14.473 -0.2896 -0.0103  0.1021
23222W        W41426  15.338   2.853   4.648  0.2121  0.1619 -0.2575
23223W        W41427   9.166   7.922  12.705 -0.1799 -0.2181  0.0980
23224W        W41428  11.592  18.350  14.422  0.1459  0.2024 -0.0032
23225W        W41429  11.944   9.118  14.827 -0.1647 -0.1677  0.2522
23226W        W41430  16.130   6.447   2.420  0.1278 -0.0838 -0.2720
23227W        W41431   3.455   9.818   4.465  0.1779  0.0923 -0.1065
23228W        W41432   8.952  13.435  14.967  0.1226  0.1382 -0.1293
23229W        W41433  11.152   2.905  14.242 -0.5566  0.3244  0.0097
23230W        W41434   0.218  15.177  12.679  0.1309 -0.0649  0.0107
23231W        W41435   9.990   3.564   4.188  0.2210 -0.2311 -0.0460
23232W        W41436   5.188   9.173   2.567 -0.1656  0.0391 -0.1748
23233W        W41437  12.141  11.053  10.549  0.0192  0.2977 -0.0706
23234W        W41438   8.908   0.037   1.769  0.1997 -0.0472 -0.1248
23235W        W41439   8.830   3.900   4.674 -0.1391  0.0399  0.1259
23236W        W41440   8.015  10.917   4.063 -0.2159  0.0494  0.2444
23237W        W41441  18.113  13.034  12.768 -0.1873  0.1514  0.0065
23238W        W41442  11.662  18.132   0.057 -0.1352  0.0104  0.0269
23239W        W41443  10.815   0.419   0.207  0.0761 -0.0638 -0.1066
23240W        W41444   0.845  11.064  12.788  0.1815  0.0962  0.1411
23241W        W41445   7.542   8.437  12.121  0.0258  0.1070  0.0618
23242W        W41446   2.953   1.681  12.319  0.2523  0.2251  0.1122
23243W        W41447   2.641   4.874  15.306  0.1005  0.0242  0.0483
23244W        W41448  17.421   8.375  11.526  0.1494 -0.0587  0.0331
23245W        W41449  11.043   7.969  12.122  0.0346 -0.0266 -0.3245
23246W        W41450   6.987  13.578   0.209 -0.0397 -0.3246 -0.4738
23247W        W41451   0.381   5.614   5.486 -0.1969  0.2785 -0.1900
23248W        W41452  12.347   3.892   4.240  0.1440 -0.2393 -0.2600
23249W        W41453   3.740   8.415   1.872  0.3726  0.2414  0.0824
23250W        W41454  12.338   9.560  14.226  0.1079 -0.3491 -0.0943
23251W        W41455  17.706  17.014   2.575 -0.0114 -0.1589  0.2412
23252W        W41456   3.428  12.201  15.179  0.0259  0.1703 -0.2608
23253W        W41457  12.819   4.893  14.893  0.1445 -0.1309  0.4862
23254W        W41458   7.198   5.834  15.022  0.2409  0.0611  0.1660
23255W        W41459   5.008  12.087  13.204  0.0506 -0.1520  0.1242
23256W        W41460  18.030   2.856  14.239 -0.1213  0.2581 -0.3068
23257W        W41461  11.406  11.948   0.575 -0.0709  0.1774 -0.0483
23258W        W41462   1.130   8.282  15.392  0.0598  0.3918  0.4384
23259W        W41463   8.133  12.038   4.691 -0.0854  0.2993  0.1590
23260W        W41464   9.602   8.885   3.069  0.3844 -0.0041  0.1553
23261W        W41465   8.565   3.112  13.543 -0.2763  0.1566 -0.1986
23262W        W41466   5.921  13.851   4.059  0.0850 -0.1544 -0.0304
23263W        W41467  12.266  15.381  14.464  0.0133 -0.1435  0.2329
23264W        W41468   6.360  12.060  15.552  0.1130 -0.0654  0.0474
23265W        W41469   8.547   5.266   1.585  0.0975  0.2373 -0.0664
23266W        W41470   4.996   1.127   4.675  0.3082  0.1896  0.2343
23267W        W41471  13.030   1.021   1.943 -0.0100 -0.1846 -0.1227
23268W        W41472   8.686  16.004   4.713  0.0493 -0.1049 -0.0778
23269W        W41473  18.259  16.759  11.651 -0.2215  0.0241  0.0857
23270W        W41474   7.981  12.426   3.165  0.1717 -0.0609  0.0153
23271W        W41475   7.065   3.330  13.258  0.2501 -0.0648 -0.1915
23272W        W41476   1.371   1.317  14.813  0.0593  0.2272  0.1502
23273W        W41477  15.587   1.643  12.918  0.0475 -0.1155  0.1036
23274W        W41478   7.291  13.398  15.441  0.1653  0.2578 -0.1838
23275W        W41479   5.560   9.949  12.375  0.0332 -0.0287 -0.0511
23276W        W41480  12.151  16.955  14.959  0.3261  0.0679  0.4140
23277W        W41481   5.917  12.400  14.909 -0.2581  0.2786  0.3531
23278W        W41482  15.728  18.092  13.504 -0.2309  0.1377 -0.1465
23279W        W41483  18.054   1.921   0.780  0.1879  0.0101 -0.0555
23280W        W41484   9.825   7.780  13.575  0.2414  0.2365  0.1865
23281W        W41485  12.585   9.071  10.478  0.0867  0.2406 -0.0039
23282W        W41486  17.802   4.312   1.953  0.5128  0.1965 -0.0707
23283W        W41487   6.553   1.833   4.279  0.1037 -0.0338 -0.0167
23284W        W41488   3.045   7.677  14.405 -0.1332 -0.3598  0.3100
23285W        W41489   6.797   5.926   0.612 -0.1681 -0.1962  0.1023
23286W        W41490  16.512  11.105  15.381 -0.3329 -0.1406 -0.2294
23287W        W41491   1.588   3.841  15.617 -0.1278  0.1303 -0.0242
23288W        W41492  11.765   6.519  12.469 -0.2752 -0.2414  0.3188
23289W        W41493  13.416   9.883   3.588 -0.3947  0.1134 -0.1600
23290W        W41494   5.925  14.830   4.350 -0.3029  0.0947  0.0488
23291W        W41495  16.276   5.726  11.952  0.3051 -0.0585  0.1002
23292W        W41496   4.097  14.148   3.923  0.0106  0.1309 -0.1955
23293W        W41497  15.996   1.011   3.354 -0.0636 -0.1907  0.0200
23294W        W41498  15.283  14.271   4.315 -0.0998  0.1825  0.0540
23295W        W41499   6.303   6.864   1.464  0.1085 -0.0647  0.0126
23296W        W41500  12.166   1.817  12.766  0.1309  0.2920  0.0954
23297W        W41501  12.178   9.612   3.728  0.0860 -0.0364 -0.1189
23298W        W41502   0.963  15.573  12.033 -0.0658  0.0107 -0.2031
23299W        W41503   7.850  17.532  13.694  0.0276 -0.1996 -0.3388
23300W        W41504   3.715   6.050  15.508 -0.0226 -0.0381  0.1056
23301W        W41505   8.904  13.661   0.458 -0.1704  0.0939  0.0500
23302W        W41506   3.946   9.104  13.944  0.0075  0.0508  0.0603
23303W        W41507   4.901   7.074  13.011  0.1715  0.2589 -0.2641
23304W        W41508  12.191   2.802   1.277 -0.4412  0.1512  0.1137
23305W        W41509   2.881   7.334  12.657 -0.0269  0.1421 -0.0545
23306W        W41510  15.331  11.181   0.416  0.0630 -0.0069  0.1647
23307W        W41511  18.211  15.569   3.221  0.0084 -0.1249 -0.1130
23308W        W41512   6.727   5.006  14.200 -0.2957 -0.0000  0.1091
23309W        W41513  15.435  12.090   2.855  0.3147 -0.1493 -0.1365
23310W        W41514  10.853  13.428   2.427 -0.2602  0.0405  0.0792
23311W        W41515  16.026   3.162   2.819 -0.3300  0.1069 -0.0792
23312W        W41516  12.254   2.865   3.002  0.1632  0.1487  0.0161
23313W        W41517   0.684  15.796  11.551  0.0593 -0.0636 -0.1013
23314W        W41518  15.260  18.002  11.333  0.2658 -0.0427  0.2083
23315W        W41519  13.948  15.708  13.846  0.2908  0.1480 -0.0935
23316W        W41520   5.378  14.352  12.348 -0.0046  0.1623  0.0321
23317W        W41521   3.172   7.361   2.533  0.4263  0.2020  0.0371
23318W        W41522  14.617   2.130  13.426 -0.1531 -0.0031  0.0704
23319W        W41523   0.000   9.799   1.544 -0.2422 -0.3135 -0.0107
23320W        W41524  11.126  11.119   3.331  0.2735  0.0694  0.1567
23321W        W41525  16.703   2.838   3.753 -0.0523  0.2337 -0.1473
23322W        W41526   3.296   8.691  13.388 -0.1048  0.2338  0.2939
23323W        W41527   4.985  14.622  15.247  0.1400  0.0713 -0.4542
23324W        W41528  10.154   3.703  14.148 -0.2432  0.1138 -0.0639
23325W        W41529  18.095   7.083  12.694  0.2033  0.1717  0.0118
23326W        W41530  12.924  16.197  11.207  0.0672 -0.1293 -0.1481
23327W        W41531  14.952   5.962   1.755 -0.1100 -0.1545  0.2938
23328W        W41532  13.481   3.154  13.302  0.1205  0.1168 -0.0241
23329W        W41533  10.521   0.652   3.233  0.1939 -0.2216  0.0684
23330W        W41534   8.771   6.902   1.397  0.1627 -0.1978 -0.2339
23331W        W41535  14.542   0.164  15.159 -0.1236 -0.1287 -0.1114
23332W        W41536   8.068   8.875  12.838 -0.0657 -0.0678  0.1564
23333W        W41537  11.196   1.629  12.932 -0.0068 -0.4721  0.2376
23334W        W41538  17.775  11.582  11.242  0.3103 -0.0560 -0.0250
23335W        W41539   0.747  12.006  14.394 -0.3791  0.0081  0.1627
23336W        W41540   1.314   7.218   0.480 -0.1392 -0.0652  0.1960
23337W        W41541   4.334  16.983   5.002 -0.0368  0.0128 -0.1268
23338W        W41542   6.308   7.877   1.138  0.0336  0.1511  0.0607
23339W        W41543   7.427  17.284  13.592 -0.1990  0.2262  0.1166
23340W        W41544  17.774   1.373   2.296  0.2414 -0.4633  0.0538
23341W        W41545   7.867   7.441  13.754 -0.0199 -0.0790 -0.0421
23342W        W41546   5.752   2.809   4.732  0.0435  0.0694  0.1203
23343W        W41547   5.534   5.328   0.441  0.0445 -0.0723 -0.0471
23344W        W41548  10.021  14.117   3.929  0.1562  0.2352  0.0606
23345W        W41549   9.147  16.244  13.042 -0.3697 -0.5325 -0.0386
23346W        W41550  11.373   1.707   1.720 -0.0362  0.1937  0.1046
23347W        W41551   7.695  11.109   3.619 -0.1876  0.0525  0.1287
23348W        W41552  17.127   0.354   1.763 -0.2417 -0.1042  0.0745
23349W        W41553   4.131  15.527  12.718 -0.2402 -0.0776  0.2865
23350W        W41554  13.426   5.315  15.588  0.0927  0.2115 -0.0490
23351W        W41555   0.245  11.825  15.686  0.0832  0.2053  0.2030
23352W        W41556   3.995  12.628  12.538 -0.1201 -0.0551  0.2741
23353W        W41557   0.683   1.773   2.311 -0.0670 -0.0493 -0.1979
23354W        W41558  17.351   4.675   3.902  0.1929  0.1149 -0.1240
23355W        W41559   3.618  15.836  13.625 -0.2087  0.1080 -0.0842
23356W        W41560  10.554   7.504   4.566 -0.2958 -0.0435 -0.0821
23357W        W41561  14.296   4.792   1.799 -0.1117 -0.1714 -0.0057
23358W        W41562   0.984  11.206   2.517  0.1733  0.1056  0.1167
23359W        W41563  16.134   7.036   2.833 -0.3203 -0.2756 -0.0292
23360W        W41564  13.488   4.626  13.263 -0.1193  0.3915  0.1007
23361W        W41565  13.387   2.233  13.104  0.0858  0.0578 -0.1165
23362W        W41566  13.764   7.217  13.383  0.1122  0.2519 -0.1514
23363W        W41567   3.610   1.002   0.918  0.2482  0.2094  0.0890
23364W        W41568   4.589  15.014  15.107 -0.2348 -0.1640  0.4218
23365W        W41569   5.482  15.128   4.606 -0.0220 -0.2615  0.1244
23366W        W41570   2.083   2.774   3.518 -0.0095  0.3116  0.0337
23367W        W41571   5.492   1.939  14.351 -0.2520  0.0348  0.0824
23368W        W41572   2.522  12.078  12.105 -0.0610 -0.1971  0.2654
23369W        W41573   9.104  16.108  14.605  0.1839  0.2678 -0.3231
23370W        W41574   9.299   4.421  14.660  0.2287  0.2802  0.0662
23371W        W41575   4.247  16.562  15.228 -0.1011 -0.0950  0.1183
23372W        W41576  17.867  14.262   0.694 -0.1841  0.1631 -0.0728
23373W        W41577  16.269   1.258   2.494 -0.1134  0.1980  0.1789
23374W        W41578   8.475   8.452   5.950  0.1126  0.0610  0.2148
23375W        W41579  16.512   4.177   1.237 -0.0767 -0.3022 -0.0923
23376W        W41580  14.549  11.097   3.684 -0.0702  0.3533  0.4749
23377W        W41581   4.777   5.148   1.508 -0.0001 -0.1521  0.1527
23378W        W41582   6.260   5.461   2.622  0.0987 -0.1255 -0.1751
23379W        W41583  17.148   9.863   2.691 -0.2324  0.0587 -0.0829
23380W        W41584  16.863  17.087   3.719  0.1182 -0.1436  0.1421
23381W        W41585  16.472  14.574  11.193 -0.1078 -0.3472  0.0569
23382W        W41586  15.335   3.731   1.920  0.2715 -0.0518 -0.0618
23383W        W41587  10.446   1.711  14.227 -0.0344  0.0867  0.1817
23384W        W41588  16.941  17.802  13.659  0.3352  0.1034  0.0264
23385W        W41589  12.444   6.337  15.153  0.0334 -0.0810  0.0383
23386W        W41590   1.131  13.027   3.618 -0.3664 -0.2490  0.0589
23387W        W41591   2.834  15.971  11.718 -0.0152  0.0516 -0.0540
23388W        W41592   4.334   1.371   1.411 -0.0346  0.1027  0.2627
23389W        W41593  12.991   7.122  12.576  0.2362 -0.1429  0.1158
23390W        W41594   2.909  15.706  10.775  0.2540  0.1363 -0.2692
23391W        W41595   0.318   7.032  11.760 -0.0361 -0.0126  0.0433
23392W        W41596  16.264   6.996  15.160 -0.0219  0.0336  0.4314
23393W        W41597  15.420  12.524   0.032 -0.2969  0.1554  0.0897
23394W        W41598  12.718  11.224  13.455 -0.0504  0.0897 -0.0397
23395W        W41599   5.802  11.350  12.368  0.2121  0.0480 -0.1872
23396W        W41600  11.984  12.142  10.056  0.1824 -0.1506  0.1241
23397W        W41601  15.145   1.129  10.959 -0.2581  0.0411  0.1915
23398W        W41602   7.566  14.316   2.998  0.0450  0.1562 -0.2571
23399W        W41603   0.333   4.189   3.391 -0.4667 -0.0761 -0.0124
23400W        W41604   5.842  14.663  14.698  0.0668 -0.0004  0.0487
23401W        W41605   2.788   2.561  13.195 -0.3383 -0.0398 -0.1912
23402W        W41606  13.713  13.090   2.471  0.3493 -0.0840  0.2996
23403W        W41607  11.190   8.838  14.777  0.2664 -0.3245  0.3769
23404W        W41608   7.300   0.839  10.908 -0.2694  0.3354 -0.1407
23405W        W41609   5.235   8.167   0.991 -0.0941  0.1864  0.3116
23406W        W41610   5.054  16.866   1.480  0.3228 -0.0972 -0.2642
23407W        W41611   2.839   5.237   2.706 -0.2859  0.1624 -0.1211
23408W        W41612  18.175  14.646  13.882  0.0978 -0.1603 -0.0569
23409W        W41613   8.286  15.955  12.743 -0.2413 -0.1514  0.0148
23410W        W41614   7.926   9.651   2.949 -0.1591 -0.0082  0.1100
23411W        W41615   4.082   9.592   2.967 -0.1638  0.0242  0.0108
23412W        W41616   5.524  10.831   0.334  0.0082  0.2245 -0.1135
23413W        W41617   0.504   5.005  11.537 -0.3216  0.2549  0.0638
23414W        W41618   2.373   4.711   0.239  0.1287  0.0148 -0.1036
23415W        W41619   4.399  17.465  11.117 -0.0097 -0.0425  0.0325
23416W        W41620  16.100   7.441  10.143 -0.0612 -0.0645 -0.0653
23417W        W41621  13.175   3.678   4.272  0.1031  0.0221 -0.0299
23418W        W41622  16.074  16.556  14.610  0.0772  0.0508  0.2756
23419W        W41623  18.104   8.905  11.059 -0.0727 -0.0154 -0.1713
23420W        W41624  16.858   1.657   3.846  0.3564 -0.0075 -0.1081
23421W        W41625  12.363  18.119   1.870  0.0539 -0.0699 -0.1529
23422W        W41626   6.140   1.038   2.892 -0.0332  0.0862 -0.0038
23423W        W41627  13.241   5.232  11.493  0.1462 -0.0607  0.1111
23424W        W41628  16.147  14.431   2.268  0.0106  0.4577 -0.0899
23425W        W41629  17.123  17.825   0.928  0.1560 -0.0898 -0.0516
23426W        W41630  10.258  17.602   4.766  0.1994  0.4118 -0.1269
23427W        W41631   9.954  18.013  13.498  0.2020 -0.1777  0.1983
23428W        W41632   5.533   3.728  13.180 -0.2598  0.1102 -0.1319
23429W        W41633   8.930   4.703   3.168 -0.0798  0.1806  0.1216
23430W        W41634  16.513  10.302   3.523 -0.2857 -0.0662  0.0962
23431W        W41635   2.954  11.062  14.747 -0.1204  0.1625  0.2582
23432W        W41636  11.338  13.976   1.412 -0.2060 -0.2115  0.2113
23433W        W41637   6.899  17.905   4.178  0.1642 -0.0876  0.0792
23434W        W41638   8.445   9.991  15.323 -0.2350  0.0874 -0.2691
23435W        W41639  11.075   5.293  13.892 -0.2629 -0.0916 -0.0639
23436W        W41640   0.633  16.706  14.264 -0.2217  0.2232  0.2234
23437W        W41641   9.505   9.979  11.661 -0.2203 -0.1932  0.2429
23438W        W41642   8.344  11.879   5.593 -0.1262  0.0045 -0.1524
23439W        W41643  10.135   7.441  15.504 -0.2509 -0.1264  0.0839
23440W        W41644   6.879  16.858  13.025 -0.0385  0.0345  0.1731
23441W        W41645   6.754  18.308  11.424 -0.1783 -0.1953  0.1371
23442W        W41646   1.264   2.925  12.854 -0.0583  0.0373 -0.0940
23443W        W41647   9.805  14.760   2.723  0.0984 -0.3528 -0.1447
23444W        W41648   8.500   4.807  11.516  0.0160  0.0055  0.0724
23445W        W41649   5.458  12.186  13.715  0.0829  0.1059 -0.2547
23446W        W41650  17.891  17.747  13.330 -0.0601 -0.0542 -0.2659
23447W        W41651   8.670  11.454   3.849  0.2045 -0.0680  0.2047
23448W        W41652   8.166   2.022   1.395 -0.2327  0.3429 -0.1389
23449W        W41653   6.691   7.184  11.230  0.2967  0.1967 -0.0980
23450W        W41654  16.008  18.234  13.037 -0.0881 -0.2767  0.0566
23451W        W41655   8.087  17.174   4.179  0.0227 -0.0696 -0.0488
23452W        W41656  14.144  11.978   3.614 -0.0557 -0.0256 -0.1819
23453W        W41657  14.688  13.152  15.353  0.3642 -0.0220  0.1672
23454W        W41658  18.085   1.800  12.133 -0.1483  0.1863  0.0641
23455W        W41659   9.925   7.201   0.574 -0.0874  0.0878  0.3557
23456W        W41660   3.995   6.896  15.173  0.3145 -0.0282  0.0728
23457W        W41661   3.218  14.790   3.229 -0.1750 -0.0557  0.2504
23458W        W41662  16.324   6.972   2.312  0.2809  0.0790  0.2597
23459W        W41663  16.749   6.972  15.263 -0.0048 -0.0044  0.0237
23460W        W41664  12.582  10.104   0.696  0.2368  0.2770 -0.1908
23461W        W41665  15.684   5.160   2.454 -0.0741  0.0863  0.1745
23462W        W41666   2.761   1.580   4.603 -0.6942  0.0556  0.0834
23463W        W41667  10.668  17.142   4.316 -0.0933  0.2438 -0.1684
23464W        W41668   8.798  12.613  11.308  0.1188 -0.0203  0.1547
23465W        W41669   5.380   0.853   3.402 -0.2149 -0.4854  0.0410
23466W        W41670  16.384  10.439   2.969 -0.1408  0.0124  0.4108
23467W        W41671   0.631  15.363   2.564  0.1003 -0.0251 -0.4390
23468W        W41672  18.117   8.486   0.186  0.3496  0.1839 -0.2395
23469W        W41673   2.747   9.298  15.033 -0.0791  0.2384  0.0016
23470W        W41674  11.194  17.424  12.763 -0.1927 -0.1834 -0.0678
23471W        W41675   6.204   6.883   3.204  0.3912  0.1240 -0.1831
23472W        W41676   8.314   1.638  12.817 -0.0330  0.1445 -0.0073
23473W        W41677  17.663  14.633   2.181 -0.2022 -0.0222 -0.0159
23474W        W41678  16.048  18.152   3.841 -0.2460  0.1064  0.1775
23475W        W41679   6.959   3.074   3.877 -0.1358  0.1504  0.0463
23476W        W41680  14.242   0.654   0.075  0.4278 -0.2518 -0.0011
23477W        W41681   8.357  15.302  15.266 -0.1674  0.0386  0.2049
23478W        W41682  14.078   7.470   1.509 -0.1569  0.0581  0.1066
23479W        W41683   7.340  14.627  10.867  0.3483 -0.2993 -0.1467
23480W        W41684   3.298   0.793   4.367  0.2103  0.1671  0.2648
23481W        W41685  14.141  15.414   1.131  0.3151 -0.0746  0.0930
23482W        W41686   2.224  15.628  13.510  0.2019 -0.0634 -0.1599
23483W        W41687   0.842   3.855   4.287 -0.0858  0.1505  0.2481
23484W        W41688   9.619   3.338  12.429 -0.1037 -0.3159  0.0647
23485W        W41689   0.095   0.030   1.545 -0.0086 -0.1577 -0.1071
23486W        W41690   6.764   7.038   1.207  0.0321 -0.3070  0.3671
23487W        W41691  13.693   2.962  10.593 -0.0476 -0.0028 -0.1249
23488W        W41692  14.554   6.876   1.444  0.1637 -0.1117  0.1762
23489W        W41693  16.536  15.452  15.335 -0.3884 -0.1623  0.3067
23490W        W41694   6.796   5.795   1.974  0.0192 -0.1334 -0.0730
23491W        W41695  17.396   7.386   0.232  0.1570 -0.0187  0.3760
23492W        W41696   9.550   6.763   2.019  0.1514  0.1998 -0.1966
23493W        W41697   2.339   0.731   3.666 -0.0539  0.0033 -0.0958
23494W        W41698  17.114  14.229  14.484 -0.1297  0.1464 -0.2315
23495W        W41699   1.101   9.785  14.729  0.0082  0.3470 -0.3017
23496W        W41700  10.948   8.066   0.126  0.1765 -0.1873  0.0900
23497W        W41701   6.784  15.819  14.478 -0.4209 -0.1468 -0.0872
23498W        W41702  11.360   2.364   3.917  0.2893 -0.1774  0.0689
23499W        W41703   3.237  16.464  14.196 -0.2927 -0.2593  0.2976
23500W        W41704  12.513  18.061  11.563 -0.2024  0.2201  0.2536
23501W        W41705   2.353   5.109   2.988 -0.2315  0.0995  0.0106
23502W        W41706   8.804  15.523  15.339  0.0680 -0.1283  0.0795
23503W        W41707   6.249   3.290  15.436  0.4354 -0.0700  0.0550
23504W        W41708  17.072   0.866  11.022 -0.0567 -0.0213  0.0101
23505W        W41709   4.511   2.526  11.041 -0.0071  0.0103  0.3176
23506W        W41710  11.029  17.229  14.714 -0.0266 -0.1851 -0.2766
23507W        W41711  16.883   9.383  12.336  0.0400 -0.2021 -0.3114
23508W        W41712  12.912  18.145   1.563  0.0395  0.0421  0.0133
23509W        W41713  12.626  10.351  12.177  0.2844  0.0593 -0.1511
23510W        W41714   1.716   3.493   3.976 -0.0604 -0.3368  0.1016
23511W        W41715   7.208   2.306   0.271 -0.1082  0.0776  0.0768
23512W        W41716  14.856   6.332  14.948  0.1803 -0.2353 -0.0612
23513W        W41717   3.053   2.417  14.788 -0.1609  0.0750  0.2128
23514W        W41718  11.752  17.292  14.717  0.3075  0.2160  0.1632
23515W        W41719   9.624   2.468   4.921  0.1778  0.0438  0.1590
23516W        W41720   7.680  13.529  11.661  0.1150  0.3607  0.1070
23517W        W41721   3.579  14.673   0.883 -0.1013 -0.1780  0.3101
23518W        W41722   5.276   0.512  11.659 -0.1833 -0.0033 -0.2328
23519W        W41723   8.922   6.683   5.552 -0.0052 -0.1042  0.3169
23520W        W41724   4.208   3.945  12.862  0.0001  0.0531  0.1010
23521W        W41725   6.153   4.436   0.313 -0.2558  0.0024  0.3035
23522W        W41726  12.015  14.864  15.312  0.0162 -0.2156  0.1594
23523W        W41727   8.513  12.109  13.528 -0.0526 -0.0044 -0.0313
23524W        W41728   2.086   3.314  12.292 -0.0882  0.0498 -0.3267
23525W        W41729   3.275  16.502   3.247  0.1877 -0.4023 -0.1477
23526W        W41730   4.055   7.531  13.262 -0.4111  0.2247 -0.0865
23527W        W41731   9.173  15.089   3.398  0.0942 -0.1106 -0.2107
23528W        W41732  12.697   1.875   3.858 -0.0475 -0.0747 -0.0788
23529W        W41733  12.248   5.126  10.363  0.3707 -0.4126  0.1060
23530W        W41734   7.762   9.797   4.721  0.0083  0.2752  0.0546
23531W        W41735   1.399   9.129   4.019 -0.1031 -0.1641  0.1612
23532W        W41736  10.951   7.530   1.710 -0.3122 -0.0737  0.0488
23533W        W41737   4.359   3.414   4.038  0.1136  0.1176 -0.0359
23534W        W41738   8.175  12.290  11.972  0.0139 -0.0667 -0.1488
23535W        W41739   0.877  16.193   3.190 -0.1680 -0.2166  0.1546
23536W        W41740   8.161   6.575   2.682 -0.1586 -0.0820 -0.0133
23537W        W41741  12.208  10.257   1.750  0.2088  0.0343 -0.0931
23538W        W41742   9.709   3.858  15.402  0.1479 -0.1702 -0.0791
23539W        W41743   9.112  15.307  12.854  0.1621  0.0169  0.1188
23540W        W41744   3.831  14.524   1.427 -0.2594 -0.0208 -0.0878
23541W        W41745   9.268   2.259   3.922 -0.0476 -0.1633 -0.1112
23542W        W41746   3.432  10.455   4.149  0.2746 -0.0200  0.1574
23543W        W41747   2.714  18.021  13.202  0.1805  0.0616  0.2012
23544W        W41748   6.796   2.770  14.784  0.2331 -0.2838  0.0778
23545W        W41749   6.674   4.976   1.429 -0.1022 -0.0687  0.1893
23546W        W41750   7.759  10.275   2.331  0.1247  0.0275  0.0761
23547W        W41751   1.308  13.249   1.821  0.1999  0.1195  0.1631
23548W        W41752   4.176   8.035   3.877  0.0607  0.0787  0.3497
23549W        W41753  17.757  15.543  11.577 -0.2509 -0.0552  0.1937
23550W        W41754   7.587   5.586  11.776  0.1956 -0.1261 -0.1160
23551W        W41755   9.183   8.737   0.868 -0.1032 -0.1234 -0.0127
23552W        W41756  16.587   0.921   3.977 -0.1701 -0.1461 -0.0758
23553W        W41757  15.735  16.127  11.015 -0.0068  0.0252 -0.2987
23554W        W41758  15.860  11.259  13.950  0.0774  0.0884 -0.0362
23555W        W41759  11.820   3.280   3.650  0.1839  0.0887  0.2081
23556W        W41760   3.285   9.489  11.225 -0.1160  0.2821  0.1638
23557W        W41761   6.658   6.011  12.136 -0.2786 -0.1729  0.2975
23558W        W41762   2.216  12.017  12.994 -0.3732  0.0034 -0.2776
23559W        W41763   7.954  17.420   2.348  0.1401  0.1456 -0.1972
23560W        W41764   3.840   3.306  10.754 -0.0673  0.1978  0.0811
23561W        W41765  12.683  17.372  12.367 -0.0627  0.3025 -0.0534
23562W        W41766   6.715   3.320   2.029 -0.0649 -0.1469 -0.2505
23563W        W41767   5.775   8.606  13.902  0.2289  0.1224 -0.0553
23564W        W41768   0.858  10.853   3.923 -0.1147  0.1989  0.1691
23565W        W41769  14.533   2.626  13.894 -0.3064 -0.2533  0.1857
23566W        W41770   2.283  13.868   1.593 -0.0664 -0.1869 -0.1420
23567W        W41771  18.284  12.142   5.260 -0.0765  0.2754 -0.1609
23568W        W41772   4.751   9.767  15.225 -0.2143 -0.1662 -0.1378
23569W        W41773   9.156   8.967   1.957 -0.1943  0.0581 -0.1283
23570W        W41774   7.916   8.282  12.509 -0.1221  0.0892 -0.0441
23571W        W41775   3.221  15.987  13.353 -0.0613  0.0135 -0.0457
23572W        W41776   8.062  11.004   1.242 -0.2151 -0.0115  0.0840
23573W        W41777  11.863   8.216  11.846  0.1120 -0.3061  0.2382
23574W        W41778   4.936  17.745  10.487 -0.0545  0.0306 -0.2695
23575W        W41779   6.404  15.575  15.503  0.2466 -0.1741 -0.2755
23576W        W41780  15.002   4.678   4.745  0.2029  0.3534 -0.0345
23577W        W41781  14.027   9.945  13.426 -0.1223 -0.2804  0.2180
23578W        W41782  10.014   4.737   3.691 -0.1111 -0.1989 -0.2075
23579W        W41783  10.403  16.145  12.606  0.0439  0.0177 -0.0324
23580W        W41784   8.209  16.355   0.699  0.2265 -0.0664  0.0645
23581W        W41785  15.640   4.342  15.445  0.1176  0.2887 -0.3863
23582W        W41786  12.318  13.464   0.597 -0.1600  0.2151 -0.3105
23583W        W41787  15.584  13.407  11.600  0.0827  0.1921  0.1450
23584W        W41788   7.110  12.980   1.035 -0.1904 -0.0237  0.1116
23585W        W41789  13.705  17.842  15.378  0.0516 -0.3580 -0.1251
23586W        W41790  10.231   6.995  12.539 -0.3557  0.0181  0.1082
23587W        W41791  12.380   5.762  13.282  0.0021  0.3263  0.0653
23588W        W41792  17.913   8.409  12.773  0.2186 -0.1397  0.0048
23589W        W41793   1.540   9.467  12.477 -0.1058  0.1039 -0.0372
23590W        W41794   9.908  17.631   2.087 -0.0953  0.1383 -0.0943
23591W        W41795   8.211  13.915   3.296  0.0832 -0.2624  0.0258
23592W        W41796   3.759  12.209   0.837  0.2020  0.2081  0.1543
23593W        W41797   5.163   7.751  13.148 -0.1243  0.0093  0.0613
23594W        W41798   2.221  18.049  13.266  0.1576  0.0442  0.1297
23595W        W41799  16.272   0.557  14.940  0.0255  0.1089 -0.1549
23596W        W41800   8.674   1.005   4.149  0.0284 -0.1847  0.1035
23597W        W41801   1.120  12.686  15.138 -0.2182 -0.1241 -0.1173
23598W        W41802  17.926  10.435  12.773  0.2508 -0.0440 -0.0431
23599W        W41803   8.569  17.155  13.494 -0.1343 -0.3275 -0.1512
23600W        W41804   9.607   0.674   3.709 -0.2341  0.1784  0.0220
23601W        W41805  16.078  12.907   3.747  0.2332 -0.2664 -0.0938
23602W        W41806   6.940  18.236  14.885  0.1046 -0.2424  0.0888
23603W        W41807   5.451  17.757  12.431 -0.2101 -0.0912  0.1133
23604W        W41808  12.659  17.911   3.418 -0.2554  0.3102 -0.4046
23605W        W41809   2.174  12.051   3.948 -0.2737 -0.1535 -0.0407
23606W        W41810  14.976   3.126  10.855  0.2505 -0.1351 -0.1200
23607W        W41811   9.940  16.989   0.066 -0.0688 -0.0446 -0.1063
23608W        W41812   4.271  17.035  11.387  0.1922  0.0199 -0.2906
23609W        W41813  10.547  15.381  14.456  0.2965 -0.0093 -0.1966
23610W        W41814   2.090  16.286  11.817 -0.1803  0.1361 -0.1412
23611W        W41815  14.186  10.052   5.687  0.1949 -0.0032  0.0048
23612W        W41816  15.410   7.849  12.146  0.0244 -0.2626 -0.1339
23613W        W41817  10.608   7.132   1.411 -0.0535 -0.0897  0.0844
23614W        W41818   5.393   1.202   3.867 -0.2703 -0.1525  0.1617
23615W        W41819   8.928   0.247  12.813  0.1099 -0.2348  0.0322
23616W        W41820   5.123  12.453  13.943  0.2374 -0.2018  0.2186
23617W        W41821   2.098   4.555   1.044  0.0202 -0.2411  0.1504
23618W        W41822   8.032   3.118  10.744 -0.1341 -0.3390 -0.0696
23619W        W41823   8.522   7.610  11.687 -0.1010  0.1522  0.0419
23620W        W41824   5.637   9.640  14.667  0.1407 -0.0479  0.2049
23621W        W41825  18.147   3.593   0.643 -0.1377  0.1231 -0.1809
23622W        W41826   3.443   8.596  12.671  0.4129  0.0245 -0.2853
23623W        W41827   1.208  11.916  14.550 -0.0183  0.0438 -0.0634
23624W        W41828  17.307   7.374   2.421 -0.1415 -0.0143  0.1192
23625W        W41829   7.795   4.839   2.049  0.1286  0.0536  0.0119
23626W        W41830  15.278   1.979  14.034 -0.0445 -0.0501 -0.1354
23627W        W41831   3.751   5.430   3.759 -0.1996  0.2437  0.0089
23628W        W41832  13.972   5.805   3.715  0.0952  0.2239 -0.1628
23629W        W41833  13.433   1.313   3.757  0.0168 -0.3260  0.2139
23630W        W41834   2.784   9.019   4.518  0.0122  0.2006  0.2020
23631W        W41835   1.097   9.320  13.847 -0.2349  0.1029 -0.0512
23632W        W41836   5.719  17.438  14.854 -0.2605 -0.3574  0.1905
23633W        W41837   0.597   8.939  10.570  0.1700 -0.0815  0.0178
23634W        W41838   2.257   8.169   0.701 -0.1206  0.1219  0.0908
23635W        W41839  13.219   4.970  12.321  0.2307  0.1371 -0.2974
23636W        W41840  10.398  14.092  15.704  0.3165  0.3040 -0.2263
23637W        W41841  14.062   3.641  13.868  0.1098  0.1395  0.2477
23638W        W41842   4.325   1.869  15.143 -0.0356 -0.1931 -0.0214
23639W        W41843  13.220   5.008   4.592  0.0270 -0.0766 -0.0514
23640W        W41844   3.766   7.519  12.838 -0.0822  0.0077 -0.2040
23641W        W41845   9.355  17.095   1.748  0.0407  0.1973  0.1075
23642W        W41846  14.280   0.761  11.073  0.2441  0.0716 -0.1294
23643W        W41847  17.871  11.971   2.363 -0.1240 -0.0408  0.0280
23644W        W41848   5.796  16.673   9.814 -0.0396  0.2781  0.2355
23645W        W41849   5.218  14.368   1.929  0.2970 -0.3563 -0.3244
23646W        W41850   1.987   5.062  11.665 -0.1047 -0.0636  0.0353
23647W        W41851   6.023   0.865  15.061 -0.2828  0.2171 -0.1444
23648W        W41852  11.779   8.647   0.994  0.0064 -0.0279  0.3236
23649W        W41853  13.983  14.853   2.321 -0.0870  0.0295  0.1356
23650W        W41854  14.704  13.978   0.533  0.1526 -0.0003 -0.1336
23651W        W41855  11.294  11.005  14.655 -0.0124 -0.3026  0.2362
23652W        W41856  15.424  16.212   3.590 -0.0966 -0.2280 -0.1860
23653W        W41857  14.882   7.114   1.130 -0.1005  0.1718 -0.1450
23654W        W41858  13.479  15.014   2.021  0.5626 -0.1945 -0.2300
23655W        W41859   1.769   0.922   1.438  0.1553 -0.0022 -0.1001
23656W        W41860   5.242  10.125  11.284 -0.0187  0.2808  0.1130
23657W        W41861   4.650  13.003  11.549  0.1218  0.2599  0.1466
23658W        W41862   5.286  17.987  15.018  0.0849  0.0284  0.1075
23659W        W41863   1.760   8.866   3.755  0.1001  0.1285 -0.0618
23660W        W41864  13.601   0.898   0.643 -0.2111  0.1627 -0.0088
23661W        W41865  18.356   7.237  13.170 -0.0771 -0.2033  0.0007
23662W        W41866  16.369   9.481  10.462 -0.3560  0.0448 -0.0007
23663W        W41867  11.052   5.619  13.519  0.0848  0.0606 -0.1910
23664W        W41868   9.746   6.585   5.369 -0.2195 -0.0876 -0.2204
23665W        W41869   4.554   0.994   4.430  0.0125 -0.0730 -0.0775
23666W        W41870   1.598  15.142   2.527  0.3645  0.0578 -0.2575
23667W        W41871  15.759   6.188   0.452  0.2723  0.1392 -0.2885
23668W        W41872  11.927  12.769   1.354  0.2501 -0.2282 -0.1787
23669W        W41873  12.558  16.654   3.104 -0.3734  0.3492 -0.3292
23670W        W41874   8.367   1.107   2.460 -0.3592 -0.1385  0.3940
23671W        W41875   2.549  11.802  10.989 -0.3393 -0.1149 -0.2223
23672W        W41876   9.524  13.077  14.296  0.3474 -0.0596  0.1105
23673W        W41877  13.878  17.785  11.912 -0.1428  0.0406 -0.0958
23674W        W41878   9.988   8.070   2.515  0.0078  0.0714 -0.1693
23675W        W41879   3.641   8.388  14.223 -0.2740  0.1337 -0.2502
23676W        W41880   4.693  14.524   1.585 -0.1030  0.4089 -0.0570
23677W        W41881   5.935   2.575   9.968 -0.1679 -0.2185 -0.0123
23678W        W41882   6.295   8.774  14.783 -0.0139 -0.1279 -0.0406
23679W        W41883  13.465   1.127  14.535  0.0615  0.0028  0.1097
23680W        W41884   8.919  12.003   1.803 -0.3266 -0.1600  0.1645
23681W        W41885   2.767  16.274  12.694  0.2266  0.2201  0.0599
23682W        W41886   9.089  17.491   1.499 -0.2457 -0.1124  0.1320
23683W        W41887  17.236   8.576   0.016 -0.6539 -0.0027  0.3104
23684W        W41888   9.083  15.269   1.044 -0.0342 -0.1490 -0.0716
23685W        W41889  16.596   5.055  11.210 -0.0709  0.2225  0.1273
23686W        W41890   1.906   8.417   3.579 -0.5538  0.2105  0.2658
23687W        W41891   6.135   4.921  11.592 -0.5709  0.0717 -0.3138
23688W        W41892   4.461   0.066  12.306 -0.2754 -0.1803  0.1029
23689W        W41893  17.932   2.478   3.226 -0.2242 -0.0941 -0.2636
23690W        W41894   9.084   8.557  12.800  0.0959 -0.1591  0.1229
23691W        W41895   0.811   5.125  10.437 -0.0410  0.1472 -0.1755
23692W        W41896   0.464  13.447  11.757  0.0643  0.0145 -0.1453
23693W        W41897  14.159  12.859  12.464  0.1379 -0.1912 -0.0078
23694W        W41898   1.205  18.288   0.120 -0.1913  0.4295  0.3153
23695W        W41899  10.170  11.819   2.138 -0.0329  0.1340  0.0428
23696W        W41900  17.068   8.018   3.783  0.0799  0.0528  0.0468
23697W        W41901   2.898  16.711   0.483  0.1242  0.2040  0.1354
23698W        W41902   1.701   1.400   3.016 -0.0745  0.0595 -0.0975
23699W        W41903   9.922   3.527   0.030  0.4493  0.2126  0.0221
23700W        W41904  11.852  17.461   0.693 -0.1687  0.1422  0.0673
23701W        W41905   0.642  12.639   2.817 -0.1762 -0.1852 -0.0227
23702W        W41906  16.430   4.466  15.566 -0.2778  0.1799  0.0128
23703W        W41907   4.544   5.442   1.778 -0.1057  0.0663 -0.0242
23704W        W41908  14.596   9.041   3.705 -0.1012 -0.1291  0.0459
23705W        W41909   1.777   8.305   3.086 -0.1358 -0.1032  0.0615
23706W        W41910   3.328   3.578  12.719  0.1610 -0.2062  0.1442
23707W        W41911   7.238  15.157  14.772 -0.0129  0.1653 -0.0244
23708W        W41912  17.949   1.355   0.145  0.2703  0.3157 -0.1206
23709W        W41913   1.508  15.910   1.560  0.0393  0.3904  0.0389
23710W        W41914   3.755  10.610  12.297 -0.0698  0.0015 -0.3849
23711W        W41915   3.432   8.747   2.159 -0.1506 -0.0567 -0.1300
23712W        W41916  18.346  12.726   2.874 -0.0903 -0.3304 -0.0711
23713W        W41917   8.451   3.054  11.501  0.1070 -0.0666 -0.1127
23714W        W41918  12.500   7.119  14.098  0.0838  0.1099  0.0733
23715W        W41919  15.326  11.715   1.117 -0.0007 -0.1249 -0.0246
23716W        W41920  12.566  16.424  13.891  0.0528 -0.0127  0.0337
23717W        W41921   3.986  13.169   4.809 -0.1103  0.1245 -0.1377
23718W        W41922  13.642   7.578  15.210 -0.1597  0.1632  0.0908
23719W        W41923   4.506  17.965  12.477  0.0273  0.0124  0.2145
23720W        W41924  13.319  11.494  14.840  0.2049 -0.0599  0.3207
23721W        W41925  11.011   7.311   4.504 -0.1141  0.0678 -0.0610
23722W        W41926   6.158   4.535   3.763  0.0037 -0.1179  0.1049
23723W        W41927   2.639  17.230  13.766  0.1950  0.0172 -0.1036
23724W        W41928   9.358   5.003   0.156  0.1331  0.1657  0.1427
23725W        W41929   3.055  12.619   4.957 -0.2312  0.0434  0.0430
23726W        W41930  15.629   0.847   0.738 -0.2328 -0.3205 -0.0144
23727W        W41931   9.873  11.800  13.946 -0.1367 -0.0263 -0.0523
23728W        W41932   6.570   7.198  14.132  0.2672  0.2997 -0.0141
23729W        W41933  13.792  16.263   1.149 -0.0445 -0.1732  0.0619
23730W        W41934  15.477   2.641  10.172 -0.1144 -0.0833 -0.0324
23731W        W41935   1.546   4.738  15.310 -0.1254 -0.0865  0.0458
23732W        W41936   9.677  17.509  12.071 -0.0135 -0.2770  0.0785
23733W        W41937  15.046  13.012   4.381 -0.2617  0.0434 -0.2781
23734W        W41938   5.409   1.897  11.088  0.1299 -0.0294  0.0406
23735W        W41939  16.535   4.111  11.067 -0.0853 -0.2157  0.3811
23736W        W41940   8.122  10.390  13.125 -0.0414 -0.2718 -0.2818
23737W        W41941   3.253  13.573  15.218  0.2338 -0.1358  0.0523
23738W        W41942  13.339  12.770   4.806 -0.0787 -0.1824  0.1945
23739W        W41943  17.118  10.686  13.853  0.2535 -0.0415  0.0095
23740W        W41944   6.930  17.156   2.506  0.1215 -0.0549 -0.0457
23741W        W41945  15.258  17.694  11.751 -0.4337 -0.0017 -0.0491
23742W        W41946   3.165   2.451   3.745  0.0283 -0.0232  0.0981
23743W        W41947   2.991   9.942   3.351 -0.0333  0.3925 -0.0791
23744W        W41948  17.057  18.009   3.499  0.0813 -0.0353  0.2932
23745W        W41949  15.322   4.425  14.976 -0.1124  0.0650 -0.0490
23746W        W41950   9.571   3.747   3.006  0.0248  0.0740 -0.0770
23747W        W41951   4.462   2.490  14.493 -0.3320  0.4543 -0.0009
23748W        W41952   7.596   1.967  14.720  0.1422 -0.1134  0.1086
23749W        W41953  13.763   6.530  14.991  0.2879  0.2527  0.1553
23750W        W41954  14.494  11.029  14.142  0.4276  0.2190  0.2358
23751W        W41955  15.704  10.462   1.895  0.1222 -0.0238 -0.2087
23752W        W41956   9.452  15.884   1.348  0.6601 -0.0066 -0.2346
23753W        W41957  10.841  14.529  14.632  0.2942 -0.1721  0.1386
23754W        W41958   2.143  14.432  12.697  0.1186  0.2413  0.1359
23755W        W41959   9.738  13.449  14.061  0.1070 -0.1907  0.1621
23756W        W41960   9.271  14.972  11.611 -0.0757  0.1191  0.2364
23757W        W41961   9.217   9.885  12.078  0.0144  0.2147  0.0366
23758W        W41962   6.924  12.517  13.876 -0.0475  0.2366 -0.2038
23759W        W41963   4.216   9.457  13.107 -0.0000 -0.0738 -0.0320
23760W        W41964   9.451   3.519  14.650  0.0765  0.3427 -0.1785
23761W        W41965   4.961   2.607   4.295 -0.2948 -0.0338 -0.0038
23762W        W41966  14.059  13.344   4.918 -0.0152  0.1341 -0.0874
23763W        W41967   7.754  13.308  12.984  0.1359  0.1672 -0.2416
23764W        W41968   7.549  17.656   0.579 -0.0757  0.4739  0.0835
23765W        W41969   7.064   2.575   3.908 -0.2935 -0.0166  0.0583
23766W        W41970  11.492   2.518   3.446  0.2049 -0.0934 -0.2718
23767W        W41971  15.884   4.575   4.812  0.0119 -0.1661  0.2838
23768W        W41972   8.539  10.099  12.918  0.0850  0.1461  0.2822
23769W        W41973  17.858  16.613  10.328 -0.3207  0.1331 -0.0261
23770W        W41974   7.904  10.626  13.920 -0.0837 -0.1557 -0.2281
23771W        W41975   3.569  10.785  11.205  0.0720  0.1363 -0.0699
23772W        W41976  13.066   6.147  11.494  0.3859  0.0606 -0.1283
23773W        W41977  10.650  13.016   3.347  0.3216  0.0062 -0.0873
23774W        W41978  14.405   0.902   3.823 -0.0976  0.1475  0.1256
23775W        W41979   0.954   5.584  13.786 -0.0536  0.1628 -0.2058
23776W        W41980   2.339   1.232  11.921  0.0604 -0.2156  0.2047
23777W        W41981   7.570   4.772   1.523 -0.3507 -0.2845  0.3313
23778W        W41982   9.813   1.886  11.573  0.1072  0.2747  0.0864
23779W        W41983  16.126  16.340  12.971 -0.0101 -0.1936 -0.1248
23780W        W41984   2.349  11.395  13.559  0.0072 -0.0012 -0.0016
23781W        W41985   3.008   3.896   4.255 -0.4328  0.0248  0.0076
23782W        W41986   1.757  16.954   3.081 -0.0256  0.0007  0.3579
23783W        W41987  13.618   9.780  14.631  0.0450 -0.1622 -0.0949
23784W        W41988  10.664  10.814   1.125  0.1414  0.2890  0.1873
23785W        W41989  13.892   5.235   1.833  0.1319  0.1424 -0.0522
23786W        W41990  15.637   8.753  13.592  0.1352 -0.2539  0.1334
23787W        W41991   4.121  11.080  14.945 -0.2373  0.0430 -0.0191
23788W        W41992  12.448   4.223   1.478  0.6249  0.0066 -0.2666
23789W        W41993   8.544  14.269   4.883  0.3781 -0.0660  0.0102
23790W        W41994  16.363   9.183   4.689 -0.1341  0.2211  0.0010
23791W        W41995   4.242  11.157   4.059  0.0552  0.2278 -0.0908
23792W        W41996  17.329  11.783  13.011  0.1449 -0.0351 -0.1147
23793W        W41997   3.652  16.189  11.512  0.1561 -0.0989 -0.1227
23794W        W41998  10.187  15.508  12.797  0.0031  0.3564 -0.0452
23795W        W41999  14.434   0.503   0.671  0.0809 -0.3210 -0.1743
23796W        W42000  12.052   7.480   0.635 -0.2298 -0.3662 -0.0582
23797W        W42001  17.084   7.282   0.676  0.1863 -0.1023 -0.0463
23798W        W42002   8.060  14.450   3.236  0.0794  0.0050 -0.0138
23799W        W42003  16.366  17.877  11.233 -0.1671  0.3351 -0.1783
23800W        W42004  11.307   3.135   4.242 -0.1077 -0.2119  0.4377
23801W        W42005   9.248   1.999  11.028  0.0216  0.1718  0.3307
23802W        W42006  13.793  14.291  14.893  0.0948  0.1459 -0.0986
23803W        W42007  15.679   9.117   1.813 -0.0208  0.0336  0.0089
23804W        W42008   9.620   9.497  14.522  0.0296  0.3509  0.0649
23805W        W42009   1.237  17.108   4.699 -0.4146  0.0882 -0.1241
23806W        W42010  10.029  16.948   4.246 -0.0227  0.2015  0.1541
23807W        W42011  17.336   3.082   3.482 -0.1581 -0.1109 -0.3169
23808W        W42012   2.045   0.166  12.000  0.1073 -0.3525 -0.0154
23809W        W42013   9.474   7.660   3.427  0.0008 -0.2607  0.2277
23810W        W42014  16.555  12.349   5.522 -0.1540  0.1390 -0.0015
23811W        W42015  17.477  12.756   5.109  0.0019  0.3798  0.0347
23812W        W42016   3.945  15.973   5.435  0.1492  0.2093  0.1356
23813W        W42017  15.166   9.264  11.541 -0.0205  0.0175 -0.0905
23814W        W42018   9.301  18.233  15.313  0.0480 -0.4114 -0.1459
23815W        W42019  15.861  13.562   4.170  0.2257  0.0944 -0.3326
23816W        W42020   6.212   5.601  13.554 -0.3072 -0.1298 -0.1934
23817W        W42021  10.523  13.453   3.819 -0.4036  0.0390 -0.1842
23818W        W42022  10.307  14.986   3.028 -0.1035 -0.0979  0.3412
23819W        W42023  16.498  10.313  12.648  0.1108 -0.0464 -0.1578
23820W        W42024   7.172   7.517  14.965  0.3428 -0.1931  0.1423
23821W        W42025   1.655  13.746  13.683  0.0921  0.1875  0.2247
23822W        W42026   1.107  17.783   3.147 -0.1257  0.0791 -0.1617
23823W        W42027  10.038  10.496   5.491  0.1625  0.4551 -0.1085
23824W        W42028  13.046  13.602   3.076  0.1447 -0.2846 -0.0501
23825W        W42029   7.436   4.308   1.129  0.2959  0.2657 -0.2618
23826W        W42030   3.404  14.433  15.140 -0.1026 -0.0005 -0.2005
23827W        W42031  13.703   5.665   1.420 -0.2378 -0.1532 -0.3222
23828W        W42032  16.844  18.377   3.082 -0.0832 -0.0897  0.1489
23829W        W42033   8.066   7.801   4.092  0.1738  0.1240 -0.2128
23830W        W42034  14.332   2.431   3.424 -0.0732 -0.0465  0.0210
23831W        W42035  16.906   0.393  13.668 -0.1971  0.1128  0.2125
23832W        W42036   9.183   8.325  14.405  0.2035 -0.0783  0.1333
23833W        W42037   9.760   4.007  13.295 -0.3758 -0.1650  0.1521
23834W        W42038  17.561   4.211  12.420  0.0600 -0.0859 -0.3275
23835W        W42039  15.697   6.091   2.690  0.1497  0.3333 -0.1588
23836W        W42040   8.747   0.736   2.057 -0.0188  0.0703 -0.1117
23837W        W42041   1.331   3.472  14.816 -0.0306  0.1289  0.0949
23838W        W42042   9.344   6.267  11.753 -0.1612  0.0301  0.2059
23839W        W42043   6.136  10.398  12.887 -0.0422 -0.0802  0.0696
23840W        W42044   7.566  11.357   1.060 -0.0957 -0.2622  0.0031
23841W        W42045   7.127  12.806   0.559 -0.1772  0.0012 -0.0173
23842W        W42046   4.213   1.144   0.105 -0.0716  0.0109  0.0557
23843W        W42047   6.579   7.410   0.799  0.1242 -0.0438 -0.3059
23844W        W42048  14.137   5.371  13.810  0.2018  0.1175 -0.1258
23845W        W42049  11.889   3.367  11.874 -0.2109  0.0028 -0.0243
23846W        W42050   5.855  14.215  12.510  0.1472  0.1487 -0.2095
23847W        W42051  14.811  15.693   2.941  0.1313 -0.2824  0.2230
23848W        W42052   2.478   3.309   2.085  0.0739  0.0627  0.2999
23849W        W42053   4.402  13.858   4.177 -0.0784 -0.1592 -0.0922
23850W        W42054  17.794   6.821  11.684 -0.1193  0.1013  0.0210
23851W        W42055   9.911  16.902   2.759  0.0955  0.2129  0.2314
23852W        W42056  15.648   8.593   1.600 -0.5209  0.0906 -0.2039
23853W        W42057   2.178  11.502  12.672 -0.3802  0.0364 -0.2365
23854W        W42058   5.206  10.632   4.437  0.1561 -0.2473 -0.1708
23855W        W42059   7.403  13.629  12.076 -0.0035  0.0094 -0.0256
23856W        W42060  17.326   4.028  14.383  0.2109  0.1122 -0.0509
23857W        W42061  14.034  11.482   3.422  0.3518  0.1897 -0.1942
23858W        W42062   2.683  17.585   4.112  0.2330  0.0350  0.3149
23859W        W42063  10.145   7.032   5.309 -0.0667 -0.0106 -0.0260
23860W        W42064   4.618   2.401   1.723  0.0021 -0.0198 -0.2219
23861W        W42065  14.820  15.433  15.109  0.1481 -0.0741 -0.2583
23862W        W42066  13.631   3.736   0.855  0.2648  0.1580 -0.1432
23863W        W42067   6.326  15.139   4.254 -0.2187 -0.2305  0.1806
23864W        W42068  10.772   1.983  12.341 -0.1383  0.0044  0.0979
23865W        W42069  10.371  15.685   4.252 -0.1137 -0.1272 -0.0572
23866W        W42070   7.618   3.355   2.016  0.0203 -0.0273  0.0096
23867W        W42071  15.669   2.942   0.436 -0.0216 -0.0376  0.1946
23868W        W42072   9.844   9.095  14.403  0.0482 -0.1556 -0.1137
23869W        W42073  10.732  10.093   2.467 -0.3248  0.1278 -0.4449
23870W        W42074  13.614   0.842   5.263 -0.3588 -0.0713  0.0677
23871W        W42075  14.221  13.054  13.620  0.0687  0.3984  0.2438
23872W        W42076  12.677  13.868  14.091 -0.2314 -0.1631  0.1217
23873W        W42077  13.905   5.660  14.165 -0.3781 -0.1854  0.1945
23874W        W42078  11.597   1.838   2.204  0.0037  0.2904 -0.1102
23875W        W42079  15.087   2.096   3.700 -0.0432 -0.0089  0.2339
23876W        W42080   1.287  10.629  11.401  0.1212  0.2455  0.0552
23877W        W42081   2.451   2.079   1.315 -0.2603  0.0987  0.1010
23878W        W42082  17.023  15.297   0.994  0.0172  0.2773 -0.1822
23879W        W42083  18.285   8.213   2.710  0.0593 -0.0588 -0.1284
23880W        W42084   0.699   4.822   4.042  0.1818 -0.0366  0.0322
23881W        W42085  18.121  14.801   4.048  0.1045 -0.4096 -0.0692
23882W        W42086  17.303  14.775  12.077 -0.1051 -0.2360 -0.0086
23883W        W42087   4.122   4.943   2.430 -0.1406  0.2084  0.2458
23884W        W42088   1.786   9.556   1.700  0.1802 -0.1565  0.0126
23885W        W42089   1.996  15.963  11.059  0.1416 -0.1390 -0.0926
23886W        W42090   4.837   1.690  15.014 -0.4612  0.3145 -0.1922
23887W        W42091   6.543   4.234  12.485  0.0740  0.0777  0.0535
23888W        W42092   8.585  17.722  15.074 -0.1444 -0.1045 -0.0520
23889W        W42093  11.450   8.850  14.334  0.0559 -0.2998 -0.1526
23890W        W42094   6.453  17.516   2.542  0.0643  0.1262  0.0958
23891W        W42095  10.703  10.758   0.142  0.1846  0.2542 -0.1861
23892W        W42096  15.957   3.170   5.159 -0.0467  0.1072  0.1754
23893W        W42097   7.847  11.732   0.953  0.2011 -0.1623  0.1233
23894W        W42098  17.223  16.295   2.324 -0.1866 -0.3406  0.1715
23895W        W42099   6.393  10.177  15.314 -0.1630  0.0220 -0.1710
23896W        W42100  10.716  12.860  11.127 -0.0278 -0.0599  0.0126
23897W        W42101   0.623  17.188  12.212  0.3154  0.4370  0.0430
23898W        W42102  17.366  17.182   4.651  0.1048  0.0665  0.1681
23899W        W42103   3.214   0.426  12.690 -0.0823 -0.2069 -0.0168
23900W        W42104   3.786  16.762   2.084 -0.0859  0.0083  0.0931
23901W        W42105   6.603   7.610   3.804 -0.0425 -0.3633 -0.0880
23902W        W42106   4.275  14.316  13.230  0.1537  0.2748  0.2251
23903W        W42107   1.524   2.509  13.685 -0.0006 -0.1561  0.3159
23904W        W42108   3.018  15.652  12.041  0.0435  0.0387  0.0548
23905W        W42109  11.088   5.975   3.686  0.0678  0.3125  0.2985
23906W        W42110  11.429  16.995   0.386 -0.1161  0.3010  0.1111
23907W        W42111  14.227  13.472  14.000 -0.0858 -0.0680  0.0105
23908W        W42112  13.925  10.808   4.318  0.0329  0.2936  0.1312
23909W        W42113   4.710  10.322   1.036 -0.0200  0.0921  0.1122
23910W        W42114  12.688   8.986  12.843  0.4834 -0.0497 -0.0226
23911W        W42115  10.609  10.011   4.981 -0.1424 -0.4148 -0.0176
23912W        W42116  10.755   3.964  11.626  0.1333 -0.3037 -0.1262
23913W        W42117   6.366  14.641   0.593  0.0654 -0.0218  0.2941
23914W        W42118  14.369  13.510  11.974 -0.0516 -0.1168  0.2296
23915W        W42119   6.435  14.202  15.369 -0.2586 -0.0669  0.2649
23916W        W42120   0.035   8.029   4.439 -0.1721  0.0560 -0.0329
23917W        W42121  15.600   6.682   1.656 -0.1014 -0.1448  0.2620
23918W        W42122   8.702  16.158  13.739  0.2046 -0.0830  0.2951
23919W        W42123   2.187   5.388  14.369  0.1780 -0.1140  0.2473
23920W        W42124  13.160   3.117  15.216  0.0079  0.0597 -0.0129
23921W        W42125   6.622   0.824   4.060  0.0039 -0.2854  0.0188
23922W        W42126  17.049   5.953  11.288 -0.3712 -0.1156  0.0385
23923W        W42127  13.454  16.369  14.989  0.0146  0.0466  0.0688
23924W        W42128   2.684   9.136   3.907 -0.0411  0.0540 -0.0968
23925W        W42129  16.263  11.098  14.122 -0.1069  0.2270  0.2611
23926W        W42130   4.821   5.163  12.941 -0.0450  0.0432  0.0086
23927W        W42131   2.775   7.513  11.434 -0.0087  0.0370  0.2093
23928W        W42132  11.197   5.025  13.407 -0.1809  0.2705  0.1808
23929W        W42133  17.784  12.281  12.288  0.0984 -0.0346 -0.1608
23930W        W42134  11.550   0.574  15.127  0.1152  0.4313  0.2650
23931W        W42135   5.058   6.943   2.580 -0.0724  0.0784  0.1003
23932W        W42136  14.594  10.607   4.028  0.1307  0.4601  0.1618
23933W        W42137   9.188   9.601   2.002  0.0254 -0.0698 -0.1608
23934W        W42138  13.923  17.259  15.172  0.0764  0.0195 -0.1242
23935W        W42139  18.034  12.442   3.185  0.0412  0.0894 -0.1235
23936W        W42140  15.996  11.968   0.616  0.3035  0.0214  0.1503
23937W        W42141   8.982  11.646  11.575 -0.2093 -0.0941  0.0414
23938W        W42142  18.045  13.446   4.459  0.1145  0.0390 -0.1384
23939W        W42143  12.688   7.085  12.071 -0.1034 -0.1551  0.0327
23940W        W42144   7.192   2.474   1.278 -0.1581  0.0795 -0.2451
23941W        W42145  14.316   3.347   2.884  0.3284 -0.0680 -0.1613
23942W        W42146  15.267   3.793   0.653 -0.3394  0.3451 -0.0947
23943W        W42147  13.116  17.124   9.933  0.1637 -0.0276  0.0728
23944W        W42148   0.453   9.959   1.256  0.0796  0.1078  0.1488
23945W        W42149   3.280  12.704   0.771 -0.0146 -0.4143  0.2462
23946W        W42150   7.428  13.618   4.673 -0.2904  0.2364  0.2898
23947W        W42151   8.152   1.587  11.452  0.0169  0.2331 -0.3671
23948W        W42152   1.777  16.218   4.420 -0.1701  0.0560 -0.2061
23949W        W42153  15.825  17.721  11.978  0.0645  0.1103 -0.4889
23950W        W42154   9.245   2.153   3.117  0.0913 -0.4063  0.2396
23951W        W42155  11.494  14.310   4.137 -0.3444  0.3652  0.0555
23952W        W42156   7.087  11.254   2.911  0.0387 -0.1306  0.2113
23953W        W42157  11.212   9.801  15.116 -0.0644  0.4034 -0.0566
23954W        W42158   6.146   2.704   3.452 -0.2210  0.0230 -0.0395
23955W        W42159  17.141   8.392  11.064 -0.2123  0.0080 -0.0155
23956W        W42160  13.369   2.407  11.087  0.0471  0.2409  0.0446
23957W        W42161  13.297  10.374  14.588  0.1141 -0.2502 -0.1160
23958W        W42162   5.461  18.060  15.478 -0.4137  0.1883  0.1635
23959W        W42163  10.230  10.656   0.706  0.2066  0.0318 -0.0253
23960W        W42164   2.223   9.673  13.059  0.0845  0.0121 -0.1641
23961W        W42165   2.142   8.639  15.209  0.1968 -0.0954  0.2391
23962W        W42166   5.863   8.683   3.066  0.0611  0.2122  0.0673
23963W        W42167   7.585   2.971  12.455  0.0307  0.1869  0.1638
23964W        W42168   9.397   5.568  12.187  0.0998 -0.0820 -0.3036
23965W        W42169  16.969  14.272  12.903  0.1814 -0.1078 -0.0895
23966W        W42170   7.748   4.289  15.405 -0.2573  0.0837 -0.2136
23967W        W42171   9.563  12.671   0.740 -0.0073 -0.1412 -0.4741
23968W        W42172   8.520  11.220  12.728 -0.2267  0.4022  0.0700
23969W        W42173  17.721  17.113   1.956 -0.1230 -0.3777  0.1247
23970W        W42174  17.281   1.265   2.080 -0.0053  0.0125  0.2971
23971W        W42175   9.828   7.170  12.763  0.1703 -0.1904  0.1252
23972W        W42176  17.526  10.049  14.454  0.0907 -0.1034  0.2020
23973W        W42177  16.022   1.392  14.505 -0.3470  0.1865 -0.0390
23974W        W42178  18.108   4.582   1.569 -0.2026  0.0667  0.0146
23975W        W42179   2.400   2.346   4.476 -0.1554 -0.0102  0.1587
23976W        W42180  15.040   3.648   1.493  0.4417 -0.1997  0.0185
23977W        W42181  18.050  11.413  13.499 -0.2264 -0.1600  0.0403
23978W        W42182   2.659  14.113  11.847  0.1619 -0.1094  0.0103
23979W        W42183   6.406  16.710  12.827  0.0821  0.0903  0.1653
23980W        W42184  15.692   7.032   5.665 -0.0415  0.0469 -0.0329
23981W        W42185   1.802  15.067  12.582  0.0152  0.2307  0.0023
23982W        W42186   6.216   2.290   3.862 -0.0325  0.0730 -0.0383
23983W        W42187  10.197   8.553   0.367 -0.0829 -0.2868 -0.0357
23984W        W42188   7.490  12.137  13.904  0.1766  0.0643 -0.1201
23985W        W42189   7.178   2.093   3.769 -0.2501 -0.0199  0.1211
23986W        W42190   4.551  10.568  11.696  0.0966  0.0263  0.0829
23987W        W42191  17.143   6.037   3.003 -0.0757  0.0091  0.0361
23988W        W42192   1.528   7.384   0.038 -0.0459 -0.0038  0.1219
23989W        W42193   2.651   3.164   3.031 -0.2262  0.1596 -0.1515
23990W        W42194   1.106  18.090  13.186 -0.1291  0.0617 -0.0081
23991W        W42195   3.464  17.738  12.891  0.1264 -0.0695 -0.1011
23992W        W42196  12.590  12.383   0.097 -0.0809 -0.3358  0.2612
23993W        W42197  14.750   9.918   3.542  0.2616  0.0717  0.0741
23994W        W42198  15.059  10.603  12.587  0.2302  0.0518  0.0571
23995W        W42199   0.461   0.324   2.097 -0.0539 -0.2128  0.0408
23996W        W42200   4.303   8.381   1.827 -0.0649 -0.0265  0.3118
23997W        W42201   6.254  16.131  11.399  0.2202 -0.0917 -0.0751
23998W        W42202   3.035   5.404   0.963 -0.0481 -0.1637 -0.2396
23999W        W42203   7.456   7.971   3.412 -0.1069 -0.0711  0.2026
24000W        W42204   2.851   1.214  12.127 -0.0735  0.0982  0.2653
24001W        W42205  15.424  17.799   3.396  0.2059 -0.0104 -0.0694
24002W        W42206   8.586  16.904  11.566  0.0254  0.1685  0.0546
24003W        W42207   2.820   3.045   2.308  0.3533  0.0967 -0.0861
24004W        W42208  12.139   7.630   1.550  0.1939  0.4435  0.3670
24005W        W42209   0.954  13.528  12.688 -0.4080  0.1594 -0.1105
24006W        W42210  11.903  16.519  15.001 -0.2149 -0.0553 -0.2235
24007W        W42211  15.945   2.646  10.314  0.0829  0.0743 -0.1665
24008W        W42212  16.877   3.817   1.594 -0.3742 -0.0995  0.2595
24009W        W42213  10.637   5.960  15.254  0.0391 -0.3212 -0.2217
24010W        W42214   4.247  17.894  14.595 -0.0851  0.2500 -0.0136
24011W        W42215  17.201   3.517   0.897  0.0633 -0.2445  0.2604
24012W        W42216  15.086  13.698   2.455  0.3772 -0.1325  0.0116
24013W        W42217   4.267   2.044  13.418  0.4800 -0.3403 -0.1618
24014W        W42218  17.502   9.640  13.387  0.0805 -0.4994 -0.2315
24015W        W42219   1.324   2.581   0.572 -0.1626  0.0666  0.1261
24016W        W42220  11.619   6.623  14.125 -0.1964 -0.0991  0.0731
24017W        W42221   3.215   2.622  11.890 -0.0983  0.0092  0.1858
24018W        W42222  12.282  13.515  11.600 -0.0469 -0.0315 -0.2963
24019W        W42223   5.488   8.739  13.069  0.0012  0.0950 -0.0157
24020W        W42224   2.227   2.714   3.996 -0.0816  0.2490 -0.0729
24021W        W42225  11.229  16.712  10.171  0.0367 -0.2576  0.2346
24022W        W42226  13.712   0.680   0.238  0.0358  0.1847  0.2418
24023W        W42227   0.962   2.443   4.158 -0.0981 -0.0533 -0.1155
24024W        W42228  12.549  12.638   1.043  0.0699  0.0649  0.0314
24025W        W42229   6.894  13.395  15.121  0.1281  0.1366 -0.1015
24026W        W42230   2.860   5.026  12.044  0.1591 -0.0658 -0.0990
24027W        W42231  15.387   5.788  14.631 -0.2466  0.0273 -0.3380
24028W        W42232  17.705  13.388   2.688  0.3267 -0.0443  0.0239
24029W        W42233   4.639   7.231   3.411  0.0997 -0.1364  0.3202
24030W        W42234   7.213   5.871   4.080 -0.0747 -0.0138 -0.1935
24031W        W42235   4.013   4.068  12.032 -0.0577 -0.0389  0.1985
24032W        W42236  13.056  12.203  15.537  0.0187 -0.0504  0.0214
24033W        W42237   8.097  17.140  12.741 -0.0776  0.0497 -0.3226
24034W        W42238  11.972   2.600  13.246  0.0187 -0.0375  0.1606
24035W        W42239  17.079   6.967  15.708 -0.2223 -0.0625 -0.1901
24036W        W42240   5.738   5.315  11.623  0.2056  0.1555  0.2665
24037W        W42241  17.252   4.929   2.553 -0.4502  0.1214 -0.2594
24038W        W42242   5.946   3.595  11.805 -0.0110  0.1718  0.0529
24039W        W42243  17.034   7.362   3.530 -0.2942  0.0436  0.1731
24040W        W42244   6.220   2.521  14.210  0.1878  0.3573 -0.1198
24041W        W42245   5.951   3.996   2.375  0.1951  0.0412  0.0147
24042W        W42246  11.697   4.799  14.342  0.0069 -0.0409  0.3388
24043W        W42247  18.288   1.698   3.941 -0.0844  0.0928  0.0143
24044W        W42248  11.351   4.216   2.782 -0.0274 -0.0817  0.3334
24045W        W42249   1.608  17.031  15.399  0.0899  0.1111 -0.0135
24046W        W42250  15.599  11.128  11.919  0.0060  0.0262  0.3902
24047W        W42251  10.969   9.765   5.126 -0.0764 -0.0396  0.0540
24048W        W42252   8.014   7.999  15.226  0.3687 -0.5028  0.0763
24049W        W42253   1.538   2.955   3.598 -0.0763  0.0548  0.1097
24050W        W42254  13.603  15.310   0.206 -0.0135  0.0418 -0.0354
24051W        W42255  17.886   1.504   2.839 -0.1911 -0.2990 -0.0355
24052W        W42256   7.439   1.370   4.227 -0.0245  0.3898 -0.2173
24053W        W42257   9.035  13.316   3.127  0.1190  0.0068 -0.0021
24054W        W42258   9.461   7.914   2.893 -0.1602  0.1425  0.2978
24055W        W42259  11.558   8.296   0.710 -0.2192 -0.2948  0.1679
24056W        W42260   0.145  12.027  13.795 -0.2393  0.3900 -0.0785
24057W        W42261  11.368  15.427  13.318  0.2089  0.0762  0.0764
24058W        W42262  12.440  10.804   2.723  0.0176  0.0475 -0.1488
24059W        W42263   3.357   2.572  14.436  0.1794  0.3059 -0.0849
24060W        W42264   4.775   9.015  14.157 -0.0783  0.2487 -0.1804
24061W        W42265   2.954   3.404  14.264  0.2480  0.1540  0.2379
24062W        W42266  12.791   9.533  11.133 -0.0147 -0.0187 -0.2898
24063W        W42267  14.725  14.370   1.526 -0.0938 -0.0677  0.1365
24064W        W42268  13.626  15.351   1.102  0.1961 -0.1216  0.4212
24065W        W42269   0.436   7.807  15.011  0.0057  0.0951 -0.0071
24066W        W42270   9.888   0.702  15.144 -0.0957  0.0254  0.0362
24067W        W42271  11.006   9.255   0.413  0.2543 -0.2826  0.1139
24068W        W42272  12.351   4.234   4.600 -0.2874 -0.0984  0.2234
24069W        W42273   6.212  11.393   0.463 -0.0298  0.2155  0.0875
24070W        W42274   4.527  18.307   2.184 -0.0597 -0.2205 -0.0947
24071W        W42275   1.114   9.580   4.111  0.1900 -0.0252 -0.0519
24072W        W42276  17.068  15.684   1.321 -0.2967  0.0445 -0.4803
24073W        W42277  13.215   1.123  12.641  0.0804  0.0048  0.0695
24074W        W42278  13.998  15.211  12.342  0.1243 -0.2359  0.1231
24075W        W42279   6.792  16.809   1.839  0.0826  0.5289  0.1865
24076W        W42280   8.073  16.811  10.939 -0.1805 -0.0289 -0.1429
24077W        W42281   4.710  10.941  14.441 -0.3881 -0.0522 -0.2403
24078W        W42282  13.058  10.352   1.404 -0.0013  0.1924  0.1930
24079W        W42283  16.859   8.445  14.670 -0.1975  0.1209 -0.0777
24080W        W42284  17.408   4.894   1.977  0.0026 -0.1059 -0.1882
24081W        W42285  11.915   1.920   0.603  0.2715  0.0362  0.1523
24082W        W42286  14.294   8.355   1.289 -0.4593 -0.0882 -0.1963
24083W        W42287  17.793   1.589   3.690  0.2999 -0.0782 -0.3772
24084W        W42288  16.110   7.380  13.259  0.3101  0.1812 -0.2077
24085W        W42289  17.825  18.105  10.837  0.4147  0.0749 -0.0725
24086W        W42290  15.081  15.957  12.040 -0.0501 -0.1678 -0.1846
24087W        W42291  10.140   5.375  15.441 -0.4432  0.2051 -0.0608
24088W        W42292  17.147   1.365   1.581 -0.0127  0.0160  0.0269
24089W        W42293  14.541  11.226   0.881 -0.3578  0.0311 -0.0466
24090W        W42294   0.848   1.513  14.705  0.0494 -0.0840 -0.1003
24091W        W42295  17.848  15.418  14.902  0.1069  0.1409  0.0686
24092W        W42296   9.741  15.721  12.100 -0.2063  0.0412  0.0526
24093W        W42297   2.668   9.973  13.132  0.1164  0.1622  0.2649
24094W        W42298   0.874  13.361  10.917  0.0247 -0.1103 -0.1509
24095W        W42299  14.859  12.540  12.277  0.2045 -0.0914 -0.0181
24096W        W42300  14.717   7.222  12.607  0.1985 -0.0011 -0.3141
24097W        W42301  16.526  13.623   2.609 -0.1256  0.2095  0.2739
24098W        W42302   5.818  14.778   3.882 -0.4933  0.2580 -0.2401
24099W        W42303   3.848   2.312   1.660  0.1326  0.1246 -0.1722
24100W        W42304   5.528   2.936   1.041 -0.3133 -0.0407  0.0389
24101W        W42305   2.857  13.529  10.900  0.0863 -0.1869 -0.1147
24102W        W42306   2.204   4.007   1.659 -0.0166 -0.2090 -0.0574
24103W        W42307   7.466   1.045  12.031 -0.2340  0.1634 -0.3150
24104W        W42308  15.202   6.053  10.739  0.0187 -0.2705  0.0303
24105W        W42309   9.417  14.915  14.915  0.1757 -0.2513  0.2388
24106W        W42310  15.426  14.988   3.686 -0.1972  0.1957 -0.1465
24107W        W42311   8.637   8.019   5.701  0.3823 -0.1704  0.1978
24108W        W42312   6.558  11.144   0.215  0.0448  0.1032  0.0789
24109W        W42313   6.510   4.254   5.111 -0.0937 -0.1287  0.4349
24110W        W42314   3.414  14.674  13.520 -0.2273 -0.0976 -0.1146
24111W        W42315  18.002   0.344   4.687  0.0466  0.0751  0.0090
24112W        W42316  12.059   8.252   4.893  0.1376 -0.0912  0.1855
24113W        W42317   0.611  14.466   2.623 -0.1591  0.1758 -0.0396
24114W        W42318  15.852   2.846  12.405 -0.0487 -0.0638 -0.1364
24115W        W42319   0.368  17.320   2.486  0.1763  0.1690 -0.0611
24116W        W42320  11.786   7.598   1.154  0.2534 -0.1238 -0.0491
24117W        W42321  14.693   9.626  14.039 -0.3827  0.0628 -0.0356
24118W        W42322   6.352   2.363   2.338 -0.0357  0.1635 -0.1478
24119W        W42323   3.738   3.965  15.585  0.2208  0.1914 -0.1501
24120W        W42324   2.216  16.074   2.198 -0.0566  0.2223  0.0043
24121W        W42325  14.079   1.954  12.656 -0.0245 -0.3098  0.3635
24122W        W42326  11.509  11.228   4.652 -0.0848  0.0618  0.2112
24123W        W42327   9.877  17.376  12.899 -0.0022  0.0959 -0.1446
24124W        W42328   9.238   0.057   0.375 -0.1877  0.0589 -0.3962
24125W        W42329  13.565  13.894   0.178  0.4082 -0.1484  0.0554
24126W        W42330   3.776  14.244  15.709  0.0126  0.0024  0.1169
24127W        W42331   7.000   1.392  15.158 -0.1415 -0.1308 -0.1311
24128W        W42332  16.924   6.352  11.506 -0.1355  0.1972 -0.1426
24129W        W42333   2.703   1.155   1.115 -0.1949 -0.0189 -0.0564
24130W        W42334  12.887  15.291   4.542  0.1140 -0.0085 -0.1406
24131W        W42335   5.112  16.055  15.055 -0.1250 -0.1663 -0.1553
24132W        W42336   7.785  11.495   3.969 -0.0695  0.0700  0.0465
24133W        W42337  10.494   2.265   4.338  0.1043 -0.2345  0.3221
24134W        W42338   5.749   2.450   0.308  0.0481  0.1261  0.1765
24135W        W42339  12.381   6.102  12.715 -0.3700  0.3062  0.0213
24136W        W42340  12.900  15.378   3.272 -0.1949 -0.1559 -0.1765
24137W        W42341   2.307  11.339   2.871 -0.2143 -0.1146 -0.0279
24138W        W42342  14.854  15.797   4.014  0.1080 -0.0294  0.2081
24139W        W42343  15.712   8.385   3.158  0.0323  0.0078 -0.1341
24140W        W42344   8.636   8.134   3.575  0.0377  0.0091  0.1293
24141W        W42345   9.319   7.787   4.572  0.0324 -0.0812  0.1395
24142W        W42346  15.890   0.745   4.671  0.0311 -0.0339  0.0922
24143W        W42347  16.683   3.520   0.703 -0.0571 -0.1247  0.1710
24144W        W42348  10.045   4.052  15.092 -0.0852 -0.2981 -0.1864
24145W        W42349   6.710   5.941  14.746 -0.2123  0.1132  0.0959
24146W        W42350  13.789   1.048  11.992 -0.3137 -0.1172 -0.0804
24147W        W42351   9.518  14.256  12.225  0.0584 -0.1496  0.1843
24148W        W42352  14.230   7.164  13.273  0.1616  0.1055 -0.3032
24149W        W42353  10.435   3.417   0.031 -0.0066  0.1923  0.1260
24150W        W42354   3.049  12.176   2.391  0.2058 -0.0125  0.3805
24151W        W42355   6.719   1.706  11.075  0.2504 -0.3775  0.1907
24152W        W42356   0.830  14.901  11.365  0.1247 -0.2631 -0.1430
24153W        W42357  10.586   5.200  14.157 -0.0358 -0.1377 -0.1633
24154W        W42358   1.858   9.017   3.214 -0.3748  0.0094 -0.1435
24155W        W42359  12.993  14.938  12.371 -0.0099  0.1747  0.4288
24156W        W42360  10.062   0.623  13.267 -0.1687  0.0221 -0.3096
24157W        W42361   3.775   1.939  14.328 -0.0998 -0.0899  0.2989
24158W        W42362  16.205  16.657   3.281 -0.2716  0.0254  0.2377
24159W        W42363  11.777   7.888   0.591 -0.1110 -0.2046 -0.1327
24160W        W42364   8.981   9.139   3.556 -0.4096  0.2969  0.5318
24161W        W42365   3.288  11.692   1.248 -0.3750 -0.0029 -0.1277
24162W        W42366   8.389  17.726   2.212 -0.1237  0.1419  0.3059
24163W        W42367   4.155   7.492   0.776  0.3800  0.2683  0.0371
24164W        W42368   0.546  10.599  10.231 -0.0101 -0.4381  0.2591
24165W        W42369  12.602  12.141   1.203  0.2988 -0.2768  0.0576
24166W        W42370  17.745  10.554   0.170  0.0034  0.0027 -0.1598
24167W        W42371  16.581  16.740   4.249  0.0353 -0.1494 -0.3601
24168W        W42372   8.794   4.205  11.274  0.0373 -0.2516  0.1413
24169W        W42373   9.793  18.315  12.747 -0.3624 -0.2178 -0.0765
24170W        W42374   7.443   0.884   2.788  0.0749 -0.2181 -0.2439
24171W        W42375  14.135   2.850  13.570  0.0829  0.0109  0.0792
24172W        W42376  17.986   9.285  14.754  0.2454  0.2012  0.1083
24173W        W42377   2.546   1.397   1.596 -0.0883  0.0538  0.4956
24174W        W42378   0.895   0.912   4.602  0.1762 -0.1394 -0.0239
24175W        W42379   0.930   6.737  14.126  0.0506  0.2133  0.3249
24176W        W42380   9.768   8.514   6.021  0.1173  0.0479 -0.1850
24177W        W42381  18.144  17.132   2.382 -0.0268  0.1327 -0.0154
24178W        W42382   8.348  13.830   0.483  0.2637  0.1202  0.0547
24179W        W42383  15.687   1.076  12.080  0.0756 -0.2466  0.3697
24180W        W42384   4.286   3.330   0.005 -0.3482 -0.1893 -0.0231
24181W        W42385  15.404   0.068   1.531  0.0957 -0.2868  0.1672
24182W        W42386   8.988  11.195   2.164 -0.1669 -0.0606  0.0244
24183W        W42387  16.185  12.957  10.324 -0.2162 -0.1178  0.0387
24184W        W42388  17.337   1.830   3.922  0.0520  0.0217 -0.3708
24185W        W42389  17.390  15.085   2.913  0.1040  0.1250  0.0495
24186W        W42390  11.306   4.826  12.046 -0.0678 -0.2437  0.1730
24187W        W42391   1.443   5.447   3.722 -0.0767  0.1127  0.0175
24188W        W42392   1.615   7.008   3.521  0.0590 -0.1882 -0.2509
24189W        W42393   2.876  13.311  13.548  0.1827 -0.1904 -0.2134
24190W        W42394  10.919   4.576   4.073  0.1567  0.0628  0.2509
24191W        W42395  15.738   0.870  11.566  0.0427  0.2637  0.0844
24192W        W42396   4.641  14.701  14.729  0.0711 -0.1951  0.0972
24193W        W42397  12.962   4.312   1.368 -0.0495  0.0681  0.0296
24194W        W42398   3.484   4.763  14.325 -0.3065 -0.0404 -0.0631
24195W        W42399  10.161  11.034  14.128 -0.2221 -0.2216 -0.1756
24196W        W42400   5.572  11.117   2.122 -0.1121  0.1050 -0.2117
24197W        W42401  18.148  10.883  11.616  0.3465  0.0029  0.0621
24198W        W42402  14.757   6.538   4.352  0.1345 -0.2138  0.0051
24199W        W42403  16.923  17.516   4.611  0.1794 -0.1118 -0.0662
24200W        W42404  13.764   2.899   4.797  0.0448  0.3179  0.1859
24201W        W42405   9.451   5.086  13.614 -0.1201 -0.2984 -0.0248
24202W        W42406  11.899   3.104   0.079  0.0651  0.2173 -0.3139
24203W        W42407   3.619   0.563   2.525  0.0023 -0.2415 -0.0304
24204W        W42408   3.049   3.922  14.979  0.3924 -0.1214  0.0555
24205W        W42409   4.833  10.275  10.856  0.1165  0.1100  0.2186
24206W        W42410   5.038  15.153   4.151 -0.1308  0.1294 -0.1454
24207W        W42411  16.855  12.427  13.626  0.3966 -0.1079  0.1766
24208W        W42412  10.847  14.847  12.397 -0.0707  0.4362 -0.2650
24209W        W42413   3.483   8.952  14.161 -0.1970  0.0666 -0.1039
24210W        W42414   3.433   6.813   4.419 -0.1292 -0.1761  0.0714
24211W        W42415   8.286  14.721  12.255 -0.2195  0.1278  0.1565
24212W        W42416   0.236   8.358   0.980 -0.1853  0.0152  0.1226
24213W        W42417   2.935  15.057   3.538 -0.0607  0.1294  0.0836
24214W        W42418  12.223  17.731   2.601 -0.3720  0.3399  0.4509
24215W        W42419   1.171  15.448  14.606 -0.1318  0.0252 -0.2391
24216W        W42420   6.623   9.286   0.751 -0.2548 -0.3265 -0.1783
24217W        W42421  12.713  12.478  13.705  0.1233 -0.2207 -0.0747
24218W        W42422  14.932  10.941   0.194 -0.0074  0.1396 -0.1366
24219W        W42423   8.191  13.328   3.406 -0.2082 -0.1154 -0.2634
24220W        W42424   0.477   1.320   3.235  0.0256  0.0601 -0.2709
24221W        W42425   8.529   3.814   5.039 -0.2539  0.0047  0.1348
24222W        W42426  17.833   1.077   0.972 -0.1320  0.0383 -0.1677
24223W        W42427  12.027   0.773   1.469  0.2649  0.0904 -0.1031
24224W        W42428  17.364   5.913   3.581 -0.2306 -0.0981  0.1073
24225W        W42429  10.853  15.894   3.141 -0.0043 -0.0790  0.0993
24226W        W42430  13.748   5.798  11.870 -0.0843  0.0869 -0.0229
24227W        W42431   1.411   5.452   4.399  0.0662 -0.2617 -0.0808
24228W        W42432  12.233  17.009  11.340 -0.2148 -0.0163  0.0101
24229W        W42433   7.829  11.801  12.159  0.1390  0.1379  0.2083
24230W        W42434   4.188   0.075   0.486  0.3198  0.0687  0.1391
24231W        W42435   5.408  15.350  13.502  0.1754  0.1021 -0.2537
24232W        W42436   5.239  16.092   4.295 -0.0431 -0.0175  0.0492
24233W        W42437   4.691   5.857  15.207 -0.0666  0.1504 -0.0011
24234W        W42438  10.844   8.676  14.403 -0.0622  0.0964 -0.2073
24235W        W42439  16.706  12.067  15.140  0.1067 -0.2649 -0.1294
24236W        W42440   4.694  17.575   1.002 -0.0477 -0.1282 -0.0394
24237W        W42441   9.727  15.633   2.151  0.0864  0.2394  0.1457
24238W        W42442   9.813   4.336  12.432 -0.2256 -0.0380  0.1003
24239W        W42443   1.907  13.006  10.776  0.0630  0.1305  0.1740
24240W        W42444  16.607   7.736  13.248 -0.0709  0.1876 -0.0062
24241W        W42445  18.184  15.685   4.573  0.1921 -0.0064 -0.1192
24242W        W42446  13.114   8.285   0.854  0.1299 -0.3728 -0.1487
24243W        W42447  17.520   0.110  10.747  0.1600 -0.0947 -0.0897
24244W        W42448  16.557  17.981   3.902 -0.3190 -0.0472  0.0972
24245W        W42449  11.462   0.627  11.308  0.2695  0.2161  0.3062
24246W        W42450   1.936   0.196   0.469 -0.3886  0.1808  0.2048
24247W        W42451  15.031   8.664  15.418 -0.0096  0.0633  0.2081
24248W        W42452   9.697   5.093  11.238  0.2742  0.0333  0.3300
24249W        W42453   1.946   4.885   3.249 -0.2464  0.1211 -0.1231
24250W        W42454   4.948  10.072  11.789 -0.0195 -0.0318 -0.0330
24251W        W42455   7.564  17.314   3.733  0.2020 -0.2155 -0.0689
24252W        W42456   2.626   5.955  14.387  0.1166 -0.0042 -0.1366
24253W        W42457   4.323   1.707   0.854 -0.1563 -0.0653 -0.0305
24254W        W42458   5.365  13.149   2.467 -0.2517  0.1125  0.1243
24255W        W42459   7.434   6.126  11.777  0.2840  0.2693  0.0831
24256W        W42460   1.915   6.575   3.595 -0.0072  0.1145  0.2276
24257W        W42461   6.012   2.921   1.813 -0.0598  0.4248 -0.0908
24258W        W42462   9.071   1.094  13.595  0.1740 -0.1369 -0.3120
24259W        W42463  13.078   0.595  11.648 -0.0009 -0.0955  0.1237
24260W        W42464   4.691   9.777   3.678 -0.0544 -0.3032  0.0252
24261W        W42465   6.463  14.916  13.007 -0.0271 -0.0537  0.2386
24262W        W42466   8.095   5.770  15.249 -0.2180 -0.1039 -0.1310
24263W        W42467  10.348  11.764  11.843 -0.1790  0.1140 -0.1345
24264W        W42468   5.356   7.813   0.026 -0.3531  0.1352 -0.0927
24265W        W42469   7.315   4.292   5.412 -0.0998  0.0871  0.1570
24266W        W42470  18.269  13.931   0.841  0.1177 -0.0623  0.0346
24267W        W42471  13.161   8.052   3.569  0.0293 -0.0293  0.1821
24268W        W42472  13.336   8.021   1.231  0.1207  0.0527 -0.2847
24269W        W42473  12.285  15.087   3.861 -0.0499  0.1201 -0.0418
24270W        W42474   6.361  18.152  13.304 -0.0454  0.0250  0.1762
24271W        W42475   2.274   4.282   0.619 -0.0520 -0.0602 -0.1981
24272W        W42476  16.455   0.663  12.295  0.2158  0.0635  0.3118
24273W        W42477  17.738  13.767  14.944  0.1259  0.4075  0.0728
24274W        W42478  16.292  12.078   3.442  0.1577 -0.2896  0.0339
24275W        W42479   1.006  13.055  15.577  0.2487 -0.0954  0.1090
24276W        W42480  17.609  13.002  15.597  0.0211  0.2112 -0.0505
24277W        W42481  10.247  10.482   3.274  0.1475 -0.1448  0.1733
24278W        W42482  13.788   2.199  13.416 -0.3141  0.2195  0.1284
24279W        W42483   4.778  12.975  12.682 -0.0428 -0.0256  0.1871
24280W        W42484  16.358   1.163  14.191 -0.0831 -0.2836  0.0800
24281W        W42485   0.856  13.076   2.647 -0.1841 -0.2013 -0.0004
24282W        W42486  11.029   9.192   0.932 -0.2267 -0.1965 -0.1716
24283W        W42487   7.017  10.317   4.920  0.1344 -0.0066  0.0243
24284W        W42488   9.878   9.931  14.915 -0.2265  0.1034  0.0175
24285W        W42489  15.832  12.087   2.558  0.1888 -0.0648  0.3136
24286W        W42490  11.643  16.615   3.296  0.3841 -0.1033  0.1605
24287W        W42491   1.437  12.277  12.856 -0.1599 -0.0346 -0.2791
24288W        W42492  17.231  16.644  11.583  0.0962 -0.0433 -0.1294
24289W        W42493  11.287  16.842  13.889  0.0366 -0.0966 -0.0505
24290W        W42494  16.662   3.877  15.424  0.1898 -0.0024  0.1863
24291W        W42495   9.520   5.038  12.279 -0.0302  0.0298  0.0055
24292W        W42496  11.802  17.028   3.486 -0.0311  0.0112  0.1616
24293W        W42497  13.313   2.660  15.104  0.0471  0.0164 -0.1026
24294W        W42498  15.150  15.402   3.161  0.0738  0.2508  0.0345
24295W        W42499   4.891  15.883  14.635 -0.0809  0.1523 -0.0337
24296W        W42500   9.347  12.492   4.738 -0.0250 -0.2927 -0.3743
24297W        W42501  12.437  13.758   2.834  0.0105 -0.0894 -0.2224
24298W        W42502   1.918  12.605  15.493  0.4838  0.0898 -0.0556
24299W        W42503   3.103   2.763  12.861  0.1348 -0.1049  0.1110
24300W        W42504   0.701  11.788   4.420  0.4179  0.0855  0.1542
24301W        W42505   2.104   8.961  10.776  0.1266 -0.3154 -0.3750
24302W        W42506   3.792   4.898   3.714  0.2310  0.1175 -0.1032
24303W        W42507   7.366  15.696   3.683 -0.0112  0.0749 -0.0307
24304W        W42508   7.412   5.328  13.004 -0.2284  0.1185  0.0599
24305W        W42509  10.188   9.139   5.365 -0.3657 -0.0446  0.2245
24306W        W42510  18.331  13.220   1.418  0.1549  0.1369 -0.1030
24307W        W42511   0.748   7.501  15.192 -0.0635  0.2758  0.2704
24308W        W42512  17.335   2.641  12.861 -0.3152  0.1877  0.0527
24309W        W42513   2.932  13.750   1.226 -0.0055 -0.1062 -0.0628
24310W        W42514   7.192   7.043   6.037 -0.4359 -0.0613  0.0824
24311W        W42515   7.798  15.437   3.042  0.3530  0.0080 -0.0553
24312W        W42516  16.344  13.609   3.252  0.0949  0.2514 -0.2204
24313W        W42517  16.585  13.281  10.426 -0.1985 -0.1504  0.2211
24314W        W42518  10.036   5.972  10.985 -0.1088  0.2178 -0.1053
24315W        W42519   5.342  13.404  12.017 -0.1499  0.0214  0.2311
24316W        W42520  15.214  10.458   2.305  0.1396 -0.1004  0.0263
24317W        W42521   8.730   4.300  15.230 -0.1958  0.1798  0.0345
24318W        W42522  13.232   2.745   2.217  0.1830  0.1978 -0.2924
24319W        W42523   6.531  12.559   3.656  0.0946  0.2012 -0.1264
24320W        W42524  12.264   9.064   3.329  0.1329  0.1159  0.0211
24321W        W42525  12.755  11.526   1.780 -0.2889  0.1490  0.1378
24322W        W42526   0.996   8.376   2.054  0.3706 -0.1321 -0.1932
24323W        W42527  18.068   0.688   3.816 -0.0099 -0.0165 -0.3106
24324W        W42528   5.002   6.687  13.794  0.0133  0.2347 -0.3399
24325W        W42529  10.411   7.573   0.672  0.1259  0.2611 -0.1181
24326W        W42530   6.911  10.325   3.550 -0.0078  0.2438 -0.4524
24327W        W42531   4.678  17.392  14.747  0.4275  0.3154  0.4878
24328W        W42532   5.263   1.417   0.433 -0.0577 -0.0079 -0.2694
24329W        W42533   2.618  10.624  15.296 -0.1984 -0.0014  0.0279
24330W        W42534  17.839   4.748  14.435  0.1485  0.4851  0.0355
24331W        W42535  10.183  10.094  13.019  0.0264  0.2587 -0.0904
24332W        W42536  11.831  11.548   4.129 -0.0050  0.0791  0.0350
24333W        W42537   1.170  14.982   3.901  0.0176  0.1329  0.3218
24334W        W42538   8.986  12.803   1.707 -0.0172 -0.0658 -0.0025
24335W        W42539  15.332   2.784  12.526  0.0593  0.2287  0.2579
24336W        W42540  14.632  10.017  14.580 -0.4850  0.0544  0.0323
24337W        W42541   1.387  10.476  12.306  0.3273 -0.1644 -0.1405
24338W        W42542   4.891   9.839  12.777 -0.2305 -0.1318 -0.0964
24339W        W42543   7.872  15.215  13.985  0.1787 -0.0535  0.2699
24340W        W42544   5.703   4.328  14.738  0.3010 -0.0721 -0.2108
24341W        W42545  16.032  13.716   2.723 -0.0566  0.0665  0.1429
24342W        W42546   8.694   3.204  11.905  0.0542  0.4838  0.1775
24343W        W42547   8.820   0.985  14.048  0.2035  0.0117 -0.1986
24344W        W42548  15.387   8.323   1.034  0.1918  0.0169 -0.1304
24345W        W42549  15.022  18.211  14.647 -0.1713 -0.0796  0.0449
24346W        W42550   3.126  16.496   1.798 -0.1211  0.0019 -0.3233
24347W        W42551   5.645   9.478  11.568  0.1085 -0.1096  0.2117
24348W        W42552  11.559   2.566  14.999 -0.1041  0.0027 -0.2732
24349W        W42553  14.338  10.200   3.721  0.1058  0.2023 -0.1690
24350W        W42554   8.641   9.909   0.497 -0.2093 -0.4861 -0.1909
24351W        W42555  18.162   4.712   5.547  0.0510  0.1339  0.3321
24352W        W42556   6.699   5.175   0.440  0.0175  0.0803 -0.1240
24353W        W42557  11.987   9.408  11.109 -0.0050  0.0438  0.2605
24354W        W42558   5.951   6.619  12.574 -0.1517 -0.1294 -0.1374
24355W        W42559   7.234  16.171   5.460  0.2118 -0.0148 -0.0911
24356W        W42560  14.809   7.329  12.033  0.2884 -0.0770 -0.1550
24357W        W42561  17.805  11.263  15.349  0.1223  0.0147  0.2362
24358W        W42562   0.172   0.733  13.149 -0.2666  0.0716  0.1410
24359W        W42563  12.161   1.768  15.683 -0.0237  0.5322 -0.1537
24360W        W42564  10.992  11.384   4.707 -0.0120 -0.2157  0.0924
24361W        W42565  10.319   1.116   1.279  0.1066  0.0126 -0.1848
24362W        W42566  10.839  13.141   5.065 -0.0548  0.0013  0.0089
24363W        W42567  17.205  10.796   2.681 -0.1891  0.0899 -0.1153
24364W        W42568  10.332  17.983   4.255  0.0646  0.4136 -0.2155
24365W        W42569  14.856   5.867   3.914  0.0236 -0.0819  0.1398
24366W        W42570   1.839  16.640   4.169 -0.0463 -0.1585 -0.1736
24367W        W42571   4.690  10.247   2.572 -0.4188  0.4035 -0.1283
24368W        W42572   9.014   4.790   0.492  0.1630 -0.2949 -0.0505
24369W        W42573   3.046  16.924  13.140  0.0561  0.2196 -0.4756
24370W        W42574  10.137   9.579   0.802  0.1042 -0.3929  0.0061
24371W        W42575  14.765   1.383  15.592 -0.1005  0.2098 -0.2344
24372W        W42576   1.192  14.072   2.926  0.1446  0.0386  0.0160
24373W        W42577   2.048   8.320  11.513  0.1715  0.2150  0.0575
24374W        W42578   4.155   1.392  11.643  0.2140  0.0690  0.2699
24375W        W42579   5.031  12.457  15.194 -0.4601 -0.2845 -0.0981
24376W        W42580   7.082  12.573   1.336  0.0716  0.0084  0.1469
24377W        W42581  18.140   1.821   4.437 -0.1795 -0.0134  0.1391
24378W        W42582   8.945   6.566   0.858  0.0772  0.1543 -0.2760
24379W        W42583  16.994   9.460   2.122  0.0948 -0.1231 -0.1098
24380W        W42584  12.778   0.983  11.332 -0.0639 -0.0401  0.1228
24381W        W42585   1.522   3.053  12.421  0.0850 -0.1704  0.3098
24382W        W42586   0.172   0.507   5.551 -0.1896  0.0891  0.3514
24383W        W42587  16.037   2.293   3.466 -0.2957  0.1078  0.0111
24384W        W42588  14.659   0.718  14.508 -0.0523 -0.1762 -0.1120
24385W        W42589  15.903   6.769  11.022 -0.3591  0.1255  0.3838
24386W        W42590   0.325   0.565   1.646 -0.2974 -0.0465 -0.1297
24387W        W42591   2.391  10.791  15.693 -0.1560  0.1680 -0.0536
24388W        W42592  14.485   7.122  10.362  0.0452 -0.2452 -0.0957
24389W        W42593  15.270   9.644  15.099 -0.2243  0.1320  0.2319
24390W        W42594  18.194  16.560   3.457  0.3811  0.0845  0.1953
24391W        W42595   3.908   3.019  11.529 -0.1048 -0.1432 -0.0314
24392W        W42596  17.818   8.505   1.819 -0.2078  0.2765 -0.2411
24393W        W42597   0.177  10.714   0.718 -0.1315 -0.2672 -0.1296
24394W        W42598  10.365  10.516  13.734  0.0782 -0.1755 -0.5214
24395W        W42599  16.504   8.650   1.353 -0.0710 -0.1839 -0.0330
24396W        W42600  13.313   7.357   4.908  0.0786  0.2195  0.0959
24397W        W42601  12.072   9.856   2.054 -0.1530  0.3478  0.1478
24398W        W42602   9.600   6.788   2.522  0.0911 -0.0544 -0.1254
24399W        W42603   3.599  14.855   4.051 -0.1417 -0.1617  0.1352
24400W        W42604  17.301  11.370   2.695 -0.0391 -0.3054  0.0080
24401W        W42605   9.469  17.793   2.994 -0.0241 -0.1910 -0.0455
24402W        W42606   6.600  13.159   0.822  0.0711  0.0027 -0.3532
24403W        W42607   2.892   0.575   0.364 -0.1222 -0.0259 -0.2233
24404W        W42608   9.299  10.637   4.398 -0.0531  0.2756  0.1234
24405W        W42609   8.723   8.909   0.333  0.0199 -0.3386  0.0207
24406W        W42610   0.766  16.939  13.759  0.1739  0.0947  0.0941
24407W        W42611  13.361  11.963  13.421  0.1609 -0.0102 -0.1507
24408W        W42612   1.273   6.475   2.840  0.1376  0.0750  0.0292
24409W        W42613   9.992   6.006  14.591 -0.2177  0.1865  0.0528
24410W        W42614  15.509   0.214   9.914 -0.1028 -0.1103  0.0842
24411W        W42615   5.031   9.560   4.563  0.1209 -0.0705 -0.1051
24412W        W42616   1.176   9.086  12.761 -0.2104 -0.2694 -0.0151
24413W        W42617  10.714   5.752  11.845  0.1241 -0.0017  0.3589
24414W        W42618   4.404   4.476   4.363 -0.2636  0.2700 -0.0118
24415W        W42619   2.696   5.244   1.855 -0.0244 -0.1066 -0.1450
24416W        W42620   1.678   0.914   3.569  0.1211  0.0571 -0.0355
24417W        W42621  14.732  10.386   1.511  0.2297 -0.0827  0.1318
24418W        W42622  17.453   1.505  10.532  0.1112 -0.3371  0.1010
24419W        W42623  13.364  11.659   1.470  0.1896  0.0847  0.0837
24420W        W42624  14.037   0.356  11.952 -0.4859  0.0187 -0.0205
24421W        W42625   1.651  14.313   0.824 -0.0427 -0.5138 -0.1821
24422W        W42626   7.557   0.506  14.558 -0.0566 -0.2583  0.0210
24423W        W42627  12.270  13.869  10.694 -0.1671  0.1070 -0.4225
24424W        W42628  10.238  17.323   1.335  0.0288  0.0103  0.1894
24425W        W42629  11.879  15.491   1.168 -0.2560 -0.0399 -0.1519
24426W        W42630   1.398   1.834  13.912  0.0407 -0.1524 -0.0188
24427W        W42631  16.388   5.411   2.703  0.1078 -0.1273  0.0039
24428W        W42632  10.700  12.099   2.131 -0.0076 -0.1173  0.0138
24429W        W42633  16.464  13.036   3.454 -0.2707  0.2508  0.1573
24430W        W42634   9.456  15.799  13.917 -0.2011 -0.0709  0.2652
24431W        W42635  16.959   1.064   4.356 -0.0688 -0.1989 -0.1463
24432W        W42636   7.645   8.939  15.062 -0.1937  0.1851 -0.2592
24433W        W42637  18.100  12.577   1.247  0.0723 -0.0222  0.1236
24434W        W42638   4.209  12.517  12.960  0.2553  0.1704  0.3280
24435W        W42639   1.469  10.571   2.726 -0.2431 -0.3059 -0.1008
24436W        W42640   7.470   4.579   4.906  0.1531 -0.2240 -0.3659
24437W        W42641  12.322   1.856   3.520 -0.1796  0.2495  0.2016
24438W        W42642  15.043  16.657  13.910  0.0108 -0.0536 -0.1863
24439W        W42643   0.243   3.061   3.949  0.0399  0.0990  0.0668
24440W        W42644   5.551   4.945   1.699 -0.1732 -0.1100  0.4565
24441W        W42645  15.527  10.163   2.535  0.0286  0.1266 -0.0095
24442W        W42646   3.735  18.064   2.758 -0.1103 -0.1242  0.0141
24443W        W42647   1.826   2.843  12.807 -0.0897  0.0464 -0.4657
24444W        W42648  15.167  14.394  12.535  0.0785 -0.1258  0.0743
24445W        W42649   7.042   0.893   4.400  0.0089  0.0074  0.1578
24446W        W42650   0.428  15.410  13.490  0.1924 -0.0125  0.3307
24447W        W42651  13.384  10.450  10.308  0.1950  0.4291  0.0744
24448W        W42652  10.875  17.424   3.330 -0.1378  0.0469  0.1136
24449W        W42653   4.009  11.171   4.533  0.0592  0.1053  0.1360
24450W        W42654  18.321  16.033   3.169 -0.3107 -0.0419  0.0197
24451W        W42655  13.404  12.634   2.543 -0.2808  0.0347  0.2085
24452W        W42656   2.406   4.613   3.802  0.0573 -0.0975  0.1051
24453W        W42657  10.272  17.056  13.644 -0.0475  0.1135  0.2810
24454W        W42658   7.217   5.688   0.614 -0.1015  0.0226  0.3627
24455W        W42659   6.231   1.316  14.961 -0.0276  0.1546  0.2324
24456W        W42660  16.807  13.850   4.321  0.2727  0.0408  0.0061
24457W        W42661  12.951   6.217  12.070 -0.2141  0.1389  0.0728
24458W        W42662   6.401  15.825  12.695 -0.1484 -0.1360 -0.2504
24459W        W42663  17.895   7.208   0.280  0.2049  0.0006  0.1809
24460W        W42664  17.870   8.465  15.303 -0.3276  0.4159 -0.0187
24461W        W42665  16.696   0.131   1.489  0.1723 -0.0703  0.1945
24462W        W42666  13.841   4.032   3.578 -0.0630  0.0956 -0.1675
24463W        W42667   4.948  12.703   4.500  0.3173  0.1411 -0.1513
24464W        W42668  11.598   6.452   4.993 -0.0381  0.0689 -0.1266
24465W        W42669  15.043   8.112   2.506  0.0158 -0.0460  0.0215
24466W        W42670   2.816  16.253   3.111  0.1209 -0.0393  0.3325
24467W        W42671  16.765  12.674   2.420  0.4651  0.0746  0.0547
24468W        W42672  10.702  12.339  15.146 -0.1193  0.0698 -0.1050
24469W        W42673  13.428  17.613  11.240  0.1798 -0.1365 -0.1120
24470W        W42674   8.140   8.563   0.855 -0.0782  0.1486  0.0124
24471W        W42675  15.957   8.263   4.679 -0.3790 -0.0043  0.0683
24472W        W42676  13.589  11.728  14.325 -0.0079 -0.0227 -0.0502
24473W        W42677   6.604   0.253  15.719 -0.3080  0.0658  0.1805
24474W        W42678   9.507  12.084   2.254  0.0688  0.1833 -0.1756
24475W        W42679  13.847   7.219  13.971 -0.0379 -0.0901 -0.0378
24476W        W42680  16.727   2.498  14.327  0.1036 -0.0346 -0.1091
24477W        W42681   1.308  15.919   4.418 -0.1603  0.0886 -0.3016
24478W        W42682   2.251   4.546   1.542 -0.1024 -0.1484 -0.1810
24479W        W42683   8.054   2.773   2.957 -0.0020  0.0730  0.3037
24480W        W42684  11.208   1.857  15.595  0.3892 -0.3471  0.0644
24481W        W42685   5.523  17.967  11.917  0.1001  0.1966 -0.3899
24482W        W42686  15.086   8.663   2.590  0.3828 -0.1902 -0.1675
24483W        W42687   4.865   8.859   1.053  0.3317 -0.1104  0.0989
24484W        W42688   6.603  15.223  10.395  0.2984 -0.2660  0.0705
24485W        W42689  16.185   9.605   0.091  0.1377 -0.1760  0.1895
24486W        W42690   5.200   0.983   2.933  0.2709 -0.4351 -0.0068
24487W        W42691   0.536   7.870   4.635  0.2143  0.2199 -0.0653
24488W        W42692  16.885  10.096  15.669 -0.1667  0.0265  0.0324
24489W        W42693  11.752  15.324  15.038 -0.0586 -0.0895 -0.1866
24490W        W42694  17.061   9.810   5.301 -0.1017 -0.1774  0.2845
24491W        W42695  10.652  15.616  12.585  0.0640  0.1128 -0.0623
24492W        W42696  12.743   3.069   3.135 -0.2381 -0.1688  0.5710
24493W        W42697  15.359   4.745   2.517  0.3934  0.0884  0.0594
24494W        W42698  15.675  17.913  11.037 -0.1793  0.2191 -0.0823
24495W        W42699  16.664  11.796   2.136  0.0571 -0.3235  0.1789
24496W        W42700   1.264   2.728  14.053 -0.1910 -0.1629  0.2146
24497W        W42701  11.756   7.398   0.243  0.0623 -0.0533 -0.0704
24498W        W42702  16.798  16.860  13.868  0.1222 -0.0677  0.2456
24499W        W42703   7.467  11.020   1.771  0.0053 -0.1957  0.0826
24500W        W42704   5.796   2.115  11.363 -0.1238 -0.1190 -0.1970
24501W        W42705   3.610   1.715   3.281  0.0828 -0.0105  0.0006
24502W        W42706  12.904  11.021   0.659  0.0644 -0.1110 -0.1342
24503W        W42707  12.688   3.720  14.136  0.1641 -0.0622 -0.0408
24504W        W42708   9.754   8.334  13.704 -0.1665 -0.0463  0.0940
24505W        W42709   6.238  14.595   1.096 -0.0942  0.1047  0.0281
24506W        W42710  12.214  11.350   1.689 -0.1243  0.0693 -0.0127
24507W        W42711   0.874   6.529   3.688 -0.2219  0.2025  0.3269
24508W        W42712  13.566   1.622   1.460  0.0540  0.2338  0.1417
24509W        W42713  14.170  13.347  11.416  0.0901 -0.1930  0.0117
24510W        W42714  14.369  10.644   2.212  0.1476  0.3452  0.0809
24511W        W42715  17.002  15.332   2.502 -0.1045  0.2282 -0.0616
24512W        W42716   6.405   4.468  12.065  0.1046  0.1796  0.2997
24513W        W42717  15.783   2.649  14.783  0.0185 -0.1068 -0.0560
24514W        W42718  16.143  12.263  14.626  0.2050  0.1044 -0.1666
24515W        W42719   5.683   6.439   2.575 -0.1374 -0.3725 -0.2874
24516W        W42720   0.310  16.579  12.033  0.0770 -0.1516 -0.0978
24517W        W42721   2.514  17.537   2.446  0.0929 -0.1772  0.2290
24518W        W42722  11.605  13.411   4.712  0.3575  0.2354  0.3299
24519W        W42723  10.228   4.293  13.378  0.0288  0.2665  0.0030
24520W        W42724  12.512  11.790   5.300 -0.0702 -0.1272 -0.1030
24521W        W42725   5.773   0.136  12.878  0.1206  0.3850  0.0578
24522W        W42726   0.943  13.301   1.475 -0.0436 -0.1610 -0.0164
24523W        W42727  12.875   2.821   0.166 -0.3299  0.2551  0.1068
24524W        W42728   3.576  16.786  13.967 -0.0263  0.0763 -0.3336
24525W        W42729  11.801  15.370  15.561  0.2585 -0.0720  0.0519
24526W        W42730  10.109   8.076  13.913  0.0554 -0.2739  0.2148
24527W        W42731   2.879  15.259  14.577  0.1405  0.0500  0.0263
24528W        W42732  10.182  17.345   1.857  0.1168 -0.0921  0.0978
24529W        W42733  11.429  11.055   1.597 -0.2094 -0.1937 -0.2409
24530W        W42734   1.484   0.842   0.529 -0.3780 -0.1519  0.2706
24531W        W42735  14.136  15.842  15.026  0.0161 -0.0408 -0.0474
24532W        W42736   8.948  14.131  12.981  0.1382  0.1157  0.0469
24533W        W42737   0.552  17.222   0.154 -0.1443 -0.0191  0.1716
24534W        W42738  12.542   1.594  12.494 -0.1764 -0.1030 -0.4418
24535W        W42739   0.806  15.004   0.269 -0.0039 -0.0593 -0.3012
24536W        W42740   5.380   2.614   1.809  0.5349 -0.1101  0.0834
24537W        W42741   2.206  16.543  13.216  0.2320  0.1217  0.0400
24538W        W42742  11.560   0.082  14.941 -0.1141  0.1467  0.0379
24539W        W42743  16.349  12.055   1.195  0.0474 -0.0902 -0.0601
24540W        W42744  14.860  15.663   0.685 -0.0195 -0.6142 -0.2260
24541W        W42745   1.734   8.998  12.988 -0.1083  0.0479 -0.0059
24542W        W42746  11.996   6.763   4.626  0.0349 -0.0149 -0.0355
24543W        W42747   1.272  14.438  13.858 -0.2684 -0.1993 -0.0180
24544W        W42748   6.296  16.866  11.650 -0.0386 -0.0581  0.0718
24545W        W42749  16.844   9.767  11.243 -0.0642 -0.0828 -0.0282
24546W        W42750   5.288   7.605   2.537  0.1491 -0.2059 -0.0066
24547W        W42751   4.714  17.599  12.074 -0.0489 -0.3447 -0.0141
24548W        W42752   4.241  17.184  12.264  0.0149 -0.0750 -0.0029
24549W        W42753  16.468   5.999   1.044 -0.0230  0.0529 -0.1207
24550W        W42754  17.360   3.401  15.082 -0.4354  0.0183  0.1796
24551W        W42755   9.649   2.151  13.117 -0.1408  0.1785 -0.0565
24552W        W42756  13.851  17.851  11.322 -0.0462 -0.4193 -0.0302
24553W        W42757   2.124   7.760   0.962 -0.1128 -0.0578  0.1806
24554W        W42758   7.057  17.859   3.699 -0.0436 -0.3343 -0.2243
24555W        W42759   6.457   2.723   0.670 -0.0637 -0.0291 -0.2623
24556W        W42760   7.664   1.490  11.428  0.1658 -0.1236  0.0115
24557W        W42761  10.304   9.964  14.128 -0.3230  0.0299  0.0225
24558W        W42762   9.988  16.859  13.018 -0.1098  0.1213 -0.1382
24559W        W42763  10.028  10.682  11.167 -0.1162 -0.0594 -0.0991
24560W        W42764   1.594  16.875  12.183  0.2647 -0.2143 -0.1579
24561W        W42765   5.616   1.461  14.457  0.0562 -0.0869 -0.0029
24562W        W42766   1.897   7.617  15.352 -0.1092 -0.2628  0.3372
24563W        W42767   8.354  15.044  11.917 -0.1010  0.1855  0.0784
24564W        W42768   3.403  16.336  13.765 -0.0263 -0.0227 -0.0491
24565W        W42769   7.780   9.253   1.859  0.0562  0.1605  0.1194
24566W        W42770   3.499   4.270  10.624  0.0474 -0.1976 -0.0192
24567W        W42771   7.602   7.545   4.748 -0.0357  0.0536  0.1754
24568W        W42772   0.213   8.960  14.108  0.0671  0.0924  0.0677
24569W        W42773  17.775   4.711   1.184  0.4128 -0.0318  0.1043
24570W        W42774  17.526   8.343   4.137 -0.1422 -0.1488 -0.1951
24571W        W42775  11.802  13.012   0.004 -0.1618  0.4173 -0.2076
24572W        W42776   4.186   9.640   3.474 -0.3831  0.0628 -0.1356
24573W        W42777   9.065  14.449  12.317 -0.0028  0.0000  0.1972
24574W        W42778  10.684  10.209  12.772  0.2075  0.0133  0.1782
24575W        W42779   4.257   0.696   3.192  0.0090  0.3857 -0.1952
24576W        W42780   1.441   3.205   4.370 -0.3122 -0.1678 -0.3331
24577W        W42781   3.345   5.066  11.982  0.1815  0.2458  0.0991
24578W        W42782   5.217   9.244   0.776 -0.2678 -0.0544  0.0836
24579W        W42783   3.996  14.079  13.639 -0.2129 -0.3558 -0.0383
24580W        W42784  14.561  12.532   1.988  0.3134  0.3172  0.1227
24581W        W42785  13.036   3.923  11.165  0.2447  0.1808 -0.0137
24582W        W42786   1.458   3.404   1.790 -0.0707 -0.1866 -0.0564
24583W        W42787  17.250   4.641   1.035 -0.0181 -0.4932  0.0433
24584W        W42788  10.442  10.545   2.247  0.1859  0.0261  0.1481
24585W        W42789   0.180  13.282  13.532 -0.0568  0.1292  0.1110
24586W        W42790  13.162   5.428   0.312 -0.0861  0.0118 -0.1027
24587W        W42791   2.318   1.036   2.962  0.1263 -0.0105  0.0621
24588W        W42792  11.594   8.741  12.571  0.1822 -0.3561  0.2495
24589W        W42793  10.870  14.633   1.034 -0.2383  0.0289  0.1546
24590W        W42794  16.234  13.128   0.493 -0.0841  0.2810 -0.0439
24591W        W42795  10.829   1.867  13.867  0.0931  0.1378 -0.1031
24592W        W42796  10.587   7.629  12.134 -0.2586 -0.3954 -0.2598
24593W        W42797   4.108   5.546  15.147 -0.1415 -0.0955  0.1619
24594W        W42798   5.742   7.388  14.619  0.1409 -0.0042 -0.1874
24595W        W42799   0.349   5.583   0.741 -0.0545  0.1970 -0.3411
24596W        W42800   0.162   3.684   3.393 -0.1216  0.0552  0.0014
24597W        W42801  14.287   4.082  13.020 -0.0379  0.0004  0.1065
24598W        W42802   1.992  15.750  15.523  0.2962 -0.3145  0.1309
24599W        W42803   4.495  16.655   3.595  0.0325  0.0683 -0.1170
24600W        W42804   2.406  10.475  14.447  0.0808 -0.0882  0.1108
24601W        W42805  18.255   4.892  14.072  0.3954  0.1736  0.1758
24602W        W42806   1.385  15.878  12.206  0.2324  0.2700 -0.1481
24603W        W42807   1.883   0.031  13.131 -0.1323  0.0700  0.0819
24604W        W42808  11.387   7.255  11.662 -0.0153 -0.1000 -0.0885
24605W        W42809  14.289  16.272  12.576  0.0419  0.1243 -0.1909
24606W        W42810  15.925  17.971   1.830 -0.0871  0.2706 -0.1489
24607W        W42811  14.499   3.372  15.453 -0.3295 -0.0144 -0.0283
24608W        W42812   2.303   5.714  13.969  0.0020 -0.1405 -0.1920
24609W        W42813   3.785   4.243  11.137 -0.3016 -0.1165  0.1502
24610W        W42814  17.156   6.104   0.383 -0.0001 -0.1410 -0.0688
24611W        W42815  11.110   8.906   0.130 -0.1353 -0.0095 -0.1530
24612W        W42816   9.190  10.910   0.407 -0.0927  0.3025 -0.0879
24613W        W42817   0.623  12.597  12.540  0.1158 -0.3022  0.1232
24614W        W42818  16.770   1.186   2.072 -0.1411  0.1154 -0.0093
24615W        W42819  10.450  10.628   2.778  0.2859  0.0900  0.1193
24616W        W42820  14.763   8.973  15.100 -0.0875 -0.0285 -0.3189
24617W        W42821   6.336   4.395  10.556  0.2098 -0.2097 -0.1267
24618W        W42822  16.451  10.951  14.571  0.1025  0.2623 -0.1243
24619W        W42823  10.184   9.566  12.221 -0.0874  0.3314  0.1692
24620W        W42824  15.904  11.885   4.610 -0.1322 -0.2437 -0.0892
24621W        W42825  15.121   6.528   3.505  0.0607  0.0759 -0.3491
24622W        W42826   0.358   2.149  14.375  0.1496  0.0840 -0.1076
24623W        W42827  17.366   5.546   2.798 -0.0108  0.1842 -0.1389
24624W        W42828   9.090   4.689   1.898  0.1801 -0.0831 -0.0117
24625W        W42829   9.596   0.407   0.329 -0.2557 -0.0873 -0.0276
24626W        W42830  10.997  16.729   4.470  0.0162 -0.2321  0.0792
24627W        W42831  12.767  16.814   5.625 -0.0553  0.1354 -0.1787
24628W        W42832   8.156   6.861   3.679 -0.0197  0.1588 -0.0724
24629W        W42833  13.123   4.592   3.979  0.1635 -0.0241  0.0082
24630W        W42834  12.791   3.465   1.020  0.1190  0.1112 -0.0104
24631W        W42835  10.789   7.050   3.205 -0.1687  0.0115  0.1443
24632W        W42836  15.790   1.918   3.181  0.4119  0.0050 -0.1287
24633W        W42837   0.063   0.024  13.713 -0.2265  0.3769  0.1644
24634W        W42838   7.954   2.022   0.938 -0.2766  0.3621  0.0692
24635W        W42839   2.507   6.083   2.558  0.1159 -0.0296 -0.1637
24636W        W42840   4.085   6.613  12.980 -0.1707  0.2010  0.0628
24637W        W42841  10.432   4.907   1.613 -0.0574 -0.0445 -0.1095
24638W        W42842   2.920  12.761   3.899 -0.0884 -0.0034  0.1084
24639W        W42843  13.154   6.651  12.824 -0.0177 -0.1480 -0.0179
24640W        W42844  14.432   7.259   4.516  0.0972  0.1599 -0.2127
24641W        W42845   3.202   4.120  12.154  0.1965 -0.2905 -0.1546
24642W        W42846  17.409   8.614   1.292 -0.2944  0.4039  0.2953
24643W        W42847  11.990   1.003   0.689  0.0558 -0.2410  0.0625
24644W        W42848   7.473   6.565   4.876  0.1042 -0.0247  0.1274
24645W        W42849  15.027   3.637  15.177  0.0609  0.0326  0.0884
24646W        W42850   1.774   4.035  10.127  0.0353 -0.0880 -0.0096
24647W        W42851  12.449  17.780  12.416  0.3632  0.0593  0.0916
24648W        W42852  10.097  17.038   0.562 -0.3191  0.3039 -0.4534
24649W        W42853   8.475  14.810  13.306 -0.2086 -0.0875 -0.1070
24650W        W42854   7.146  11.140  14.384  0.2594 -0.0523  0.3191
24651W        W42855   5.471  12.585   2.004  0.0095 -0.0789 -0.0112
24652W        W42856  11.355   3.812  11.067  0.1569 -0.0039 -0.0977
24653W        W42857   2.250   0.224   1.714  0.0329  0.1615 -0.1015
24654W        W42858   3.882  17.446  13.040  0.0393 -0.0499 -0.0662
24655W        W42859  13.291  17.310   1.851 -0.2284 -0.1321  0.0817
24656W        W42860  12.540  11.180  12.222 -0.1970  0.0956 -0.1345
24657W        W42861   0.063  14.562  13.353  0.2430  0.1193  0.1714
24658W        W42862   9.013   3.420  13.749  0.0771  0.1355  0.0763
24659W        W42863  15.446   7.885   2.274 -0.0344  0.1567 -0.1135
24660W        W42864   6.690  11.160   1.872 -0.2028  0.2287 -0.1437
24661W        W42865   3.802   8.609  11.035  0.0059  0.2012 -0.4444
24662W        W42866  17.478   5.394  13.695 -0.1201 -0.0391  0.2649
24663W        W42867  16.091   0.106   0.815  0.0796  0.0443  0.1312
24664W        W42868   6.506   1.560   1.787 -0.3369  0.2389  0.4260
24665W        W42869   7.570  14.085  14.063  0.2982  0.0539 -0.0574
24666W        W42870   8.608  15.332  13.711 -0.2248 -0.1263  0.3519
24667W        W42871  15.445   3.618  14.716 -0.1127 -0.1016 -0.0631
24668W        W42872  17.811   4.259   2.966 -0.0898 -0.0650 -0.2366
24669W        W42873   1.788  12.909  10.283  0.1749  0.3503 -0.0151
24670W        W42874  12.793  11.489  14.890  0.2166  0.0391 -0.0791
24671W        W42875  17.589   9.639   2.586 -0.1171  0.0543  0.1355
24672W        W42876   5.846   1.102   4.155  0.2505  0.0872  0.1369
24673W        W42877   1.949   9.677  11.276  0.3197  0.0559  0.2177
24674W        W42878   0.857   9.963  11.853 -0.1419 -0.2710  0.2193
24675W        W42879   8.828  12.716  13.721  0.4693 -0.0155 -0.1131
24676W        W42880   9.827   7.085  11.772 -0.0096  0.0780  0.4484
24677W        W42881   6.393   9.980   1.559  0.0722  0.3276 -0.2343
24678W        W42882  15.135   6.647   1.868 -0.0332  0.2380 -0.1129
24679W        W42883   5.973   5.974  13.873 -0.0242 -0.0600 -0.1305
24680W        W42884  14.294   4.226   4.335  0.0607  0.1336  0.0653
24681W        W42885   0.260   6.144  14.249  0.0462 -0.0782 -0.0265
24682W        W42886  16.606  13.235   1.742  0.1275  0.3070 -0.1061
24683W        W42887  16.221  15.838   2.258  0.0592  0.0340 -0.0408
24684W        W42888  15.348  17.222   0.709 -0.1254 -0.0087  0.0535
24685W        W42889  16.785  13.543  12.113 -0.1033 -0.1615 -0.0409
24686W        W42890  11.765   1.999   4.718 -0.0187  0.2917 -0.0460
24687W        W42891  12.891  15.330   2.734 -0.0589  0.1404 -0.2638
24688W        W42892   0.829   7.949   2.136  0.1937 -0.0330 -0.1044
24689W        W42893  15.181   5.083   0.032  0.0148  0.2358 -0.0313
24690W        W42894  11.407   1.846   3.900 -0.1894 -0.3435 -0.0695
24691W        W42895   0.938  13.689  11.813  0.0624 -0.1407  0.3331
24692W        W42896   6.669   0.391  11.678 -0.3881  0.1197 -0.1215
24693W        W42897  10.758  16.056   2.651 -0.0624 -0.0609 -0.0735
24694W        W42898   0.307   4.724   2.139 -0.0838  0.1772  0.0196
24695W        W42899  16.416   9.732  14.809  0.0052 -0.1361 -0.2139
24696W        W42900   1.005   4.977   0.400  0.0520 -0.0357  0.0842
24697W        W42901  17.062  16.746  12.715 -0.0896  0.0441  0.1088
24698W        W42902  11.195  14.263   4.871  0.2356  0.2274 -0.2864
24699W        W42903   3.485  17.248  12.713 -0.0334 -0.0174  0.0845
24700W        W42904  12.506  13.036  14.087 -0.0150  0.1093 -0.2432
24701W        W42905  17.067   6.844   3.705  0.0172 -0.1932 -0.2621
24702W        W42906  15.223   2.680   0.405 -0.1798  0.1299 -0.1295
24703W        W42907   6.084   2.304   0.722 -0.0137 -0.0106  0.1341
24704W        W42908  11.682   1.808   0.087  0.1180  0.4316 -0.0202
24705W        W42909  17.010   5.912   1.045  0.0976  0.1881 -0.2234
24706W        W42910  11.268  17.816  13.776 -0.0603  0.0022  0.0687
24707W        W42911  13.328   9.255  13.566  0.0565  0.4141 -0.0619
24708W        W42912   7.035  18.283   4.430 -0.2231  0.0675  0.0375
24709W        W42913   8.128   1.989  11.112 -0.0735  0.1011  0.3224
24710W        W42914  11.079   4.526   4.566 -0.0133  0.0404  0.0134
24711W        W42915  12.871   2.324   2.335  0.0519 -0.1054  0.2631
24712W        W42916   0.837  11.000   4.720 -0.0349  0.3310 -0.0218
24713W        W42917   7.430  11.206  13.874 -0.0160  0.0796 -0.0019
24714W        W42918  15.375   8.455  12.073 -0.0560  0.0698 -0.3029
24715W        W42919  12.589   7.591   1.831 -0.1057  0.3451 -0.2135
24716W        W42920  14.165  16.201   1.546  0.0248 -0.3929  0.2172
24717W        W42921  14.032   2.295   2.484  0.1481  0.2785 -0.0183
24718W        W42922  17.824  15.289   3.094 -0.0571  0.0792 -0.0821
24719W        W42923  17.171  16.282  12.363 -0.5197  0.1474 -0.1211
24720W        W42924   7.876   3.222  13.825  0.1591  0.1356  0.0510
24721W        W42925  15.459  17.372  13.637 -0.1175 -0.0533  0.1255
24722W        W42926   0.688  13.814  14.434  0.0935  0.1238  0.0834
24723W        W42927   1.977   1.465  11.660  0.1983  0.0114 -0.2021
24724W        W42928  13.890   7.505  14.543 -0.2292 -0.1396 -0.0894
24725W        W42929   1.128   2.300   3.180 -0.1778  0.0732  0.1234
24726W        W42930  16.336  17.374   2.580  0.0069 -0.1923  0.1087
24727W        W42931   3.718  17.096   3.706  0.0999  0.0294 -0.0994
24728W        W42932   7.803   5.397  15.546  0.2473  0.1969  0.2923
24729W        W42933  17.721   9.082   3.492 -0.2005  0.2480  0.3380
24730W        W42934   1.208  16.002   1.059 -0.2221 -0.3389 -0.1653
24731W        W42935   0.772   5.440  14.316 -0.1236  0.0435  0.0308
24732W        W42936  17.677   5.756  13.351 -0.0120  0.0256 -0.0765
24733W        W42937  15.062  13.817   1.998  0.1381 -0.0722  0.0619
24734W        W42938  15.420   2.798  13.415 -0.3881 -0.1915 -0.1825
24735W        W42939  11.854  16.485   1.729  0.1914  0.2926  0.4253
24736W        W42940  10.801  10.263  13.841 -0.3245  0.2991  0.1340
24737W        W42941   6.582   3.041  13.441 -0.0348 -0.1072  0.0947
24738W        W42942  10.417  16.991   0.126 -0.1229 -0.0761 -0.0336
24739W        W42943   8.596  16.927  12.563  0.1216 -0.0837 -0.1761
24740W        W42944   5.791  13.350  13.665 -0.3737  0.0262 -0.1601
24741W        W42945  18.054  17.117  12.854 -0.1857 -0.1003  0.1445
24742W        W42946  12.818   4.063  12.837  0.5353  0.1207  0.0647
24743W        W42947   6.203  17.333  15.650  0.0820 -0.2648 -0.2580
24744W        W42948   7.904   2.509   0.835  0.0510 -0.1044 -0.0042
24745W        W42949   8.076   1.184  14.752  0.2338  0.0673 -0.0288
24746W        W42950  13.160   0.081  14.644  0.1575  0.1468  0.0132
24747W        W42951  16.173  14.948  12.929  0.2255  0.0870 -0.0342
24748W        W42952  15.030   9.993   2.322  0.0617 -0.1155  0.0559
24749W        W42953   9.095   4.195   1.022  0.0149 -0.0707  0.1007
24750W        W42954   8.763   1.195   4.742  0.1361 -0.0764 -0.2197
24751W        W42955   6.292  16.156  13.585 -0.0537  0.1150 -0.0565
24752W        W42956  12.402   1.948   0.351 -0.2001 -0.0834 -0.0945
24753W        W42957   6.072   1.840   4.437 -0.0564  0.2916  0.4004
24754W        W42958  14.667  17.834  11.136 -0.0319  0.0414  0.4563
24755W        W42959   5.054  13.969   4.533 -0.0452 -0.1259 -0.2267
24756W        W42960   6.885   8.711  13.234 -0.0355 -0.1878 -0.0241
24757W        W42961  15.237   5.369  11.850  0.2219 -0.0037  0.2692
24758W        W42962  13.398   7.494  13.678  0.0669  0.0529  0.2385
24759W        W42963  16.792   0.254  14.267 -0.1906  0.0962  0.2548
24760W        W42964  14.895   9.339   4.136  0.2845 -0.0128 -0.0928
24761W        W42965   1.602   8.037  15.306  0.1661 -0.0331  0.1133
24762W        W42966  14.129  13.452  13.216 -0.2705 -0.1206 -0.0746
24763W        W42967   9.155   2.521   4.657  0.1515  0.3145 -0.0760
24764W        W42968   8.086  10.192  13.814 -0.0770  0.0635  0.0249
24765W        W42969  14.777   3.464  12.874  0.2737  0.0650 -0.1863
24766W        W42970   7.798  14.943   1.244  0.2414 -0.2003  0.1168
24767W        W42971   4.240  13.461   4.438 -0.2160 -0.0195  0.1424
24768W        W42972  14.251  15.250   4.700  0.1910  0.1509  0.1280
24769W        W42973  17.444   8.190   1.690  0.3083  0.0749 -0.0439
24770W        W42974  12.592  16.097  13.493 -0.0154 -0.0877  0.1220
24771W        W42975   7.314  15.568   2.755  0.0642  0.1113  0.1102
24772W        W42976  11.026   2.239  15.273  0.0065 -0.1050 -0.2386
24773W        W42977   8.361  17.990  11.488 -0.0684 -0.1365 -0.0826
24774W        W42978   5.586   6.389   3.751  0.0311  0.2755 -0.1450
24775W        W42979  16.904   6.491  11.957  0.1097  0.0471  0.0109
24776W        W42980  14.909   1.885   2.870 -0.0234 -0.0056  0.1074
24777W        W42981   0.547   7.888   4.081 -0.1257  0.2548 -0.0285
24778W        W42982  13.350   9.370   0.690 -0.1792 -0.0854  0.0769
24779W        W42983  12.674  17.735  13.199 -0.3944 -0.1643 -0.3492
24780W        W42984   4.507   7.422   2.637 -0.0021 -0.1622 -0.0701
24781W        W42985   7.352   3.832   0.833 -0.0600  0.0332 -0.2118
24782W        W42986   0.613   9.134  11.534  0.0346  0.0694 -0.0532
24783W        W42987  12.899  15.236  11.408 -0.1980  0.0495  0.1123
24784W        W42988   8.412  15.898  15.198  0.0120  0.0297 -0.0662
24785W        W42989   8.376  11.369   4.641  0.1876 -0.1986  0.1377
24786W        W42990  13.639  14.766  13.324 -0.3148 -0.1570  0.2302
24787W        W42991   2.112  11.797   0.913  0.1341  0.4507  0.1700
24788W        W42992  13.319  12.468   3.581  0.2000  0.1484  0.0568
24789W        W42993  14.593  13.235  11.662  0.0664 -0.0289  0.2024
24790W        W42994   9.790  16.716  14.186 -0.3295  0.2910 -0.2281
24791W        W42995   2.954   9.062   0.485  0.1208 -0.0608  0.1975
24792W        W42996  17.393  10.471   3.595 -0.0522  0.1940 -0.0324
24793W        W42997   7.987   1.706   3.891 -0.2599  0.0275  0.2653
24794W        W42998  18.233  11.023  15.193 -0.0145 -0.1092  0.1563
24795W        W42999   6.399  14.506  13.325  0.3222  0.3524  0.1990
24796W        W43000   3.528   1.560   5.771 -0.1595 -0.1827  0.0256
24797W        W43001   6.788  13.092   0.339  0.0185 -0.0421  0.4829
24798W        W43002  10.391   1.722  12.040 -0.0183 -0.2389 -0.0477
24799W        W43003  15.334  10.759  14.447 -0.2892 -0.1555  0.4385
24800W        W43004   7.655  17.304  11.815  0.0727 -0.3459  0.1385
24801W        W43005   1.130   8.178  11.825 -0.2314  0.2830  0.0915
24802W        W43006  17.295  12.889   2.740 -0.1355 -0.1133 -0.0826
24803W        W43007   9.335   1.711   1.882  0.4618 -0.1126  0.0004
24804W        W43008  10.806  13.350  13.371 -0.1112 -0.4206  0.0930
24805W        W43009   8.195   9.034  14.098  0.0835  0.2031  0.1808
24806W        W43010  17.577  14.490  14.655 -0.1523 -0.0009 -0.1599
24807W        W43011   4.546  16.602   2.041 -0.2065  0.1420 -0.3465
24808W        W43012  12.455  10.446   3.075 -0.1503 -0.2730 -0.0041
24809W        W43013  14.511   5.983   0.864  0.1791  0.0489 -0.2463
24810W        W43014   1.713  14.322   3.800 -0.0078  0.1722  0.0212
24811W        W43015  17.859   6.107  15.208 -0.0487 -0.1248  0.0525
24812W        W43016   8.405   1.542   2.097  0.1647  0.1943  0.2508
24813W        W43017   2.056   3.210   0.538 -0.3936 -0.0210  0.1031
24814W        W43018   5.206  17.796   3.836  0.0946  0.0461 -0.2716
24815W        W43019   7.331   8.779   1.380  0.1078  0.0187  0.0693
24816W        W43020   2.825   8.087  13.416  0.1228  0.0856 -0.1480
24817W        W43021   0.323   6.647  12.174  0.0334 -0.0042  0.0677
24818W        W43022  16.999  10.235   3.391 -0.1531 -0.1515 -0.1023
24819W        W43023   6.064   3.022  13.684 -0.2746  0.4529  0.3071
24820W        W43024   9.416   9.992  14.588  0.2296  0.0212 -0.1273
24821W        W43025  15.106  15.797  13.272  0.0951  0.1801  0.1202
24822W        W43026   8.525   0.113  14.225 -0.1872  0.0945 -0.1046
24823W        W43027  13.304   8.328  13.348  0.0876  0.1980 -0.0874
24824W        W43028  16.201   6.324   5.102 -0.0506  0.0793  0.3927
24825W        W43029   3.887  13.474   0.558 -0.1339  0.0872 -0.5278
24826W        W43030  15.694  13.887  11.342 -0.0521  0.0217 -0.3030
24827W        W43031  16.094  12.416   0.882 -0.2400 -0.1796  0.1786
24828W        W43032  15.217  17.478   1.821 -0.0938  0.0228  0.1298
24829W        W43033   2.409   9.979  14.419 -0.0113 -0.1008 -0.0927
24830W        W43034   7.711   2.897  14.914  0.3020 -0.2707  0.0593
24831W        W43035  15.224  12.958  13.990  0.0086  0.2083 -0.0238
24832W        W43036   4.345   5.491  13.792 -0.1304  0.0500  0.2085
24833W        W43037  14.017  16.607   3.011 -0.2438 -0.0411 -0.3678
24834W        W43038  12.073   4.658  12.521  0.0626 -0.2173  0.1566
24835W        W43039   8.602  10.265   0.039 -0.1444 -0.0063 -0.5163
24836W        W43040   4.469   4.621   1.005 -0.0314 -0.2542 -0.0648
24837W        W43041   3.387   9.999   9.991  0.0388 -0.0448 -0.1394
24838W        W43042   5.019   4.210  12.526 -0.2329  0.1661  0.0509
24839W        W43043   9.827  14.512  13.687 -0.3083 -0.0764 -0.1344
24840W        W43044   8.048   5.015   2.589  0.1079  0.2697 -0.0728
24841W        W43045   2.352  15.140  15.412  0.1020 -0.1178  0.0906
24842W        W43046  16.435   4.633   4.111 -0.0235 -0.0383 -0.0451
24843W        W43047   7.417   7.473   2.492 -0.5727 -0.0108  0.0438
24844W        W43048   5.381  16.289   2.029  0.0319  0.1809  0.0674
24845W        W43049  15.579   8.820   0.999 -0.2270 -0.0888  0.1388
24846W        W43050  16.266  12.663   4.699  0.0514 -0.1797 -0.3663
24847W        W43051  14.829  11.563   1.058 -0.2705  0.3733 -0.0955
24848W        W43052   0.760   7.901   0.930  0.1607 -0.0540  0.0553
24849W        W43053   3.199  14.124   5.269 -0.1002  0.1228 -0.2601
24850W        W43054   1.703   9.744   0.169 -0.0271 -0.0122  0.0087
24851W        W43055   9.373  10.748  12.326 -0.2737 -0.2857  0.1417
24852W        W43056  10.633   6.433   4.568 -0.0263 -0.1523 -0.0776
24853W        W43057  10.504   8.381   3.109 -0.2100 -0.1197 -0.0753
24854W        W43058   3.950   4.561  12.016 -0.0971  0.0523  0.0793
24855W        W43059   9.331   6.099   4.688  0.0153  0.4192  0.2292
24856W        W43060  10.378   1.655  15.168 -0.1787  0.3240 -0.3584
24857W        W43061   3.071   8.437  13.057 -0.1229  0.3953 -0.0072
24858W        W43062  14.719   4.425  14.736  0.1716 -0.1200  0.0034
24859W        W43063  16.906   8.334   4.942 -0.1183 -0.0555  0.1365
24860W        W43064   1.322   2.946  13.588 -0.0321 -0.0892 -0.3398
24861W        W43065   1.298   4.942  13.873 -0.1545 -0.2131  0.1650
24862W        W43066  12.928  10.549   2.287 -0.2071 -0.1052 -0.1579
24863W        W43067   1.689  17.048   2.524 -0.3615  0.0981  0.4156
24864W        W43068   5.767  11.926  14.997 -0.1388  0.0272  0.2779
24865W        W43069   8.689   1.491   2.596  0.0561 -0.2812 -0.0010
24866W        W43070  10.811   0.328   0.948  0.1301 -0.1946 -0.0789
24867W        W43071  16.115  12.222   4.987  0.1289 -0.1201  0.3134
24868W        W43072   0.886   7.753  13.580 -0.1070  0.0409  0.1443
24869W        W43073  13.405   2.571   0.367  0.0518  0.1634 -0.1352
24870W        W43074   4.128   7.140  10.768  0.1132 -0.1975  0.2163
24871W        W43075   4.766   2.108  11.695  0.1192  0.3062  0.1117
24872W        W43076   8.985   7.042   5.211  0.0265 -0.0193  0.0980
24873W        W43077  17.335   2.919   2.494  0.0226 -0.1658  0.0455
24874W        W43078  15.409   7.512  10.805  0.2788  0.0005  0.1718
24875W        W43079   1.751   3.480   1.415 -0.3298  0.2046  0.2259
24876W        W43080  17.760  15.048  11.267 -0.3652  0.1624  0.0990
24877W        W43081   1.306   5.625  11.480 -0.0512 -0.0783  0.1282
24878W        W43082  13.918   0.743   4.848  0.0731  0.0611  0.1157
24879W        W43083  15.674   8.410  12.751  0.0955 -0.0543 -0.0358
24880W        W43084   8.080   8.636   4.553  0.1137 -0.2249 -0.2043
24881W        W43085  10.016  17.759  11.326  0.0228  0.3622 -0.0019
24882W        W43086   9.729  14.990  11.358  0.0437  0.0379  0.2351
24883W        W43087   7.105   4.761  10.116 -0.0961 -0.0749  0.0853
24884W        W43088   2.005   3.795  13.591  0.0922  0.0763 -0.3070
24885W        W43089  10.168   8.061  10.574  0.0640  0.2554  0.2120
24886W        W43090  15.464  11.604   4.640 -0.0867 -0.1496 -0.1352
24887W        W43091  17.302   6.515  12.251  0.2700 -0.1985 -0.0593
24888W        W43092   8.205   3.633   2.818  0.0807 -0.1657 -0.1468
24889W        W43093  15.223   7.818  10.398  0.0203 -0.3520 -0.3380
24890W        W43094  13.229  10.762   3.332 -0.1402 -0.1146 -0.0121
24891W        W43095  16.481   5.331  12.940  0.1174  0.0222  0.0375
24892W        W43096  14.044  15.974  10.174 -0.1954 -0.0189  0.2624
24893W        W43097  11.842   4.403   1.213 -0.2029  0.0028 -0.0032
24894W        W43098   1.120  10.146  14.389  0.0290  0.2860 -0.1760
24895W        W43099   9.038  16.047   3.185 -0.1023 -0.3416  0.0275
24896W        W43100   6.917   4.088  15.458  0.0851 -0.0659 -0.0659
24897W        W43101   2.786  14.476  15.192 -0.2518 -0.1544  0.0109
24898W        W43102  16.246  11.298   2.939 -0.0995  0.1213 -0.0610
24899W        W43103   8.210  10.380   1.437  0.1500  0.2905  0.0883
24900W        W43104  10.804   9.430   1.335  0.1795 -0.1962  0.0911
24901W        W43105  17.220  12.070  13.752  0.1058  0.0262 -0.1258
24902W        W43106   5.693   2.824  12.572 -0.0748  0.1846 -0.0558
24903W        W43107   4.760   9.185   2.282 -0.1588  0.0376 -0.0718
24904W        W43108   3.339   1.541  14.325 -0.1057  0.0825  0.1356
24905W        W43109  17.908   7.580  12.279 -0.0776  0.1958 -0.1499
24906W        W43110  15.761   9.573  13.185 -0.0452  0.4233  0.1435
24907W        W43111   9.948   7.601  14.082  0.0817  0.2886  0.1070
24908W        W43112  17.508   9.069   1.236  0.0604  0.1271  0.0086
24909W        W43113  12.977   8.114   4.781  0.0690 -0.0082  0.0753
24910W        W43114   4.114  10.498  11.457  0.1699 -0.1423 -0.1731
24911W        W43115   8.496  16.130   3.242 -0.1369 -0.0221  0.0685
24912W        W43116   6.822  11.589   0.486  0.4534 -0.0199 -0.2256
24913W        W43117  10.980  17.025  12.495 -0.2115 -0.1404  0.3873
24914W        W43118   1.259  13.852   2.488 -0.0493  0.1106  0.2259
24915W        W43119  15.879   7.237   4.168  0.1083 -0.0542  0.0256
24916W        W43120   1.635   8.994   1.030 -0.0751 -0.0482  0.2473
24917W        W43121   8.040   0.738   1.187 -0.2322  0.2116 -0.0358
24918W        W43122   7.573  17.353  11.166  0.2264 -0.1976 -0.0016
24919W        W43123  13.393   1.249  15.417  0.2654  0.0805 -0.0082
24920W        W43124  13.693  16.302  15.578 -0.0589 -0.0008  0.0865
24921W        W43125  16.170   1.686   4.399 -0.0641  0.2371 -0.0465
24922W        W43126  11.620   1.952  11.803  0.0733 -0.1365  0.2238
24923W        W43127   1.924  14.808  14.721 -0.1093  0.2207  0.1105
24924W        W43128   8.307   4.560  11.045 -0.0568 -0.2415 -0.1062
24925W        W43129   2.106  14.989  11.751 -0.1157  0.1212  0.0081
24926W        W43130  11.736   4.161  10.911  0.1760 -0.1307 -0.0493
24927W        W43131   2.216   6.382   2.869  0.1026 -0.1504 -0.1503
24928W        W43132  16.256   5.285  14.572  0.1355 -0.0608  0.1350
24929W        W43133   5.486  15.292  11.449  0.1513 -0.0404  0.0371
24930W        W43134  10.475  15.796  14.766  0.2529  0.1369  0.1044
24931W        W43135   2.216   8.135   2.994 -0.1898 -0.1257 -0.2523
24932W        W43136   2.093  13.730   4.319 -0.2641 -0.0375 -0.0525
24933W        W43137  15.123  16.904  15.522 -0.0292  0.2621 -0.0391
24934W        W43138   3.472   0.571  13.091  0.1227  0.2205  0.1759
24935W        W43139   2.091   9.907   3.008  0.1525  0.2314  0.1822
24936W        W43140   2.971  10.684   4.529 -0.0905 -0.2246  0.1821
24937W        W43141  10.447   0.667   4.344 -0.1154 -0.3278 -0.3040
24938W        W43142   7.397   2.977   1.609  0.0216  0.0556  0.1804
24939W        W43143   1.762   5.829   4.572  0.0897  0.1094 -0.1176
24940W        W43144   1.590  17.351  11.565 -0.2389 -0.1459  0.2187
24941W        W43145  10.083  15.922   1.894  0.1743  0.2267 -0.0072
24942W        W43146   1.528   1.409  13.258 -0.3320  0.2979 -0.1214
24943W        W43147   0.838   6.406   3.170  0.2146 -0.1366 -0.0785
24944W        W43148  13.942   6.021   0.160 -0.3010  0.3008  0.0937
24945W        W43149   0.264  14.581  11.260 -0.0665 -0.0853 -0.2267
24946W        W43150  17.759  17.216  15.044 -0.0261 -0.0006  0.3600
24947W        W43151   1.955   1.233   2.655 -0.0184 -0.0930 -0.3341
24948W        W43152  13.282  15.596   3.774  0.2213 -0.2357 -0.4463
24949W        W43153  17.052  15.952  13.297 -0.1301  0.0159 -0.1284
24950W        W43154  10.607   7.026  14.638 -0.1822 -0.1219 -0.2162
24951W        W43155  16.720   3.673   0.216 -0.0160  0.0233  0.0042
24952W        W43156   8.316  17.026   1.563 -0.0771 -0.3108 -0.0532
24953W        W43157  17.672   2.947   3.112 -0.1722 -0.2630  0.1163
24954W        W43158   6.465  11.430  12.174 -0.1371 -0.0834  0.0616
24955W        W43159  17.897  10.998   4.647  0.0955 -0.0982 -0.3767
24956W        W43160   9.872   2.677   0.193  0.2515  0.2060  0.1104
24957W        W43161  17.035  17.512   0.505 -0.0527  0.2298  0.1888
24958W        W43162   5.415  14.906   0.978  0.1002  0.2529 -0.0264
24959W        W43163   2.973   5.733  14.108  0.0718 -0.4969  0.2224
24960W        W43164   6.110  13.896   3.481 -0.0865  0.3361  0.1187
24961W        W43165  12.304  12.519   1.605 -0.1634  0.0438 -0.0097
24962W        W43166  16.967   0.609  12.324  0.0278  0.3142 -0.2581
24963W        W43167  16.389  15.025  12.438  0.3076 -0.0023 -0.1769
24964W        W43168  14.578   9.186  13.299 -0.0361  0.3722  0.2215
24965W        W43169  17.664   1.735  12.731 -0.1053 -0.3753  0.0399
24966W        W43170   4.166   2.437   3.072 -0.2903 -0.0438  0.0457
24967W        W43171   7.917   3.611   2.384  0.0944 -0.3189  0.2089
24968W        W43172  12.613  15.986  12.609 -0.0153 -0.4199 -0.2586
24969W        W43173   3.587   3.770  12.100  0.0156 -0.1124  0.3763
24970W        W43174  11.847   9.104  13.422  0.1124  0.1054  0.0936
24971W        W43175  17.247  10.596  10.862  0.0504  0.1571  0.3191
24972W        W43176  17.165   3.945   2.422 -0.2255 -0.2660  0.1234
24973W        W43177   4.121  11.482  13.953 -0.1425 -0.0073  0.1037
24974W        W43178   9.008  13.946  12.492 -0.2134 -0.0418 -0.2088
24975W        W43179   2.288   7.333   2.845  0.0617 -0.0183 -0.1304
24976W        W43180   4.164   1.279  10.698  0.0268  0.0520 -0.2219
24977W        W43181   0.088  15.718  14.260 -0.1902  0.1201 -0.1679
24978W        W43182   3.635  10.199  12.647 -0.0063 -0.1884 -0.0903
24979W        W43183  17.783   0.595   0.960 -0.1079 -0.0340  0.2331
24980W        W43184  16.350   0.882   2.905  0.0171 -0.2631  0.2009
24981W        W43185   5.345  16.850  15.279  0.0448 -0.1024 -0.3325
24982W        W43186  16.108  18.365   3.383  0.3294  0.2414  0.2233
24983W        W43187   3.193   2.397  13.671 -0.2688  0.1618  0.0658
24984W        W43188   9.963  13.483   1.065 -0.0088  0.3245 -0.3658
24985W        W43189   5.565   1.593  13.948 -0.0433 -0.2013  0.1526
24986W        W43190   4.064  15.073   4.253  0.1564 -0.1763 -0.2908
24987W        W43191  12.953  13.219   1.797  0.1058  0.2652 -0.1986
24988W        W43192   1.502  14.306   2.585 -0.0206  0.0185 -0.1490
24989W        W43193  16.139   5.052  11.240  0.0676 -0.1454  0.3017
24990W        W43194   1.280   1.691  14.451  0.3693  0.0255 -0.2560
24991W        W43195  17.651   2.101   3.568 -0.1424 -0.1682  0.1425
24992W        W43196  15.958  10.780  12.644 -0.0005 -0.0993 -0.1890
24993W        W43197   2.580   5.101   1.162 -0.0392 -0.3520  0.1337
24994W        W43198   6.845   1.774   4.715  0.0500 -0.2689  0.1398
24995W        W43199  16.456  15.354  11.000  0.0540  0.2237 -0.0352
24996W        W43200   5.600   9.308  13.306  0.0818  0.1917  0.1401
24997W        W43201   4.725   3.413  14.134  0.0170  0.1973  0.0681
24998W        W43202  18.009  16.993   4.060 -0.3141 -0.1747  0.2126
24999W        W43203   1.534  17.439   2.900 -0.0019  0.0182  0.2571
25000W        W43204  17.892  11.543   2.723  0.1645  0.0534  0.1829
25001W        W43205  17.931  13.373  13.568  0.1715 -0.4156 -0.0022
25002W        W43206   5.936  18.005  14.228  0.3013 -0.1326  0.2108
25003W        W43207   7.093   6.912   4.071  0.1690 -0.1726 -0.1693
25004W        W43208  17.956   2.040   2.994 -0.3075  0.1008  0.0493
25005W        W43209  15.503   4.730  13.753  0.1367 -0.0475  0.2748
25006W        W43210  12.117  11.501  11.603 -0.0121 -0.0249 -0.0548
25007W        W43211   3.268   9.279   4.491 -0.1848 -0.0974  0.0933
25008W        W43212  11.990   9.550   0.007  0.0909  0.0933  0.2692
25009W        W43213  17.963  10.990   2.551 -0.3264  0.2360  0.1736
25010W        W43214  11.648   0.616   0.563  0.0845 -0.0795  0.2456
25011W        W43215   5.489  10.272   4.221  0.1442  0.2599  0.3158
25012W        W43216  12.382   5.162  11.214 -0.0761 -0.0546  0.0670
25013W        W43217   0.216   8.002   3.658  0.0477  0.1076 -0.1466
25014W        W43218   9.034  12.467  15.557 -0.1276 -0.1150 -0.0965
25015W        W43219  10.401  14.249   1.469  0.0701  0.2222  0.2278
25016W        W43220  13.280   4.697   2.314 -0.1002  0.2138  0.0955
25017W        W43221   0.832   4.033   5.133  0.1263  0.0114 -0.1401
25018W        W43222  17.860   8.131  11.349 -0.1440  0.0771  0.0238
25019W        W43223   8.404   5.598   0.019  0.1496 -0.0071  0.2004
25020W        W43224   8.968   9.970  14.160 -0.3945 -0.1513  0.3423
25021W        W43225  10.499  18.187  15.074 -0.1331 -0.0594 -0.0611
25022W        W43226   4.597  16.783   4.613  0.0720  0.0755  0.0453
25023W        W43227   6.915  10.441  12.622  0.1584  0.2307 -0.0137
25024W        W43228   3.844   3.563   0.188  0.1519 -0.0530 -0.0956
25025W        W43229  17.316   6.922  15.114  0.0405  0.2077  0.1655
25026W        W43230   7.139   9.464  11.569  0.2245  0.0901  0.3423
25027W        W43231  13.733  12.231   2.404 -0.0788  0.3388 -0.2362
25028W        W43232   8.373  11.235  14.649 -0.0881 -0.0459 -0.2057
25029W        W43233  18.365   8.832  13.607  0.3054  0.1759 -0.1482
25030W        W43234  13.519  10.520   2.802 -0.4830  0.1629  0.0702
25031W        W43235  12.432   2.428   5.408  0.0498  0.0611 -0.0163
25032W        W43236   9.410  13.881  12.956  0.0979 -0.1528  0.2144
25033W        W43237  12.546  12.658   4.696 -0.2612 -0.0410 -0.0835
25034W        W43238   5.442   9.851  11.881 -0.1596  0.1598 -0.0212
25035W        W43239  11.381   9.274  14.598  0.2596 -0.0084  0.2488
25036W        W43240   8.841   6.250   5.253  0.0540 -0.1815 -0.2640
25037W        W43241  11.711  10.208   1.927  0.1029  0.2245  0.2255
25038W        W43242  16.864   8.427  10.105 -0.2403  0.0878 -0.1165
25039W        W43243  12.795  14.798  14.193 -0.0688 -0.2652 -0.0249
25040W        W43244   9.085   0.964   4.455  0.1169  0.2063 -0.2793
25041W        W43245  15.040  10.349   5.578  0.0460  0.1450 -0.0299
25042W        W43246  10.544   8.346  15.184  0.0553  0.0687 -0.0561
25043W        W43247   6.922  16.738   2.757 -0.1980 -0.3060 -0.2746
25044W        W43248  17.775  16.345   0.579 -0.0234  0.0907 -0.0067
25045W        W43249   4.584  10.763   1.364 -0.1256  0.0873 -0.0468
25046W        W43250  12.834  15.944   1.459 -0.1090 -0.0530  0.3083
25047W        W43251   7.471  14.660   1.565  0.1335 -0.0882 -0.3288
25048W        W43252   0.283  12.771   1.914 -0.3440  0.2841 -0.0517
25049W        W43253   5.372  10.293  13.187 -0.1222 -0.1119 -0.1755
25050W        W43254  13.640  13.293  11.141 -0.0924 -0.0898 -0.1107
25051W        W43255   9.563  16.913   3.179  0.0928 -0.1368 -0.1446
25052W        W43256   4.449   9.211  12.101 -0.2888  0.1542  0.0809
25053W        W43257   5.049   8.105  12.787 -0.2197  0.3314 -0.1020
25054W        W43258  11.568   3.506  12.795  0.0616  0.0904  0.0937
25055W        W43259   6.256  12.471  11.400  0.3921 -0.0589 -0.0237
25056W        W43260  10.943   3.366  15.664 -0.1397  0.2488  0.0154
25057W        W43261  15.680   5.145  14.011 -0.1101  0.1232 -0.4043
25058W        W43262   5.062   9.713  14.524 -0.0030 -0.2246 -0.2387
25059W        W43263   6.004  12.335  15.357 -0.0390  0.0803  0.0243
25060W        W43264   2.988  12.453   1.406  0.2384  0.2791 -0.2670
25061W        W43265  12.178   3.798   3.250 -0.1926  0.0799 -0.0897
25062W        W43266   9.285   6.925  12.662  0.2254  0.2120 -0.3529
25063W        W43267   6.363   9.489  10.913  0.1837  0.0708 -0.2466
25064W        W43268  11.024   2.430   3.135  0.1292  0.3846  0.2342
25065W        W43269   7.156   3.588  15.350 -0.2200  0.2472  0.0940
25066W        W43270   2.825  15.240  11.024  0.2107 -0.0950  0.2434
25067W        W43271  13.011   2.541   3.396  0.0112  0.0410 -0.0961
25068W        W43272   7.114   5.683  14.567 -0.0741 -0.3290  0.2064
25069W        W43273  15.709  11.137   2.755 -0.1147  0.1965  0.0122
25070W        W43274  12.175  11.093  11.825 -0.0185 -0.3939 -0.3095
25071W        W43275   8.713   9.211   2.815  0.0046  0.0467  0.3119
25072W        W43276   3.733   4.520   2.899 -0.1579  0.1161 -0.0120
25073W        W43277   8.973   3.513  14.816  0.0996 -0.2756  0.0627
25074W        W43278   9.899  16.769  14.682  0.1156  0.0188 -0.0504
25075W        W43279  11.041  12.918  12.768  0.1759 -0.1367 -0.2434
25076W        W43280  18.354  11.196  12.683 -0.1850 -0.1665 -0.0967
25077W        W43281  17.352  15.582   3.866 -0.1702 -0.0987 -0.0268
25078W        W43282   4.518   7.761  11.706  0.0435  0.0931 -0.0279
25079W        W43283  17.173   6.364  14.747  0.1956 -0.0515  0.3350
25080W        W43284   3.847  16.522   4.306 -0.1241 -0.1813 -0.1149
25081W        W43285  13.136  17.508   5.309 -0.1253 -0.0919  0.0953
25082W        W43286   2.825  10.960   2.630  0.0560  0.1044 -0.0747
25083W        W43287   4.397   7.149  11.215 -0.1525  0.0417  0.0627
25084W        W43288   2.710  15.321  12.304 -0.1133  0.2610 -0.3685
25085W        W43289  13.475   5.370   4.272 -0.0914  0.1256  0.0117
25086W        W43290   0.916  12.434  12.898 -0.0417  0.4596  0.1690
25087W        W43291   0.504   5.851  14.546 -0.0253 -0.0887 -0.0569
25088W        W43292   3.037  13.072   5.128  0.0974  0.0683  0.0615
25089W        W43293   7.342   8.354   3.019 -0.4908  0.3387  0.0729
25090W        W43294   4.324  15.536  11.921 -0.0797  0.1545 -0.2394
25091W        W43295   2.924   3.783   1.686  0.0742  0.2231 -0.0047
25092W        W43296  14.559  14.190   2.959  0.0607  0.0946  0.0258
25093W        W43297  15.099  17.447  12.640  0.1108  0.1975 -0.0135
25094W        W43298   5.411  12.693  11.375  0.0132 -0.1671 -0.1765
25095W        W43299  16.746   6.901  13.738 -0.3353  0.1222  0.0107
25096W        W43300  13.040  16.756   2.945  0.0534 -0.1287  0.2484
25097W        W43301   1.231   7.331  11.833  0.0407 -0.2833 -0.2302
25098W        W43302  14.823  17.915  11.679 -0.1342  0.1262  0.2135
25099W        W43303   8.268   4.405   0.796 -0.1191 -0.0291  0.1022
25100W        W43304   2.994   2.340  14.207 -0.1254 -0.0419 -0.0421
25101W        W43305  17.106   4.727   0.569 -0.0802  0.0702  0.0656
25102W        W43306   3.629   1.184  15.061 -0.0637 -0.2257  0.0381
25103W        W43307   8.235   3.315  12.732 -0.0957  0.2297  0.1533
25104W        W43308   4.747  13.045  14.678  0.0890 -0.1155 -0.3472
25105W        W43309   9.501   4.638   2.845 -0.1567 -0.2667  0.2510
25106W        W43310  13.180  12.033  12.918  0.0200 -0.3179  0.3498
25107W        W43311  12.566  12.178  14.457 -0.0595 -0.1259 -0.0016
25108W        W43312  15.353   4.736  10.682  0.2438  0.0926  0.1496
25109W        W43313   3.977  14.524  13.946  0.1068  0.1561  0.1109
25110W        W43314   4.320   1.378  11.141  0.2218  0.1711  0.1902
25111W        W43315   2.466  12.211   3.083  0.1917 -0.0003 -0.2125
25112W        W43316  11.954  16.770  15.419  0.1187  0.2705  0.1775
25113W        W43317   5.864   2.274  11.838 -0.1125  0.0335 -0.3677
25114W        W43318   2.064  16.522  13.782 -0.1672  0.0046  0.0928
25115W        W43319  16.217   4.887  12.985  0.0670  0.0188 -0.0072
25116W        W43320   9.135   2.900   2.023 -0.0695  0.0253 -0.0699
25117W        W43321  12.887  13.691   4.885  0.0705  0.3721 -0.1819
25118W        W43322   8.257   1.770   0.441  0.0451 -0.2052  0.2685
25119W        W43323   9.204   4.176  13.235 -0.0048  0.2308  0.0307
25120W        W43324   4.504   1.112  15.231 -0.0991 -0.0950 -0.1929
25121W        W43325  16.302  12.664  10.759  0.0066  0.0730 -0.3155
25122W        W43326  15.572   3.522   3.419 -0.0200  0.1273 -0.1861
25123W        W43327  17.052   6.156   4.908 -0.0107 -0.0693 -0.4995
25124W        W43328   2.665   0.802  11.577  0.1363  0.3903  0.1767
25125W        W43329  13.049  16.399  12.422  0.1905  0.0261 -0.2892
25126W        W43330   4.009   8.617   4.731  0.1609 -0.1603 -0.2066
25127W        W43331  13.663  13.024   4.124  0.2211  0.1095  0.0451
25128W        W43332   5.232   3.271  10.880  0.0844  0.1603 -0.0375
25129W        W43333   1.190  18.354   0.926  0.3150  0.1276 -0.0598
25130W        W43334  10.745   1.949   2.598  0.0218  0.1603 -0.1113
25131W        W43335   3.223  14.981  11.291 -0.1733 -0.1669 -0.0384
25132W        W43336   7.927   0.114  11.243  0.1700  0.2137  0.0884
25133W        W43337  18.270  15.610  11.936  0.0275  0.1326  0.1425
25134W        W43338   6.882   5.545   0.176  0.1597  0.2482  0.1369
25135W        W43339  13.117   2.792  10.346  0.0313 -0.2623  0.1773
25136W        W43340   4.386   2.209  12.901  0.0876  0.1501 -0.1456
25137W        W43341   0.563  10.217   0.696 -0.0029  0.0078  0.1094
25138W        W43342  16.218   1.745  14.225  0.0395 -0.1003 -0.2237
25139W        W43343   8.242  17.879   1.306  0.2166  0.0094  0.1517
25140W        W43344   7.558   2.586   0.511 -0.3355 -0.2713 -0.0635
25141W        W43345   9.044  12.835   0.229 -0.0887  0.2290 -0.1179
25142W        W43346   4.279  10.402   0.583  0.1078  0.1249 -0.0319
25143W        W43347   8.725  13.018   4.799  0.0471 -0.2283  0.1960
25144W        W43348  10.269   9.382   1.303  0.3240  0.1168 -0.0398
25145W        W43349  15.442   7.732  11.303  0.4354 -0.0994  0.0699
25146W        W43350   6.207   7.113   4.527 -0.0015  0.1509 -0.1823
25147W        W43351  13.174  17.092  12.327  0.0917 -0.0455 -0.0499
25148W        W43352   4.523   6.443   0.081 -0.1023 -0.1275 -0.2610
25149W        W43353   3.705   5.168  14.384 -0.0554  0.2539 -0.1509
25150W        W43354   2.338  16.247   4.292 -0.0855  0.1353 -0.0711
25151W        W43355   9.640  17.024  13.382  0.0364 -0.2944 -0.0590
25152W        W43356   3.129   5.722   5.122  0.0745 -0.2136  0.2323
25153W        W43357   0.756   6.406   0.177 -0.1188  0.2717 -0.2566
25154W        W43358  18.269  11.037   0.457 -0.2352 -0.0380  0.1801
25155W        W43359   9.603   8.826   2.203  0.1491 -0.0618 -0.1508
25156W        W43360   4.746   8.483  10.922  0.0741  0.0430  0.1349
25157W        W43361   0.328   0.067  12.119  0.1775 -0.1686 -0.0012
25158W        W43362   2.142  16.799  12.627 -0.0115  0.1730  0.0853
25159W        W43363  18.127  13.476   3.977  0.1203  0.0680 -0.0525
25160W        W43364  14.100  16.549  13.831  0.1875 -0.0317 -0.0267
25161W        W43365   1.793  12.585   2.171 -0.4917 -0.0789  0.0069
25162W        W43366  15.530  12.175  11.128  0.0328  0.1968  0.2898
25163W        W43367  16.107  11.101   2.513 -0.2765 -0.1535 -0.0864
25164W        W43368  13.500   2.592   1.796 -0.0915  0.3899  0.1107
25165W        W43369  14.178   7.967  11.444  0.0493 -0.2361 -0.0267
25166W        W43370  16.315  14.644  13.462  0.2254 -0.0216  0.0567
25167W        W43371  11.771  10.570   2.304  0.1397  0.0046 -0.0266
25168W        W43372   2.337  11.037   1.292 -0.3030  0.1466  0.1154
25169W        W43373   7.120   5.326  15.008 -0.3212 -0.1550 -0.2679
25170W        W43374   6.659  10.981  14.268  0.2843  0.1329 -0.1370
25171W        W43375   3.789  13.832   2.448  0.1992 -0.0645 -0.3905
25172W        W43376  10.227  17.717   1.022  0.0903 -0.2913 -0.1483
25173W        W43377   0.139   4.739  12.361  0.2526  0.0490 -0.2938
25174W        W43378   0.837   9.545   1.298  0.2295  0.1148 -0.1195
25175W        W43379   1.876   9.729  14.184  0.3449 -0.1434 -0.0992
25176W        W43380  10.316   8.041   3.522 -0.1466  0.2201  0.0139
25177W        W43381   8.952  10.268  15.449  0.2912  0.1260  0.0662
25178W        W43382  14.608   5.296   1.105 -0.1795 -0.1546 -0.0369
25179W        W43383  10.749   5.247  15.210 -0.2409  0.0412  0.0309
25180W        W43384  15.207  15.581  15.329  0.0159 -0.0281 -0.0457
25181W        W43385  11.740   6.362   3.285  0.2038  0.3821  0.2101
25182W        W43386  11.747   0.166   0.681 -0.3007  0.0581  0.0844
25183W        W43387  15.539   7.367   3.691 -0.2282  0.0784 -0.1783
25184W        W43388   0.676   4.936   1.426  0.2482 -0.0379  0.2421
25185W        W43389   4.217  17.819  12.914  0.1900  0.1721 -0.2552
25186W        W43390  16.128  11.228  12.460  0.1652  0.0024 -0.0048
25187W        W43391  13.719   1.271   1.131  0.0778  0.2670  0.1100
25188W        W43392  15.060   2.759  11.358 -0.0575 -0.2539  0.1625
25189W        W43393   3.929  15.136  14.119  0.5161  0.1411  0.0314
25190W        W43394   0.837   4.036   1.776  0.1854  0.1819  0.2311
25191W        W43395   4.037  13.347  14.838 -0.2400 -0.1021 -0.0970
25192W        W43396   9.074   9.989   1.719  0.0626  0.1212  0.0549
25193W        W43397   5.280   4.571  14.892  0.1345  0.1089  0.0326
25194W        W43398  11.872  10.937  13.948  0.2347 -0.2868  0.1926
25195W        W43399   3.210   1.945   3.944  0.2729 -0.1964 -0.2092
25196W        W43400   9.200   0.528   0.706  0.0277  0.1499  0.0324
25197W        W43401  13.018  16.541  14.181 -0.2157 -0.2002 -0.0307
25198W        W43402  13.495  12.888  13.624 -0.0753 -0.1487  0.3986
25199W        W43403  16.858  15.353  13.314 -0.1501  0.2035 -0.0938
25200W        W43404  15.596  13.610   0.770  0.1354  0.1248  0.0802
25201W        W43405   1.522   8.769   0.216  0.1213  0.1681  0.0136
25202W        W43406   9.687  15.291  14.705  0.0059 -0.2552  0.0409
25203W        W43407  13.475   6.233   4.365  0.0802 -0.0672  0.0851
25204W        W43408   7.226  16.640   0.895 -0.0016 -0.3159 -0.1687
25205W        W43409   0.502  13.965   2.056  0.2369  0.0748  0.2685
25206W        W43410  13.927   8.065   1.115  0.1359  0.3279  0.1399
25207W        W43411  15.651   3.335   0.746 -0.0263  0.0291 -0.1635
25208W        W43412   3.859   9.437  15.378  0.2338 -0.0418  0.0088
25209W        W43413  14.951  18.004   3.341 -0.0715  0.1785  0.0405
25210W        W43414  10.944   9.245  12.966  0.2087  0.2618 -0.1812
25211W        W43415   3.032   3.645  11.118  0.0409  0.0982  0.0861
25212W        W43416   2.773   5.098   3.281  0.0549  0.0389  0.2186
25213W        W43417  10.401   5.571  14.994 -0.2127 -0.2563  0.6333
25214W        W43418   1.392  18.090   1.249 -0.1296  0.0627 -0.1626
25215W        W43419   9.881  16.494   3.258 -0.3050 -0.1150 -0.0225
25216W        W43420   7.886   6.851  13.747  0.0802  0.2987  0.2712
25217W        W43421  15.531  15.068   0.632 -0.0187 -0.2509  0.1544
25218W        W43422  14.360  13.023   0.003  0.0854  0.0136  0.0731
25219W        W43423  11.228   6.278  14.620  0.2435  0.4389 -0.1138
25220W        W43424   7.888   7.754   3.265  0.1841 -0.3168  0.1267
25221W        W43425  15.075  14.169   0.929 -0.2165 -0.0903  0.2644
25222W        W43426   6.741   7.043   4.630  0.1094 -0.0922  0.2086
25223W        W43427  14.940  12.366   3.672 -0.1325 -0.0037 -0.1900
25224W        W43428   7.384   9.347   2.140  0.1287 -0.1254  0.0703
25225W        W43429   8.327   3.502   1.889  0.2121 -0.0313 -0.1706
25226W        W43430  10.029   6.463   1.369 -0.0521  0.2164 -0.0474
25227W        W43431  10.090   5.970  15.122 -0.0395  0.0816 -0.0731
25228W        W43432   5.933   8.827  12.867  0.1070 -0.0836 -0.0950
25229W        W43433   7.736   3.790  12.692  0.0382  0.3579  0.0415
25230W        W43434   5.983   9.336  12.955 -0.0497  0.0045  0.1782
25231W        W43435   5.327   4.098  15.070  0.0378  0.0592  0.0786
25232W        W43436   0.866   7.688  14.717 -0.2055  0.1458 -0.2186
25233W        W43437   5.492   9.752   4.418 -0.0825 -0.1698  0.3094
25234W        W43438   6.792  14.402   0.456  0.0319  0.1951 -0.0462
25235W        W43439  17.119   2.512   3.477 -0.0904 -0.1557 -0.0139
25236W        W43440   4.495   9.853  15.629  0.0995  0.0581 -0.0654
25237W        W43441  17.611   7.090  14.254  0.2810  0.1883  0.2769
25238W        W43442   0.628   3.390   0.763 -0.1767 -0.0200  0.1550
25239W        W43443   0.019   5.305   0.349  0.2663  0.3896  0.0433
25240W        W43444   3.214  16.622  12.789  0.3299 -0.0520  0.1509
25241W        W43445  10.275  14.813   1.189 -0.0493 -0.0157 -0.1666
25242W        W43446   6.891  15.722  15.539  0.1501  0.0822 -0.2552
25243W        W43447  10.155  17.547   0.206  0.1081 -0.1268 -0.0243
25244W        W43448  18.109   1.297   1.330 -0.0791  0.3358  0.1825
25245W        W43449   8.526  14.382   3.124  0.0396  0.0904 -0.1044
25246W        W43450  15.745  12.258   4.161  0.1390 -0.0491 -0.2205
25247W        W43451   6.411  10.210   3.563 -0.0421 -0.1960  0.4585
25248W        W43452  15.877   0.456  11.385  0.2318  0.0538 -0.0435
25249W        W43453   9.887  15.653  15.155 -0.0548  0.5660 -0.0145
25250W        W43454   0.111  15.659   0.113 -0.1612 -0.2969  0.1733
25251W        W43455   9.906   5.565  14.913  0.0202 -0.0059 -0.2996
25252W        W43456  12.760   7.990   5.188 -0.2824  0.1206 -0.1067
25253W        W43457   5.623   8.503   1.297 -0.1709  0.1126 -0.0852
25254W        W43458   8.781  15.740  14.883  0.1008 -0.2995 -0.1580
25255W        W43459   9.888   3.924  12.746 -0.2125 -0.1085 -0.1182
25256W        W43460   5.564   3.206  13.897 -0.1049 -0.0949 -0.4267
25257W        W43461  10.214  17.265  15.471  0.0899 -0.2084 -0.0259
25258W        W43462   0.487   6.378  15.252  0.2319  0.0243 -0.0612
25259W        W43463   6.101   7.389   0.599 -0.2366  0.2567 -0.0012
25260W        W43464   2.723  14.491  12.686  0.0111  0.2286  0.0332
25261W        W43465  17.085   6.212   3.883  0.0617 -0.0850 -0.0428
25262W        W43466  17.230  17.236   2.688  0.2407 -0.0987 -0.0671
25263W        W43467  12.925  10.046   1.068 -0.0916  0.1540  0.1321
25264W        W43468  11.542  11.632  12.756 -0.0172  0.1060  0.1557
25265W        W43469  17.387   6.010   5.360  0.0729 -0.2149  0.0136
25266W        W43470   7.918  14.347  11.587  0.0566  0.1718 -0.0383
25267W        W43471  13.583  12.001   3.566  0.0231 -0.0253  0.2043
25268W        W43472  12.456  10.944   0.931 -0.0962 -0.0830 -0.1092
25269W        W43473   3.165  13.596  14.718 -0.3280 -0.0671  0.1784
25270W        W43474   3.311   1.966   1.111 -0.1456  0.3677  0.0486
25271W        W43475   3.647  16.722  14.841  0.1648 -0.0090 -0.0255
25272W        W43476   5.958   9.141  14.600  0.0470  0.0069  0.2212
25273W        W43477   5.065   1.766  13.964  0.2197 -0.0851 -0.1556
25274W        W43478   8.687  16.275   1.948  0.1167 -0.2084 -0.1698
25275W        W43479  13.515   3.832   2.311  0.0926  0.0694  0.3204
25276W        W43480  12.486  13.030   4.204 -0.1919 -0.1855  0.0337
25277W        W43481   8.349  11.282  11.496  0.0870 -0.2346 -0.0217
25278W        W43482   1.173   9.878  13.970  0.1552  0.1160  0.1502
25279W        W43483   8.229   9.916   4.888  0.2592  0.0400 -0.2924
25280W        W43484   4.894  14.028   1.641 -0.0859  0.1631  0.0009
25281W        W43485   3.818  17.357   3.272 -0.0079 -0.0018 -0.1155
25282W        W43486  11.446  18.046   2.434  0.0823 -0.0567 -0.1692
25283W        W43487   7.835   5.728  12.993 -0.0084 -0.0240 -0.1799
25284W        W43488   1.419  14.975   1.703 -0.3693  0.0295 -0.1144
25285W        W43489   8.486  14.449  13.712 -0.0685  0.0108 -0.0817
25286W        W43490  15.153  12.634  12.682 -0.2471 -0.2572 -0.0782
25287W        W43491   2.653  11.406  14.319  0.2239 -0.0653 -0.0966
25288W        W43492   7.692   3.073  11.951 -0.2154 -0.1606 -0.0486
25289W        W43493   6.623   8.809   3.553 -0.1337  0.1052 -0.1462
25290W        W43494   1.306   0.244  14.043  0.0529 -0.2212 -0.0798
25291W        W43495   9.845   1.473  11.179  0.0189  0.2407  0.2478
25292W        W43496  11.006   7.005  11.427 -0.0205 -0.0137  0.1481
25293W        W43497  10.682  10.464   0.717  0.1158 -0.1051  0.1423
25294W        W43498   0.631  11.259   1.525 -0.0906  0.0307  0.0564
25295W        W43499   4.376  14.070  15.435  0.1548 -0.2158 -0.0112
25296W        W43500  12.373  11.930   0.057 -0.0020 -0.2268 -0.0930
25297W        W43501  15.654   5.239  15.403 -0.1313  0.1591  0.3387
25298W        W43502  14.906   8.469   2.068 -0.1250 -0.0407  0.0193
25299W        W43503   6.700   3.993   3.506 -0.0233 -0.0235  0.2084
25300W        W43504   6.320   2.474   0.261  0.0866 -0.0854 -0.0345
25301W        W43505   1.055  10.487  12.747  0.3276 -0.1248 -0.0071
25302W        W43506  15.191   1.446  15.239  0.1649  0.1894  0.2222
25303W        W43507  14.177   4.549   0.892 -0.2354 -0.0205  0.4242
25304W        W43508   6.707  11.601   2.744  0.0174 -0.1104  0.0881
25305W        W43509  12.096   7.501  12.416  0.1358 -0.1366  0.0855
25306W        W43510   3.536  15.490  13.963 -0.0755  0.1264 -0.1816
25307W        W43511   6.127   9.692  11.459 -0.4618  0.2240  0.0235
25308W        W43512  11.104  17.526  11.250  0.0945 -0.0159  0.2747
25309W        W43513  12.173   6.327   2.423  0.2332  0.1060 -0.1654
25310W        W43514  15.747   3.462  11.094  0.0073  0.2876  0.1607
25311W        W43515  11.869   9.195  15.421 -0.0327 -0.0302 -0.1269
25312W        W43516   7.260  16.182  10.925  0.0325 -0.2096  0.0290
25313W        W43517   2.842  11.192   2.160 -0.0607  0.2346  0.0981
25314W        W43518  16.241  13.950  10.856 -0.1286 -0.1436 -0.1353
25315W        W43519   9.426   6.929   3.847 -0.2199 -0.0080  0.0580
25316W        W43520   3.186   6.997   0.838  0.2375 -0.0349 -0.1058
25317W        W43521  15.930   7.780   2.180 -0.1209 -0.2011  0.0065
25318W        W43522  13.765  12.437  15.088  0.0639  0.0794 -0.0511
25319W        W43523   8.954   9.221  12.088 -0.1269 -0.0332  0.2363
25320W        W43524  18.052  15.917   5.449  0.1190  0.1470  0.1317
25321W        W43525  16.696   2.963   1.922  0.0877 -0.0026 -0.0245
25322W        W43526   6.288   9.223  13.643 -0.1175  0.1559  0.2811
25323W        W43527   3.165  17.391   0.791  0.1333 -0.0167  0.0258
25324W        W43528   2.701   0.348   3.887  0.0800  0.2198 -0.2027
25325W        W43529   6.662   3.581  11.189 -0.1578  0.1576 -0.1040
25326W        W43530   8.670  15.858  10.805 -0.3639  0.1901 -0.0975
25327W        W43531  16.173  14.458   3.878 -0.0466  0.1121  0.1187
25328W        W43532  13.896   5.869  10.218 -0.2920  0.0428 -0.2685
25329W        W43533  17.200   4.002  15.392  0.2067 -0.2359 -0.2137
25330W        W43534   2.124   6.406  14.592  0.4873  0.0074  0.3630
25331W        W43535   9.011   5.659   4.588  0.1822 -0.1206  0.3272
25332W        W43536   6.965  12.808  14.386 -0.0911 -0.0419 -0.0193
25333W        W43537  13.969  17.909   0.077 -0.0242  0.1989  0.2717
25334W        W43538   1.577  12.581  10.633 -0.1512 -0.1571 -0.2496
25335W        W43539   8.571   3.808   4.223  0.0714 -0.1316 -0.2998
25336W        W43540  10.480  14.412   0.879 -0.1888 -0.1679 -0.0157
25337W        W43541  13.558  12.333  12.051 -0.1154 -0.3334  0.1370
25338W        W43542  11.868   0.655   2.926  0.0142 -0.3106 -0.0149
25339W        W43543   2.135  10.006   0.938 -0.2444 -0.0944  0.2390
25340W        W43544  15.829  12.373  12.448  0.2474 -0.2549 -0.0570
25341W        W43545   3.344   2.587  13.261  0.1789 -0.3637  0.1279
25342W        W43546  11.726  17.803  14.027  0.0023  0.2827 -0.0884
25343W        W43547  17.424   8.347  12.203 -0.2119 -0.0039  0.0588
25344W        W43548  13.651  13.804   3.149 -0.0649 -0.2034  0.0703
25345W        W43549   6.772  14.411  12.359 -0.0611  0.0264 -0.1621
25346W        W43550  17.704  11.251  14.801  0.1049  0.0039 -0.3520
25347W        W43551   7.426  11.114   4.817 -0.0542 -0.0029  0.1761
25348W        W43552  12.072  12.531   3.115 -0.2717 -0.0853 -0.1163
25349W        W43553  13.535  17.100   4.013  0.1674 -0.4722 -0.2899
25350W        W43554   2.963  11.385  12.304 -0.4452 -0.3006  0.1636
25351W        W43555   1.754   4.184   5.438  0.0341 -0.2273 -0.2159
25352W        W43556   9.349   2.199   1.545 -0.3200 -0.3872  0.0111
25353W        W43557   1.042   3.388  13.326  0.2524  0.0360 -0.0904
25354W        W43558   8.758  10.773  12.544 -0.0905 -0.0325  0.3422
25355W        W43559   3.711  17.171   4.262 -0.0064 -0.0643 -0.1786
25356W        W43560  11.618   1.877  12.757 -0.0289 -0.0599  0.0326
25357W        W43561   5.927   0.586  13.128  0.1113 -0.1063 -0.1039
25358W        W43562   3.652   9.480  11.647 -0.0066  0.1490  0.1872
25359W        W43563   3.406   6.889  12.081  0.0071 -0.0359  0.1138
25360W        W43564  15.406   6.376   6.156 -0.2876  0.0733 -0.1252
25361W        W43565   7.486  18.349   5.356  0.4104  0.0953 -0.3062
25362W        W43566  15.111  11.009  13.600  0.2075 -0.0335 -0.5225
25363W        W43567  15.770   1.060   1.305 -0.2985 -0.3547  0.1482
25364W        W43568   2.097   9.922  15.259 -0.0765 -0.0553 -0.1033
25365W        W43569  12.622   1.573   0.114 -0.0976 -0.0466  0.3942
25366W        W43570  18.073  16.162   2.706  0.0670 -0.1567  0.1849
25367W        W43571   4.345   5.038   0.594  0.0724  0.1067 -0.3529
25368W        W43572   4.105  16.932   4.435  0.0257  0.2339  0.0359
25369W        W43573   6.139   1.857  14.900 -0.4965  0.0100 -0.2661
25370W        W43574   5.966   6.880   4.088 -0.0864  0.0782 -0.0228
25371W        W43575   0.295   7.129  12.385  0.0370 -0.1003  0.0020
25372W        W43576   3.714   6.161  11.836 -0.0082  0.1974 -0.0679
25373W        W43577   4.494   9.933  10.758 -0.0202  0.2445 -0.1059
25374W        W43578   7.881   4.872  15.550  0.1487  0.0066 -0.2083
25375W        W43579   2.664  11.696  12.693 -0.2382 -0.1347  0.2252
25376W        W43580  12.587   3.612  11.225 -0.1126 -0.1325  0.0073
25377W        W43581   4.765   3.102  14.996  0.1084 -0.0639  0.0950
25378W        W43582   2.620  18.123  10.804  0.1432  0.2763 -0.0091
25379W        W43583  14.432   8.819  12.932 -0.1160 -0.0776 -0.0518
25380W        W43584   8.983   5.122   4.456  0.2655 -0.0259  0.3768
25381W        W43585  15.514   1.467  14.777  0.0780  0.2854  0.0429
25382W        W43586   4.463  13.318   2.340 -0.1347  0.1454 -0.0131
25383W        W43587  10.828  11.541  15.578  0.3007 -0.0344 -0.0283
25384W        W43588   4.461  14.603  15.260  0.1054  0.0961 -0.1057
25385W        W43589  13.111  16.238  11.854 -0.0330  0.0883 -0.2464
25386W        W43590   2.452  14.892   3.732  0.2024  0.0712  0.1118
25387W        W43591   4.003  15.184  10.437 -0.1302  0.4610 -0.1278
25388W        W43592  16.302   3.561  15.724 -0.0475  0.1030  0.1876
25389W        W43593  18.052   6.117   0.868 -0.2235 -0.0514  0.1185
25390W        W43594   8.332  13.209   3.881 -0.1494 -0.0132 -0.1643
25391W        W43595   1.779  14.369  14.903 -0.3723  0.1130 -0.0858
25392W        W43596  14.813   6.076  11.093 -0.2300  0.2178  0.0041
25393W        W43597   6.747   9.148  13.407  0.0562 -0.1321 -0.2832
25394W        W43598   7.471   5.369   1.565  0.2296  0.1663  0.0616
25395W        W43599   2.121   0.140  14.847 -0.0515 -0.1584 -0.0270
25396W        W43600  15.360   5.030   1.655 -0.0513  0.0210 -0.1732
25397W        W43601   8.774   4.801  14.056  0.0589 -0.1011 -0.4603
25398W        W43602  18.303  11.141   2.882 -0.2687 -0.5022 -0.5046
25399W        W43603  12.350  15.583   1.887 -0.3246 -0.1119  0.1083
25400W        W43604  15.575   7.429  13.163  0.2770  0.2979  0.1073
25401W        W43605   7.681   4.051  11.115  0.0457  0.0165  0.1033
25402W        W43606  12.051  14.335   0.514  0.2272 -0.0250 -0.1388
25403W        W43607   9.658  14.358  11.272 -0.0020  0.0461  0.1069
25404W        W43608   8.402   0.924  15.566 -0.1308 -0.1604  0.0903
25405W        W43609   6.534   3.301   1.128 -0.1171 -0.0904 -0.1360
25406W        W43610   2.816   8.669   4.147 -0.0229  0.0288 -0.1283
25407W        W43611  16.181   7.570  11.834 -0.1748  0.0707 -0.1302
25408W        W43612  10.505  10.045  11.877 -0.5228  0.2906  0.0134
25409W        W43613  12.679   6.581   1.294  0.1075  0.2161 -0.2867
25410W        W43614  18.177   6.007   2.760 -0.0094  0.1707  0.3444
25411W        W43615   4.840  13.353  11.262 -0.2468  0.0557 -0.4619
25412W        W43616   9.284   0.952  11.803 -0.0497  0.0259  0.0402
25413W        W43617  17.206   8.239  13.180 -0.0358 -0.0583 -0.0077
25414W        W43618   6.299   6.303   3.988 -0.1930  0.2096 -0.1268
25415W        W43619  14.286  11.633   4.112  0.0702  0.0069 -0.3069
25416W        W43620   0.191  11.467  14.418  0.1131 -0.0276  0.1292
25417W        W43621   3.743  16.209   2.081 -0.0522 -0.1898  0.2595
25418W        W43622  15.206  12.157   0.378 -0.2700  0.0084 -0.1730
25419W        W43623  11.711  12.003  13.930  0.0218  0.2144 -0.1711
25420W        W43624  16.723  14.971  15.171 -0.2317 -0.1434  0.2536
25421W        W43625   9.585   2.805  15.255  0.1155  0.0963 -0.0226
25422W        W43626   8.035   2.722  12.268  0.1499 -0.1645  0.3097
25423W        W43627   4.205   3.958  11.257 -0.0515  0.0485  0.0690
25424W        W43628  17.814  15.570   3.511  0.0269  0.2079 -0.2963
25425W        W43629   5.358   6.086  14.687  0.0168  0.4942 -0.1245
25426W        W43630  16.702   2.375  11.197 -0.0222  0.0860  0.0187
25427W        W43631   7.839   1.809  12.932 -0.3144 -0.3055 -0.0638
25428W        W43632  11.922  11.775  15.479  0.0015 -0.3913 -0.0133
25429W        W43633   9.926  14.168   3.454 -0.0156 -0.3619  0.1154
25430W        W43634  15.572  11.378  15.026 -0.2806  0.1771 -0.0675
25431W        W43635   3.647   6.386  12.841  0.0004  0.0013  0.2189
25432W        W43636   4.771  14.423  14.236  0.2978 -0.1396  0.0643
25433W        W43637  13.789  18.110  10.865  0.0876  0.2538 -0.0667
25434W        W43638  13.757   8.678   3.407 -0.1107 -0.4995 -0.2447
25435W        W43639   6.914  10.046   0.344  0.1690 -0.0292  0.0582
25436W        W43640   6.632   2.039  13.030  0.2718 -0.2124 -0.0524
25437W        W43641   1.305  13.657   3.220  0.0254 -0.0505  0.0228
25438W        W43642   7.581  12.248   1.396  0.0502  0.1004 -0.0078
25439W        W43643   5.869   6.866   3.614 -0.3220 -0.0815  0.0225
25440W        W43644   1.511  16.141  13.598  0.1873  0.0981  0.2938
25441W        W43645   2.797   4.790  14.821 -0.2863 -0.2147  0.1843
25442W        W43646  12.979  16.962   2.291  0.3318  0.0238 -0.1185
25443W        W43647  12.200  13.222   3.562  0.2293 -0.1869 -0.0240
25444W        W43648   5.970  11.824  15.422  0.2578  0.2406 -0.0754
25445W        W43649  10.774  14.804   0.194  0.2323 -0.3884 -0.0948
25446W        W43650  14.708   7.596   1.020 -0.1421 -0.0036 -0.0716
25447W        W43651   7.981   6.476  14.093 -0.1423  0.2822  0.1217
25448W        W43652   3.288  11.192  13.205 -0.3611 -0.1285  0.0484
25449W        W43653  17.231   2.751  13.688  0.2360  0.1472 -0.1897
25450W        W43654   5.830   8.991   1.978  0.2260 -0.3640 -0.1652
25451W        W43655  18.352   7.257   3.157 -0.0279  0.1248  0.0371
25452W        W43656  13.443  17.978  12.233 -0.1680 -0.0607  0.1994
25453W        W43657  10.876  18.286  14.614  0.2617  0.2494 -0.0761
25454W        W43658  14.876   4.908  14.695  0.2826 -0.0341  0.0946
25455W        W43659   6.645  17.507   3.804 -0.1197  0.1676 -0.0600
25456W        W43660   2.992  14.694  11.652  0.1327  0.0165  0.1372
25457W        W43661   7.280  10.093   3.100 -0.1456  0.0909 -0.2186
25458W        W43662   9.937   0.576  13.785 -0.1627  0.3055  0.3069
25459W        W43663   4.923   7.822   1.820 -0.1247  0.2784  0.2768
25460W        W43664  15.132  12.003  13.244 -0.2179 -0.0927  0.3537
25461W        W43665  17.928  12.593   5.312 -0.0613 -0.0295  0.1388
25462W        W43666   2.960   6.466   3.373  0.3171 -0.0202  0.2264
25463W        W43667   3.208   5.138   1.907  0.1068  0.1106 -0.0987
25464W        W43668  10.550  11.425  12.356 -0.2786 -0.0256 -0.0107
25465W        W43669   0.817  16.565  12.873  0.1843 -0.2332 -0.0634
25466W        W43670   4.312   1.528   4.015  0.0988  0.3095 -0.1108
25467W        W43671   5.710   5.798  11.528  0.3030  0.0398 -0.1965
25468W        W43672  16.445   0.388  11.855 -0.1106  0.0843 -0.1316
25469W        W43673   9.920  17.150   1.023  0.2414  0.0493 -0.1338
25470W        W43674   9.808  15.694   2.638  0.0692 -0.0114 -0.0704
25471W        W43675  16.090  10.835   4.234  0.0804  0.1992  0.1565
25472W        W43676   3.958  15.981   4.343 -0.1183 -0.1778 -0.0693
25473W        W43677   8.563  14.406   4.379 -0.1194 -0.5773 -0.1518
25474W        W43678   8.922   0.498  13.472  0.0243 -0.4423 -0.0471
25475W        W43679   1.886  15.641  14.905 -0.1025 -0.0589  0.0096
25476W        W43680  10.241   7.522   2.571  0.0652  0.3900 -0.0123
25477W        W43681   8.007   6.121   1.273  0.0909  0.2022  0.1161
25478W        W43682  14.345  14.741   1.834  0.0590 -0.1002  0.2245
25479W        W43683   6.119   4.327   2.030  0.4491  0.0017  0.0390
25480W        W43684  17.061   0.846  14.808 -0.2540  0.1031  0.0826
25481W        W43685   9.513  10.376   4.788  0.0457 -0.1270 -0.3559
25482W        W43686   6.433   0.441  14.102 -0.0390  0.0914  0.1162
25483W        W43687   5.008   2.952  13.481  0.0079  0.0367  0.0395
25484W        W43688  10.670   7.186  12.688 -0.1766 -0.3282  0.0928
25485W        W43689   6.671  12.499  13.465 -0.0885 -0.2880 -0.0299
25486W        W43690  15.289   1.894   3.223 -0.3007 -0.4369  0.2855
25487W        W43691  13.315  17.737   2.677 -0.1619 -0.1546 -0.0414
25488W        W43692   0.891   2.268  13.274  0.1776  0.0903  0.0441
25489W        W43693  14.361   6.344  14.742 -0.4710  0.1464  0.0361
25490W        W43694   6.786   2.217   4.071  0.2370  0.2935 -0.4317
25491W        W43695  17.275  15.196  15.140  0.1386 -0.4019  0.0939
25492W        W43696   3.231   1.339   1.060  0.0363 -0.0798  0.0696
25493W        W43697   2.966   9.789  15.140  0.0617  0.0662 -0.0938
25494W        W43698  11.072  12.379   0.920 -0.0033  0.1491  0.1449
25495W        W43699  18.259  10.141   4.293 -0.2548  0.1398  0.1066
25496W        W43700  16.551  13.493  10.909  0.1290  0.1583  0.0634
25497W        W43701  17.383  15.415   3.332  0.2450 -0.0620  0.0872
25498W        W43702   4.896  17.591   4.745  0.0425  0.0147 -0.1824
25499W        W43703   2.553   7.113   2.355  0.2555  0.4417  0.2427
25500W        W43704  18.056  10.882   3.326  0.0547 -0.1556  0.3866
25501W        W43705   2.737   3.537  12.970  0.1821  0.2132  0.0513
25502W        W43706  13.700   2.689  13.124 -0.0017 -0.1644 -0.2462
25503W        W43707   9.591  13.648  15.577  0.1482  0.0665 -0.2542
25504W        W43708   0.622   6.188  12.594 -0.0081  0.2104  0.0391
25505W        W43709   7.495  11.133   2.523 -0.0842 -0.1781  0.2687
25506W        W43710   4.285  11.286  11.966  0.0581  0.0270  0.3457
25507W        W43711   8.128   8.358   2.829 -0.1385 -0.0568  0.1150
25508W        W43712  13.540   7.183  11.461 -0.4793 -0.2464 -0.0445
25509W        W43713   9.971   6.259  12.110 -0.1344  0.2715 -0.1977
25510W        W43714   0.602   4.654   0.521 -0.0045 -0.1797  0.1452
25511W        W43715   7.300   4.284   2.570 -0.0326  0.2275  0.0025
25512W        W43716  11.582  10.533  11.346  0.1235 -0.1586  0.2101
25513W        W43717   1.345   7.630  13.220  0.3335  0.1134 -0.1745
25514W        W43718  14.098   3.959   1.469  0.3008 -0.0896  0.1185
25515W        W43719  10.280   3.206  13.953  0.0472  0.1484  0.2677
25516W        W43720   9.249  12.388  11.172 -0.2218  0.1423 -0.1390
25517W        W43721   8.611  15.350  11.250 -0.1413 -0.1084  0.4094
25518W        W43722  16.483   3.155  12.639 -0.2509  0.2939 -0.3483
25519W        W43723   1.774   0.588  11.185  0.2260 -0.2043  0.1889
25520W        W43724   4.780   8.387   1.067 -0.0857 -0.2035 -0.0417
25521W        W43725   3.799   1.319   2.856  0.1725 -0.0378 -0.0280
25522W        W43726  11.581   4.585   4.634 -0.0212  0.3628  0.0125
25523W        W43727   7.132  16.654   4.500 -0.1396  0.0593 -0.0919
25524W        W43728  16.295  10.959   1.537  0.0230 -0.0327  0.2680
25525W        W43729  15.655   1.725  14.285  0.3527  0.1771  0.0943
25526W        W43730  18.255  10.645   4.103  0.1602 -0.0414  0.0943
25527W        W43731  11.239   6.986  12.061 -0.2423 -0.1525  0.0657
25528W        W43732  11.738   9.921  13.102  0.2173 -0.2466  0.2027
25529W        W43733   7.003  12.056  11.268 -0.1035 -0.3578 -0.2149
25530W        W43734  18.170   6.051  11.885 -0.0504 -0.0761 -0.1418
25531W        W43735   6.218  11.954   2.139 -0.5006 -0.0144  0.1418
25532W        W43736  14.389  15.266   2.059  0.0326  0.1041 -0.1504
25533W        W43737  10.716  16.841  13.867  0.3227 -0.2268  0.0998
25534W        W43738  14.855   8.499   3.830 -0.1870  0.0849  0.0554
25535W        W43739  11.587  10.643  12.931 -0.1275 -0.1376 -0.0043
25536W        W43740   2.347   4.087   1.129  0.1671 -0.2961  0.1548
25537W        W43741  18.066   0.956  12.262  0.2199  0.4142  0.1325
25538W        W43742   5.679   9.976   0.185  0.1723 -0.2103 -0.0927
25539W        W43743   1.411   4.776   2.972 -0.1593  0.0300  0.1773
25540W        W43744  11.591  15.651   4.305 -0.5523  0.2148  0.1101
25541W        W43745   6.171   9.174  12.227  0.1254 -0.3467  0.2132
25542W        W43746  18.038  11.590  12.610 -0.3239  0.0079 -0.1365
25543W        W43747  17.611   5.158  14.515  0.2752  0.2245  0.2751
25544W        W43748   4.343  16.356  13.449  0.0575  0.0064 -0.1287
25545W        W43749  17.253   7.735   0.563 -0.2996  0.2176 -0.1144
25546W        W43750   6.393   4.177  14.000 -0.3048  0.0056 -0.0553
25547W        W43751   8.882  11.942  12.231 -0.1241 -0.0801  0.0849
25548W        W43752  16.460   9.067   4.183 -0.1612  0.1952 -0.2490
25549W        W43753  11.344  17.465  15.087  0.0239 -0.1887  0.2401
25550W        W43754  16.353   6.098  13.251  0.1567  0.3445 -0.2153
25551W        W43755  10.653   1.089   2.264  0.0819  0.2004 -0.1869
25552W        W43756  15.618  12.665   3.990  0.1612  0.1830  0.3726
25553W        W43757   6.546  17.626   1.266  0.0217 -0.0903 -0.1075
25554W        W43758   9.864   2.471  13.918 -0.1684 -0.0306  0.0010
25555W        W43759  13.178  16.658  12.047 -0.2706 -0.1980 -0.2672
25556W        W43760  14.490   1.191  13.483 -0.2199 -0.2031  0.0260
25557W        W43761   9.401   1.654  11.454  0.3160  0.2748  0.0018
25558W        W43762   7.741  14.408   0.554  0.1264  0.1362  0.0314
25559W        W43763   7.682   8.914  14.041  0.1333 -0.0219  0.0863
25560W        W43764   8.140  16.811   2.523  0.0840  0.1401  0.0892
25561W        W43765  17.370   0.675   2.707  0.0776  0.2035  0.0878
25562W        W43766  15.057   5.877  15.027 -0.1155 -0.3585 -0.0573
25563W        W43767   4.440   6.266  11.171  0.2051 -0.1815  0.2028
25564W        W43768   2.229   2.310  15.376 -0.0928  0.1343 -0.3253
25565W        W43769  11.344  13.679   3.421  0.1582  0.1117 -0.1416
25566W        W43770   7.998  15.022  15.044  0.0453  0.1044  0.1390
25567W        W43771  13.925  15.453   2.248  0.0176 -0.0201  0.0610
25568W        W43772  13.175  14.017  15.318  0.3442 -0.0576  0.2567
25569W        W43773  17.070   3.546  12.170  0.2279  0.2224 -0.1003
25570W        W43774  11.135  10.082  12.528  0.0235 -0.0527  0.1059
25571W        W43775   6.669   3.214  12.975  0.4115 -0.2199 -0.1659
25572W        W43776   3.524   3.955  10.222 -0.0469  0.0989  0.0354
25573W        W43777  13.145  16.766  14.833 -0.2722 -0.0014  0.3833
25574W        W43778  15.273   9.851  13.279  0.0518 -0.1380  0.2066
25575W        W43779   3.869   5.452   4.749  0.0792 -0.1258 -0.0672
25576W        W43780   5.072   1.906   0.495 -0.0593 -0.0532 -0.1028
25577W        W43781   6.883   1.795  11.737  0.0664  0.0063  0.4175
25578W        W43782   2.863  16.874   0.033 -0.0867  0.0268  0.0423
25579W        W43783  18.202  10.676  13.941 -0.0242  0.4172  0.1029
25580W        W43784  18.317   3.967   4.673 -0.1131 -0.1461 -0.2283
25581W        W43785   7.555   2.858   2.241  0.0493  0.0105 -0.1457
25582W        W43786   5.132   4.136  13.534  0.0399 -0.0399  0.0658
25583W        W43787  15.187  16.125  12.912  0.1172  0.0002 -0.0008
25584W        W43788   8.741   9.433  12.519  0.0927 -0.1230 -0.3830
25585W        W43789   1.579  15.412   0.308  0.0737 -0.1087  0.1348
25586W        W43790   5.434   6.102   5.470 -0.1362 -0.0309 -0.4916
25587W        W43791   2.789   9.609   1.439  0.1345  0.3806 -0.2695
25588W        W43792   7.034   2.078  14.061  0.1622  0.0325 -0.0059
25589W        W43793  15.840   4.432   1.146 -0.0791  0.2279 -0.0630
25590W        W43794   6.383   8.606   1.513  0.1011  0.0078  0.1399
25591W        W43795   8.324  13.570   2.947 -0.4269  0.1900  0.0306
25592W        W43796   0.986   1.505   5.665 -0.2956 -0.2002 -0.1099
25593W        W43797   3.115  10.257  11.919  0.1016 -0.2063 -0.0325
25594W        W43798  13.608  17.442   4.361 -0.1661  0.0347 -0.4062
25595W        W43799  15.952   6.749   4.880  0.2309 -0.1611 -0.1006
25596W        W43800  14.061  11.145   0.647  0.0573  0.0180  0.0976
25597W        W43801   7.359  16.522   0.383  0.0163 -0.0566 -0.2648
25598W        W43802  18.174   0.194   4.229  0.0882  0.1869  0.1877
25599W        W43803   3.800  11.150   1.592 -0.0041  0.0076 -0.0499
25600W        W43804   5.236  15.642   3.883  0.5820 -0.1500  0.0249
25601W        W43805   6.816  14.993  11.734 -0.0442  0.1810 -0.0365
25602W        W43806   4.043  15.319   2.441 -0.1678 -0.1404 -0.1993
25603W        W43807  15.297   6.084   2.373  0.0285 -0.2827  0.1990
25604W        W43808  18.330  13.973   3.925 -0.0727  0.1885 -0.2093
25605W        W43809  12.254  15.848   0.264  0.0029  0.2301 -0.1472
25606W        W43810   8.203  17.665  14.630  0.3821 -0.2431  0.0348
25607W        W43811  13.197   3.310   2.110  0.1010 -0.1315  0.3615
25608W        W43812   0.867   3.416  11.101  0.0851 -0.1481  0.0119
25609W        W43813   7.539  12.792  12.241 -0.0035  0.0504 -0.1200
25610W        W43814  12.171   1.197  12.874 -0.0907 -0.0975  0.0432
25611W        W43815  16.020   1.839  11.755 -0.4359  0.1299  0.1023
25612W        W43816   4.690  15.200  14.674 -0.2422 -0.1657  0.0269
25613W        W43817  17.486   9.945  15.247 -0.1350  0.1870  0.3890
25614W        W43818  14.619   8.843  13.670 -0.0755 -0.0160 -0.1333
25615W        W43819  11.841   4.027  12.767 -0.3786 -0.2497 -0.5811
25616W        W43820   8.646   6.538  11.245  0.3530 -0.0849  0.2869
25617W        W43821   6.956  17.157   4.290  0.0858  0.0809  0.0478
25618W        W43822  16.734  17.317   2.842  0.1490 -0.2757  0.1539
25619W        W43823  11.375  12.941   1.471 -0.4912  0.0024 -0.1625
25620W        W43824  13.189   3.763   1.122  0.0575  0.1039 -0.1145
25621W        W43825  11.637  10.628  15.540  0.1056  0.0198  0.0110
25622W        W43826   0.134  12.694  13.415  0.2320 -0.2095 -0.1747
25623W        W43827   5.620   0.066   1.667 -0.4064  0.1271  0.0992
25624W        W43828   4.820  15.054   0.848 -0.2435 -0.0476 -0.1857
25625W        W43829   2.778   0.286   1.861 -0.3051  0.2073  0.0407
25626W        W43830  13.454   4.029  15.699 -0.1535 -0.2048  0.0159
25627W        W43831   9.117   3.402   3.645  0.1002  0.0366  0.0460
25628W        W43832   5.807   7.994   2.243  0.3271  0.1691 -0.0974
25629W        W43833   5.830   1.756  13.382  0.1806 -0.2905  0.1170
25630W        W43834   6.968   6.293   1.777  0.1697  0.3108  0.1351
25631W        W43835   4.006   0.843   2.736 -0.0711 -0.0469  0.2921
25632W        W43836  11.516   5.546  12.772 -0.0258 -0.4227  0.0345
25633W        W43837   6.172   8.675   3.444  0.0592 -0.0995  0.2685
25634W        W43838   0.663   3.661  13.634  0.1028 -0.2406  0.1217
25635W        W43839  17.719   5.849  12.815 -0.1302  0.1145  0.3285
25636W        W43840   9.956   9.535   3.399 -0.1347  0.1821 -0.3270
25637W        W43841  13.837  10.631   0.564  0.0421  0.0384  0.1539
25638W        W43842   9.992   6.320   3.186  0.1138 -0.2417 -0.1125
25639W        W43843   0.752   2.259   2.325  0.0275 -0.0839 -0.1392
25640W        W43844   7.383   1.562  11.826  0.1105  0.0138  0.1196
25641W        W43845  14.646   1.653  11.250  0.0353 -0.0589 -0.3615
25642W        W43846  14.181  11.737  13.589  0.0583  0.0860 -0.0494
25643W        W43847   2.106  11.661  14.960  0.2656  0.0958 -0.1438
25644W        W43848   5.419  15.138  15.325  0.0768  0.2116 -0.0088
25645W        W43849  16.842   7.700   2.483 -0.1182  0.2274 -0.2946
25646W        W43850   8.759   4.770   4.658  0.0891 -0.0480 -0.1284
25647W        W43851   7.801  14.166  13.543 -0.3374 -0.0728  0.1327
25648W        W43852  12.047  10.556   1.371  0.0172 -0.0094 -0.0215
25649W        W43853   1.983  11.783   4.346  0.0796  0.1048  0.0926
25650W        W43854  10.027   2.127  10.644  0.5083 -0.0608  0.0255
25651W        W43855  13.835  11.778   2.095 -0.3320  0.0162 -0.0201
25652W        W43856   7.489   6.399  15.683 -0.0170 -0.1192  0.3659
25653W        W43857  16.548  12.566   4.309 -0.3109  0.2150  0.2161
25654W        W43858   2.960   1.632   3.625  0.2070  0.3574  0.0674
25655W        W43859  16.728   1.778  12.157  0.0980 -0.2122 -0.1742
25656W        W43860   4.844  18.118   4.486 -0.1554 -0.1150 -0.1870
25657W        W43861   7.904  10.460   6.006 -0.1732 -0.0470 -0.0671
25658W        W43862   2.568  11.883  14.830 -0.0579  0.0524 -0.0007
25659W        W43863  14.896  16.458  15.281 -0.0341  0.0070 -0.1668
25660W        W43864   4.263   1.797   2.322 -0.2673 -0.1216 -0.2068
25661W        W43865   9.089  11.112   3.135  0.6199 -0.4515  0.3987
25662W        W43866   0.389   4.534   4.397 -0.0248  0.1268  0.1246
25663W        W43867  17.077   1.784  13.833 -0.1512  0.0678 -0.0538
25664W        W43868   4.164  18.105   1.290 -0.2364 -0.0195 -0.0113
25665W        W43869  16.393   6.338  12.139 -0.0225  0.0080 -0.1183
25666W        W43870  12.696  11.799  10.388 -0.1193  0.1403 -0.0457
25667W        W43871   6.041  16.219   2.574 -0.2874 -0.0151 -0.0888
25668W        W43872   3.512   6.564   3.076 -0.0956  0.1787 -0.3281
25669W        W43873  12.114  12.364  12.351  0.0957  0.1723  0.0674
25670W        W43874  11.578   0.976   2.348 -0.1587  0.0004 -0.2072
25671W        W43875  11.794  15.208   2.519  0.0900  0.1673  0.0059
25672W        W43876  17.477   7.102   1.434  0.0246 -0.3514 -0.0002
25673W        W43877  12.667  16.933  14.834 -0.0340  0.2591 -0.2874
25674W        W43878   4.338  10.600   2.369  0.0233 -0.1042 -0.0882
25675W        W43879  12.636   4.478  10.705 -0.2450  0.1513  0.2248
25676W        W43880   5.215  14.367   2.419  0.1106 -0.0774  0.2041
25677W        W43881   1.604   6.494  11.824 -0.2264 -0.0807  0.1118
25678W        W43882   8.161  15.277   0.302 -0.0827 -0.0914  0.1022
25679W        W43883  10.938   3.555  14.817  0.0240  0.0449 -0.0021
25680W        W43884  16.359  17.337  11.363 -0.1107  0.2743 -0.1087
25681W        W43885   9.099  16.162   1.610  0.0116 -0.4127  0.2707
25682W        W43886  11.757  13.065   2.344  0.3528  0.0273 -0.0309
25683W        W43887   0.414   5.489  11.403 -0.0262 -0.0566 -0.0766
25684W        W43888   0.482  12.978   1.035  0.1392 -0.1559  0.1658
25685W        W43889   5.209   3.556   4.499  0.2803  0.0441 -0.3549
25686W        W43890   3.445  14.084   4.317  0.2281 -0.2095 -0.1573
25687W        W43891  17.233  15.100  14.274 -0.2039 -0.0079  0.2684
25688W        W43892  11.011   1.284  15.513 -0.0281 -0.2549  0.0065
25689W        W43893  14.477   6.925   4.080 -0.0061 -0.1589  0.0186
25690W        W43894  18.006  17.768  15.661  0.3673 -0.0062 -0.2985
25691W        W43895   2.607  15.987   3.533  0.0032  0.0753 -0.1709
25692W        W43896   9.727  13.662   4.862 -0.1439  0.0684  0.0888
25693W        W43897  16.890  16.683  11.975 -0.0767  0.3623  0.2278
25694W        W43898   3.943   3.531   3.409  0.0481 -0.2149  0.0266
25695W        W43899   7.857  16.807  12.516 -0.3323 -0.0736  0.0762
25696W        W43900   8.946  12.773   3.203 -0.1284  0.1378 -0.4362
25697W        W43901  12.174  16.692   3.595 -0.1192  0.1335  0.2703
25698W        W43902   4.025  17.925   0.725 -0.1780 -0.0321  0.0438
25699W        W43903  11.318  13.885  11.729 -0.4651 -0.0334  0.1062
25700W        W43904   1.807  14.721  11.211  0.0847  0.0121  0.0782
25701W        W43905   8.399  15.278  13.233 -0.0540  0.1259 -0.2848
25702W        W43906   6.985  15.220  13.696  0.2768  0.0757  0.0829
25703W        W43907   3.676  16.838   3.167  0.0110 -0.0020 -0.0935
25704W        W43908  15.933   4.000  11.150 -0.2516 -0.0690  0.0096
25705W        W43909   2.711   0.687  15.264 -0.0962  0.0287  0.0405
25706W        W43910   3.337   4.328   1.237  0.2606  0.2351 -0.0204
25707W        W43911  10.655   7.533   2.266  0.1185  0.1746 -0.1425
25708W        W43912   1.216  11.967   0.935 -0.3036 -0.2913  0.3332
25709W        W43913  16.994  12.562  12.443  0.1704  0.0762  0.2587
25710W        W43914  13.002  12.288  13.362  0.0776  0.2438  0.0305
25711W        W43915  13.944   1.375   2.695 -0.1434  0.4136 -0.0341
25712W        W43916  12.735  13.803  15.494  0.2214  0.0578 -0.2408
25713W        W43917  17.159  15.181   1.473  0.0798  0.1512  0.0494
25714W        W43918  16.202  11.828   1.745 -0.1384  0.1592 -0.1195
25715W        W43919  14.983  12.509   1.604 -0.2342  0.0479  0.3137
25716W        W43920  13.883  12.862   0.917 -0.2032 -0.4546  0.3013
25717W        W43921  12.963   6.197   2.589  0.0708  0.1696  0.0096
25718W        W43922  17.147  12.973  13.643  0.0082 -0.0867  0.0216
25719W        W43923   7.318   9.073  11.118  0.1353 -0.2035  0.0911
25720W        W43924   9.377  15.511  13.231  0.0752 -0.3036 -0.0350
25721W        W43925  18.145  17.625   1.003 -0.2549  0.2306  0.1795
25722W        W43926  11.075   9.452   3.350 -0.0358 -0.0707 -0.0962
25723W        W43927  13.832   2.787   1.291  0.0360  0.1644  0.3718
25724W        W43928  13.502   0.308  10.980  0.2951  0.1922  0.1931
25725W        W43929   9.487  15.283   4.168  0.0441 -0.2831  0.0109
25726W        W43930  16.228  17.387   0.262 -0.0404 -0.2517 -0.2212
25727W        W43931  17.247   4.729  13.195  0.0149  0.0904 -0.0364
25728W        W43932  15.770  12.973   0.152 -0.1895 -0.2182  0.0644
25729W        W43933   3.554  17.992  14.365  0.1039 -0.0988 -0.1788
25730W        W43934  15.101   4.078  15.364  0.3392 -0.0601  0.1421
25731W        W43935  12.666   9.324   2.220 -0.0352  0.2793  0.0778
25732W        W43936  15.905   1.202   4.590 -0.1453 -0.0541 -0.0407
25733W        W43937   8.515  10.093  12.044 -0.1443 -0.2476 -0.0740
25734W        W43938   2.405  14.904   4.257 -0.1743 -0.2883 -0.1061
25735W        W43939  12.176   2.231  15.464 -0.2760  0.3010  0.4601
25736W        W43940   7.857  18.190   1.445  0.4001  0.1571 -0.1999
25737W        W43941   9.294   6.843  13.802 -0.1300 -0.1119  0.1010
25738W        W43942  11.498  16.454   0.670  0.0935  0.0099 -0.2342
25739W        W43943  15.282  13.011  13.492 -0.3792 -0.1736  0.4292
25740W        W43944   6.371  13.297  15.279  0.1392 -0.0012 -0.0865
25741W        W43945  11.351  17.209   3.722  0.0055 -0.1399  0.1418
25742W        W43946  12.381   0.439   3.600 -0.1050  0.1436  0.0799
25743W        W43947  16.545   3.023  15.021 -0.0917 -0.1934 -0.2813
25744W        W43948  12.170  13.367   1.071 -0.1635 -0.0040  0.0116
25745W        W43949   9.788  14.188  13.261  0.0175 -0.5218 -0.0563
25746W        W43950   7.404  10.254   3.573  0.3879  0.2505  0.2366
25747W        W43951  13.097   8.664  13.698  0.1136 -0.1388  0.1226
25748W        W43952   0.021   3.015   1.704 -0.1438 -0.0268 -0.0626
25749W        W43953  11.896   1.663   3.709 -0.0157 -0.0225 -0.0104
25750W        W43954   3.318   6.542  11.730 -0.0852 -0.0892 -0.0570
25751W        W43955   0.916  12.723   3.246  0.0810 -0.1940  0.1456
25752W        W43956   5.023   1.887   3.334 -0.0900 -0.0676 -0.0003
25753W        W43957  12.917   4.165  14.321 -0.1505 -0.3981  0.1058
25754W        W43958   7.129   9.126  15.279 -0.1919 -0.2500  0.3227
25755W        W43959  14.461   8.462  13.402 -0.0107  0.3244  0.1128
25756W        W43960  15.328   3.764  12.801  0.3777 -0.0526  0.0492
25757W        W43961  14.680  16.136   3.075 -0.0728  0.0276 -0.1557
25758W        W43962   8.386   8.666   4.100  0.2189 -0.1109 -0.0798
25759W        W43963   7.626  12.414  15.439  0.0961 -0.0529  0.2261
25760W        W43964  12.145  11.133   3.007  0.2270  0.0721 -0.1725
25761W        W43965  11.092  15.663  12.895  0.1108 -0.0720 -0.2509
25762W        W43966  12.184  15.108   1.958 -0.0158 -0.1445 -0.0371
25763W        W43967   4.425  12.700  11.826 -0.2078  0.2681 -0.0094
25764W        W43968   5.002  11.096  15.117  0.0589 -0.1335 -0.0298
25765W        W43969   0.407  13.922   0.870  0.0864 -0.3113 -0.0283
25766W        W43970  11.990  10.524   2.783 -0.3673  0.0694  0.0732
25767W        W43971  16.375   6.822  12.299  0.1473 -0.0881 -0.1539
25768W        W43972   3.426  12.035  11.288 -0.2513 -0.0472 -0.0136
25769W        W43973   3.855  16.217  13.864 -0.0345 -0.0933 -0.1620
25770W        W43974  12.527   4.130  11.254 -0.1865 -0.0440 -0.3196
25771W        W43975   6.850   0.832  13.930 -0.2528  0.2571 -0.0528
25772W        W43976   7.426   4.038   2.178  0.0446  0.1383 -0.1395
25773W        W43977  15.892   2.613   1.840 -0.0342 -0.0208 -0.1164
25774W        W43978  14.153   1.680   0.513  0.0475 -0.2253 -0.1580
25775W        W43979   9.446   3.209   2.933  0.1140  0.2307  0.3500
25776W        W43980   2.699   6.053  13.367 -0.2078 -0.0750  0.2315
25777W        W43981   1.151   1.690   1.303 -0.0336 -0.1366 -0.0940
25778W        W43982  13.155  15.721  14.234  0.0186  0.1644  0.3552
25779W        W43983   3.324   4.649   2.684  0.0183 -0.0048 -0.0537
25780W        W43984   5.459   1.013  12.925  0.1291  0.3071  0.1285
25781W        W43985   9.325  12.328  12.093 -0.1231 -0.1454 -0.3458
25782W        W43986  12.756  16.831  12.291 -0.0305 -0.0360 -0.0405
25783W        W43987  11.517  11.963  15.285  0.0494 -0.1351 -0.2821
25784W        W43988  14.590   7.131   3.656  0.1736  0.0437  0.1975
25785W        W43989   4.470  15.278  13.933 -0.1327  0.1757 -0.1964
25786W        W43990  17.037  16.452  13.626 -0.2142  0.2538 -0.2416
25787W        W43991   1.412   0.108  13.184 -0.1956  0.0838 -0.2383
25788W        W43992   2.416   5.670  14.740 -0.3152 -0.2692 -0.0963
25789W        W43993   1.529  11.206  13.311  0.4513  0.1259  0.1600
25790W        W43994   9.988   2.769   2.219 -0.0211  0.0315  0.1120
25791W        W43995  17.808   9.908   1.392  0.0848 -0.0957 -0.0732
25792W        W43996   2.916   8.241   0.515 -0.3315 -0.0322 -0.2119
25793W        W43997   7.422   3.269   3.494 -0.0710 -0.0536 -0.2177
25794W        W43998  12.436  11.741  14.640  0.1045  0.0916 -0.1681
25795W        W43999  16.672   1.438   9.988  0.0342 -0.2509 -0.0210
25796W        W44000   3.911   4.488   3.391 -0.2041 -0.1406 -0.0583
25797W        W44001  15.316   4.375   1.097  0.0432  0.0498 -0.0972
25798W        W44002  12.270  11.816   4.303 -0.0113 -0.0614 -0.0979
25799W        W44003   5.161  12.024  12.727  0.1267 -0.3248 -0.0228
25800W        W44004  10.243  12.998   1.123  0.1406 -0.0261 -0.1528
25801W        W44005  17.420  16.367   3.656  0.3355 -0.2939  0.0070
25802W        W44006  15.922  12.250  10.467 -0.2164 -0.0487 -0.3346
25803W        W44007   7.495   0.490   1.311 -0.0613  0.2433 -0.0468
25804W        W44008   8.350  14.878   0.552 -0.3471  0.2490  0.0205
25805W        W44009   7.642  11.875  14.706 -0.0274  0.2941 -0.1008
25806W        W44010   0.652  15.947  14.298 -0.0393 -0.1395 -0.0823
25807W        W44011  13.362   4.714   3.540 -0.0611  0.0854 -0.0190
25808W        W44012  13.634  12.414  11.536  0.2218  0.2329 -0.0651
25809W        W44013   4.121   9.626   1.330  0.0978 -0.1010  0.1711
25810W        W44014  16.630   7.796  11.939 -0.3360  0.0563 -0.0394
25811W        W44015  17.976  18.166  11.775  0.0269 -0.1228  0.0689
25812W        W44016   8.253  12.344   3.703  0.1904  0.2911  0.1625
25813W        W44017   0.500  18.121   0.336 -0.3491 -0.1088  0.0211
25814W        W44018   3.291   7.826  13.607  0.1135  0.0336 -0.1330
25815W        W44019   5.035   1.588   4.526 -0.0540 -0.1178  0.2302
25816W        W44020  15.847   7.701  11.062  0.0474  0.0474  0.2048
25817W        W44021   4.262   2.096  11.796  0.1620 -0.3231  0.2713
25818W        W44022  14.303   9.239  13.879  0.0949  0.0929 -0.3432
25819W        W44023   8.083   6.988  15.292  0.0071 -0.2420 -0.0366
25820W        W44024   0.952   4.832   2.752 -0.0806  0.1893 -0.1051
25821W        W44025   1.961   8.469   2.602  0.0774 -0.0267  0.3122
25822W        W44026  12.810  15.249  13.215 -0.0960  0.2868  0.3956
25823W        W44027  17.553   1.204  15.042 -0.1359 -0.0895  0.0081
25824W        W44028   9.859   1.971   5.021  0.0893  0.4408  0.3176
25825W        W44029  18.355  17.797   2.597 -0.0413  0.1423 -0.0822
25826W        W44030  17.130   4.690   3.011 -0.0466  0.0061 -0.1806
25827W        W44031  12.311   3.619   3.734  0.0775 -0.0126  0.0169
25828W        W44032   0.993  17.941   0.333 -0.3542 -0.0335  0.0770
25829W        W44033   0.682   4.251   4.657 -0.0013  0.0036 -0.2221
25830W        W44034  15.466  15.530  13.393 -0.1516  0.0951  0.1079
25831W        W44035   0.295   8.500  11.459 -0.0642 -0.0057 -0.3208
25832W        W44036   6.277   4.129   1.630  0.1982 -0.1075  0.5534
25833W        W44037  15.538  13.853  13.186 -0.1088 -0.0204 -0.1746
25834W        W44038   7.527  14.736   2.707  0.0730 -0.0937  0.0480
25835W        W44039  14.249   7.460  13.686  0.0514  0.1520 -0.1102
25836W        W44040  14.361   0.228  12.355  0.1250  0.0687  0.1701
25837W        W44041  12.178   4.259  14.964 -0.1194 -0.1035 -0.3099
25838W        W44042  13.464  10.610   4.620  0.2486  0.6451  0.1310
25839W        W44043   5.828  13.425  14.234  0.1154 -0.2500  0.3270
25840W        W44044  11.788   9.219  12.499  0.3185  0.4286  0.2799
25841W        W44045  16.267  15.226   0.874  0.2216  0.2681 -0.1610
25842W        W44046  16.019   1.734  14.883  0.2910  0.1125 -0.0588
25843W        W44047   1.924  15.558   3.157  0.1868  0.1274  0.0322
25844W        W44048   0.017  10.133   3.647 -0.1611  0.2046 -0.4725
25845W        W44049   1.301   3.770   4.416  0.0924 -0.4106  0.0994
25846W        W44050   3.697   8.580   0.516  0.1784 -0.2055  0.0333
25847W        W44051  11.821  15.803  13.731  0.1619  0.2066  0.1060
25848W        W44052   2.155  14.036   3.935  0.3423 -0.0949 -0.1515
25849W        W44053   9.335  14.454  11.804  0.0109  0.1604 -0.1156
25850W        W44054   9.979  13.089   2.546 -0.0746  0.0010 -0.3600
25851W        W44055  13.792  11.773   4.026 -0.0154  0.3444  0.1068
25852W        W44056   6.304   9.132   1.990 -0.1371  0.3058  0.0949
25853W        W44057   5.770   4.821  11.187 -0.0951  0.3072 -0.2182
25854W        W44058   7.363  11.858   3.952 -0.2326 -0.4843 -0.0438
25855W        W44059   1.139   2.266  14.867  0.0594  0.0441 -0.1010
25856W        W44060   1.360  11.039  15.482 -0.0036  0.1322  0.2285
25857W        W44061  17.985   6.323   5.307 -0.0188 -0.0085  0.0656
25858W        W44062   8.497   1.874   0.857  0.0617 -0.0231 -0.0382
25859W        W44063  14.880   5.341   2.969 -0.0853  0.0703  0.1203
25860W        W44064  18.087  14.980  14.757 -0.1586 -0.2214 -0.2853
25861W        W44065  12.049  16.602  12.926  0.0143 -0.1775  0.4354
25862W        W44066   0.796  15.674   3.399  0.1893 -0.2483  0.1403
25863W        W44067   9.224   7.627   0.477  0.1236 -0.0955  0.2118
25864W        W44068  16.820  17.406   0.909  0.1228 -0.0032  0.4129
25865W        W44069   9.025  16.788  11.333 -0.3123  0.0348  0.0596
25866W        W44070   6.059   0.306   1.857 -0.3319  0.1016  0.0984
25867W        W44071   8.654  14.194   0.175 -0.2248  0.1127 -0.0297
25868W        W44072  11.983  17.854   0.483 -0.1418 -0.1951  0.3526
25869W        W44073   3.879   7.513   2.007  0.2156 -0.1295  0.1143
25870W        W44074   9.488  11.307   3.615 -0.0861  0.0155  0.1126
25871W        W44075   1.184  16.558  15.355 -0.2252 -0.0843  0.4025
25872W        W44076  13.225  14.633  12.021 -0.1555  0.0291 -0.2329
25873W        W44077  11.413   9.589  12.691  0.0993 -0.0615  0.0035
25874W        W44078  10.012   1.449   4.889 -0.1275 -0.3336 -0.3287
25875W        W44079   3.334  15.411   1.426 -0.0263  0.1462 -0.0091
25876W        W44080  16.688   6.164  14.436  0.2418 -0.4138  0.0543
25877W        W44081  10.192   9.243   2.576  0.1058 -0.0693 -0.1749
25878W        W44082   9.701   1.293   0.581 -0.0387 -0.1454  0.0183
25879W        W44083   1.631  10.527   2.245 -0.2465  0.0451 -0.1062
25880W        W44084   6.878   6.629   4.951 -0.0417 -0.2393 -0.0755
25881W        W44085   2.080   6.741  12.312 -0.0376 -0.0475 -0.1425
25882W        W44086   2.922   2.266  11.503 -0.2666  0.1082 -0.3576
25883W        W44087  11.105   4.775  11.380  0.0907  0.1502 -0.1993
25884W        W44088   6.836   9.424  13.901 -0.2763 -0.1137  0.1647
25885W        W44089  15.629  11.807  11.484 -0.1433 -0.1444  0.0744
25886W        W44090   4.983  15.184  12.286  0.1296  0.0646  0.1160
25887W        W44091  16.679  15.302   1.427  0.3546  0.2068 -0.0756
25888W        W44092  10.060   7.998  15.433  0.0533  0.0675 -0.2452
25889W        W44093   4.406  14.029   0.819 -0.0246  0.1927  0.0359
25890W        W44094  15.559  12.942  15.442 -0.0152 -0.1924  0.0228
25891W        W44095  14.989   3.898  13.619 -0.0130 -0.3965  0.0954
25892W        W44096  15.813  10.414  11.968 -0.1585 -0.0280 -0.0058
25893W        W44097  15.258   9.214   1.049  0.0372 -0.0461 -0.0544
25894W        W44098   3.035  11.655   2.285 -0.0357  0.1590  0.3999
25895W        W44099   6.344  17.790  15.539  0.3326 -0.0693  0.0395
25896W        W44100   9.815  13.914   0.802  0.0258 -0.0984 -0.4412
25897W        W44101   1.101  17.016  10.866 -0.0512 -0.0617 -0.1544
25898W        W44102  14.958   3.441  15.697 -0.0537 -0.0950  0.1835
25899W        W44103   1.322  11.272   2.127 -0.1911 -0.1259  0.2091
25900W        W44104   0.725  11.775  15.445  0.0762 -0.2563  0.1075
25901W        W44105  10.962   5.241   3.150  0.4002  0.0713  0.0674
25902W        W44106   5.925   6.017  10.086 -0.1608 -0.1476  0.0406
25903W        W44107   8.619  13.028   3.516  0.0398 -0.3758  0.0046
25904W        W44108  17.016   5.179  12.961 -0.3052 -0.3923  0.2042
25905W        W44109  13.926  15.810   3.762  0.0117 -0.3187 -0.0787
25906W        W44110  10.782   2.576   1.018  0.1703 -0.2214 -0.0765
25907W        W44111   7.104   3.550   4.195 -0.0806 -0.0389  0.0230
25908W        W44112  14.748   0.491   3.740 -0.0310  0.2056  0.0322
25909W        W44113  11.081  12.109   4.831  0.1303  0.0181 -0.3304
25910W        W44114   3.438  12.614  15.474 -0.2160 -0.1397  0.2126
25911W        W44115  17.212  13.851   2.174  0.1434 -0.1063 -0.0253
25912W        W44116   8.709  13.962   3.176  0.1097 -0.0560  0.1709
25913W        W44117   7.459   6.472  13.439  0.0431  0.0011 -0.0417
25914W        W44118  13.042  17.255  14.652  0.1174 -0.0303 -0.1540
25915W        W44119  17.073   4.539   1.772 -0.1010  0.0582  0.1708
25916W        W44120  10.157   3.974  15.529 -0.2517 -0.0990 -0.3980
25917W        W44121  13.086   1.354  14.217  0.0910  0.2605 -0.0788
25918W        W44122   4.643  13.698   2.895 -0.2094  0.3134 -0.0552
25919W        W44123   4.454   4.763  12.952  0.1297  0.1554 -0.3817
25920W        W44124   0.634   1.870  12.416  0.3188 -0.0127  0.0949
25921W        W44125  12.952  14.655   0.015  0.2959 -0.0369 -0.3768
25922W        W44126  15.628   9.214  10.883 -0.2050  0.0804  0.0986
25923W        W44127   5.527  13.294  14.911  0.1175  0.0243  0.3178
25924W        W44128   4.293  17.854   1.986  0.1310 -0.2967 -0.3378
25925W        W44129   7.744  12.622  13.775 -0.1028  0.0267 -0.1740
25926W        W44130   2.988   3.509  15.232  0.1072 -0.1833 -0.3597
25927W        W44131   4.333   4.761  15.324  0.2531  0.0760 -0.2285
25928W        W44132   0.666  16.430  11.663 -0.1938 -0.4818  0.3067
25929W        W44133   7.268   1.110  11.474 -0.2253  0.0272  0.0425
25930W        W44134   1.226   5.066  12.841  0.0227 -0.1073 -0.0806
25931W        W44135   1.575   6.640  12.331 -0.1483 -0.3110  0.1645
25932W        W44136  11.160  15.375   3.236  0.2267  0.0131  0.1870
25933W        W44137  11.685  11.339  14.632  0.1109  0.1274  0.0372
25934W        W44138  17.349   4.068   0.919 -0.1631  0.1728 -0.1015
25935W        W44139   0.335  14.514  13.789 -0.0620 -0.0055  0.1763
25936W        W44140  12.129  17.570   4.437 -0.2593  0.3007 -0.1607
25937W        W44141   3.611   8.040  12.742  0.0440  0.0731 -0.0800
25938W        W44142   7.121   1.176   3.878 -0.1339 -0.1417  0.0279
25939W        W44143  16.307  14.799  15.701  0.0002 -0.3962  0.1027
25940W        W44144  17.837  11.962   3.208  0.5676 -0.0221  0.2614
25941W        W44145   7.470   5.789   2.480  0.1268 -0.0046  0.2510
25942W        W44146  11.400   4.321   4.189 -0.0297 -0.0923  0.0790
25943W        W44147  10.812  10.437  12.313  0.3313  0.3448 -0.1540
25944W        W44148  11.058  17.702  15.708 -0.1471  0.1058 -0.0945
25945W        W44149   5.781  14.955   5.002  0.0441 -0.0884  0.0249
25946W        W44150   3.629   5.599  11.832 -0.3232  0.2536 -0.1757
25947W        W44151   6.248   0.908   4.385 -0.2477 -0.0435 -0.2146
25948W        W44152  17.372  17.836  13.310 -0.4408  0.1721 -0.1440
25949W        W44153   4.636   5.544  11.447  0.0818  0.0471  0.1814
25950W        W44154   5.971   9.305  11.197  0.1849 -0.0129 -0.0530
25951W        W44155  15.231  17.758   2.522  0.1264 -0.0890  0.1907
25952W        W44156  17.380   9.744   1.658 -0.2979  0.1061  0.1217
25953W        W44157   9.350  11.589   3.153 -0.3068  0.0967 -0.1010
25954W        W44158   1.740   0.394   1.284  0.2905 -0.0636  0.0348
25955W        W44159  11.425   0.587   0.026 -0.2664  0.1009 -0.0003
25956W        W44160  11.738  11.130  15.542  0.0828  0.0558  0.1677
25957W        W44161   1.262  15.163   2.929  0.2060  0.1902 -0.2762
25958W        W44162  14.875   8.504  11.080 -0.0715  0.3133  0.2065
25959W        W44163  18.014   6.091  13.137 -0.0013  0.0214 -0.0228
25960W        W44164   3.302   7.442  11.367 -0.1346 -0.2784  0.1284
25961W        W44165   9.128  14.362   0.217  0.1986  0.1980 -0.2993
25962W        W44166  10.492  18.119  12.307 -0.0961  0.1545 -0.0786
25963W        W44167   4.607   1.796   1.941  0.4538  0.0550 -0.2275
25964W        W44168  17.732  16.793   3.520 -0.2978  0.2005  0.3067
25965W        W44169   4.026   8.373   1.410 -0.1878 -0.1609 -0.1634
25966W        W44170   1.365   0.442   2.751 -0.2528 -0.0037 -0.1894
25967W        W44171   9.126   1.323  14.258  0.0829  0.1491 -0.3212
25968W        W44172   0.640  10.417  14.444 -0.0221 -0.0446 -0.2404
25969W        W44173   9.820  17.365  11.632  0.1346  0.3952 -0.0982
25970W        W44174   0.531   0.519  11.255 -0.1382 -0.0830  0.2207
25971W        W44175   7.992  16.684  10.104 -0.1526  0.2234 -0.1977
25972W        W44176   8.699  14.827  11.470 -0.1541 -0.2117 -0.2045
25973W        W44177   6.833  17.955  11.084  0.0481 -0.0260  0.2527
25974W        W44178  10.175   0.637   3.878 -0.1446 -0.1130 -0.0631
25975W        W44179  15.705   9.273   0.102 -0.1978  0.0294 -0.0343
25976W        W44180   7.465   6.586   0.531  0.0383  0.1700  0.0542
25977W        W44181  12.049  13.847   0.414  0.1654 -0.2568  0.3729
25978W        W44182  11.174   3.823   3.452 -0.0186  0.1570  0.2741
25979W        W44183   5.408  13.943   1.710  0.0233 -0.1418 -0.2302
25980W        W44184   8.700   7.089   3.981  0.0231 -0.0017  0.2293
25981W        W44185  10.604  14.512   4.409 -0.1079 -0.0116  0.1478
25982W        W44186  13.229  12.168   2.216  0.0050  0.0126 -0.2434
25983W        W44187  14.742   7.326   3.162 -0.0787  0.3228  0.0811
25984W        W44188  12.871  11.824   2.666 -0.2291  0.0886  0.1575
25985W        W44189  13.595  11.389  13.892  0.2156  0.2346  0.3151
25986W        W44190  12.128  12.614  15.643 -0.0650  0.0034  0.1007
25987W        W44191   1.591   3.991  12.832  0.1842 -0.0528  0.1551
25988W        W44192   7.260   0.615   1.815 -0.3508  0.1441  0.3942
25989W        W44193   4.706   9.406  14.758 -0.1709 -0.1260  0.0703
25990W        W44194   3.716   9.534  13.129  0.1682 -0.1145 -0.0115
25991W        W44195  12.642  14.073   3.200 -0.1436  0.0854 -0.0638
25992W        W44196  12.152   2.785   4.388 -0.0530 -0.2400  0.2458
25993W        W44197   7.101   3.835  13.333  0.3172  0.0423 -0.0625
25994W        W44198  18.321   2.642   0.537  0.0711  0.0411  0.0232
25995W        W44199   0.669   3.657  14.695  0.1886  0.0695  0.0035
25996W        W44200  11.717  12.435  12.858 -0.1356 -0.2362 -0.0208
25997W        W44201   6.101   6.528  14.632 -0.0956 -0.0646 -0.0076
25998W        W44202   6.098   8.435   0.620 -0.2800  0.0806 -0.1934
25999W        W44203  11.400  10.887   2.441  0.1283 -0.0395 -0.0566
26000W        W44204   5.773  15.439   4.833  0.1257  0.0625  0.0199
26001W        W44205   9.666  11.187   0.369  0.0194  0.2024  0.0386
26002W        W44206   1.320  13.887  12.131 -0.0564  0.2511  0.0688
26003W        W44207   8.551   8.187   2.634  0.2021  0.0133  0.1144
26004W        W44208   9.683   1.755   4.515 -0.1665  0.1253 -0.1683
26005W        W44209   9.575  14.850   2.319  0.0277 -0.2559  0.0592
26006W        W44210  14.211   3.411  13.444  0.0079 -0.3625  0.1075
26007W        W44211   2.217   6.393   0.976 -0.1725 -0.1076  0.1456
26008W        W44212   1.865  17.500   0.547 -0.3210 -0.1784 -0.2798
26009W        W44213  14.454  11.925  14.881 -0.0425 -0.2049  0.0313
26010W        W44214  14.580  16.712  15.668  0.0837  0.1854  0.3611
26011W        W44215  16.947   8.666   0.472 -0.2027 -0.1562 -0.1974
26012W        W44216   3.503   9.471  12.139 -0.0521  0.1444 -0.1353
26013W        W44217  13.758  10.001  14.217  0.0773  0.0320  0.0187
26014W        W44218   6.500  11.245  13.160 -0.0239  0.1592  0.5167
26015W        W44219   8.868  10.688   3.050 -0.0613 -0.0285  0.2459
26016W        W44220  13.407  17.004  10.416  0.0170 -0.2683  0.1883
26017W        W44221  17.661   0.341   1.396 -0.0161  0.0864  0.0760
26018W        W44222  11.522   9.736  14.516  0.4760 -0.1944  0.0992
26019W        W44223   9.427   6.267   3.839  0.0613  0.3013  0.0704
26020W        W44224  18.011  17.220  11.956 -0.0822 -0.2362  0.0215
26021W        W44225  14.396  10.565  13.313 -0.0325  0.4057  0.1385
26022W        W44226  13.810   1.563   4.303  0.0422 -0.1958 -0.0113
26023W        W44227  16.628  14.690   3.762 -0.0474  0.1232 -0.3351
26024W        W44228  12.199  14.024  14.211  0.2878  0.3925 -0.0815
26025W        W44229   1.820  10.218  12.405  0.2089  0.3793  0.2113
26026W        W44230  18.040   7.619  13.496 -0.0901 -0.0574 -0.1456
26027W        W44231  11.924  12.627   2.270 -0.1328  0.0256  0.2423
26028W        W44232   9.972  12.364  11.384 -0.3831 -0.0391 -0.2350
26029W        W44233   7.619   8.930  15.661 -0.3414  0.1572 -0.1493
26030W        W44234  17.119   8.253   3.317 -0.0148 -0.2044  0.1094
26031W        W44235   8.194  10.253  11.090  0.0938  0.2918  0.0257
26032W        W44236  12.722   0.078   5.422 -0.1807 -0.0794 -0.0573
26033W        W44237   4.172  16.078  15.057 -0.1006 -0.3891  0.3217
26034W        W44238   9.684  15.876   0.842  0.1677 -0.1825 -0.1033
26035W        W44239   5.418  14.221   3.298 -0.0516 -0.1807 -0.2918
26036W        W44240   0.454  11.423  12.653  0.0707  0.0514 -0.1406
26037W        W44241   1.723   4.465   2.626 -0.1072 -0.1759  0.0035
26038W        W44242   6.002   9.801  15.011 -0.4537 -0.2156 -0.0241
26039W        W44243  10.452  11.461   1.475  0.1624 -0.0848 -0.0610
26040W        W44244  15.909   6.254  12.895 -0.0556  0.4189 -0.0245
26041W        W44245  18.273  12.406   2.290  0.0122  0.0645 -0.0900
26042W        W44246  13.752  16.921  15.674 -0.1012 -0.2359 -0.0112
26043W        W44247  17.511  17.480  12.931 -0.0468 -0.0816  0.3542
26044W        W44248  17.134   1.663   4.489  0.2043 -0.0445 -0.0476
26045W        W44249   5.524   6.748   0.082 -0.4670 -0.0808  0.1728
26046W        W44250  15.017  14.746   3.526 -0.1900 -0.0904 -0.1078
26047W        W44251   5.193   7.111  13.948 -0.2503  0.1849  0.1996
26048W        W44252  13.816   7.442   2.764  0.0158 -0.2542 -0.0270
26049W        W44253   0.091   6.043   3.759  0.0349 -0.2398  0.0451
26050W        W44254   8.435   9.162   1.755  0.0824 -0.0990  0.0123
26051W        W44255  11.868   0.332  14.159 -0.2454  0.1263 -0.0167
26052W        W44256  15.477  12.714   1.814 -0.3592  0.0489  0.3807
26053W        W44257   3.837  10.366  11.034  0.2359 -0.2615 -0.2865
26054W        W44258   3.787  11.703   2.850 -0.0536 -0.2911  0.1241
26055W        W44259   7.189   7.907   0.573 -0.0051 -0.0936  0.2006
26056W        W44260  17.981  13.933   2.480 -0.3951 -0.1081 -0.2263
26057W        W44261   3.663   8.074   4.172  0.0550 -0.0873 -0.1290
26058W        W44262   4.356  12.968  13.905  0.0300 -0.1391  0.1279
26059W        W44263  11.555  10.742   1.191  0.0909  0.2522 -0.0758
26060W        W44264   9.538  13.003   2.322  0.3207 -0.0895  0.0846
26061W        W44265  14.450   4.691  13.572 -0.3474 -0.0476 -0.1453
26062W        W44266  13.655  11.551  11.574 -0.1366 -0.1376 -0.1130
26063W        W44267  11.452   6.904   0.122  0.2329  0.1448  0.1128
26064W        W44268   6.462   6.867  12.467  0.0646 -0.2169  0.2211
26065W        W44269  12.795   1.610   0.641 -0.2132 -0.3437  0.3015
26066W        W44270   9.100   7.576   3.090 -0.0695 -0.0426 -0.0702
26067W        W44271   1.112   4.294   4.377  0.1711 -0.0164  0.2095
26068W        W44272  15.832   2.010   2.602 -0.0445  0.0064 -0.0971
26069W        W44273   3.040   9.378  12.387 -0.0172 -0.0688 -0.0110
26070W        W44274   2.529   0.261  14.457 -0.1999 -0.1953  0.1150
26071W        W44275   5.338  17.694  12.927  0.2050 -0.1659  0.1393
26072W        W44276  10.706  17.247  15.269  0.3247  0.0684  0.0412
26073W        W44277   9.722  12.715  11.758  0.4011 -0.1756  0.0827
26074W        W44278  14.713  18.338  11.409 -0.3641 -0.0013  0.1299
26075W        W44279  18.073   2.212  10.725 -0.2633  0.0544  0.1884
26076W        W44280  10.415   4.374   1.608 -0.0272 -0.0614 -0.1225
26077W        W44281   2.242   3.608   9.985 -0.1831  0.0915  0.3017
26078W        W44282   6.676   6.727   0.135  0.2527 -0.0105  0.0620
26079W        W44283  10.830   6.128   5.055 -0.1567 -0.1400 -0.1433
26080W        W44284   6.630   5.751   1.015 -0.2269 -0.4196 -0.1759
26081W        W44285   8.280  13.756   3.737 -0.3268 -0.0857 -0.0816
26082W        W44286  18.073  17.775   9.965  0.1215 -0.2677  0.2123
26083W        W44287   4.573  17.204   0.037 -0.1799 -0.1050 -0.0473
26084W        W44288   4.849   9.576   0.433  0.1662 -0.0999 -0.1213
26085W        W44289   8.588  14.959   4.266  0.2081 -0.0643 -0.0353
26086W        W44290   2.151  10.386  10.544  0.1452  0.0531  0.2031
26087W        W44291   9.206   7.256  10.726  0.1685 -0.1010 -0.2710
26088W        W44292  16.170  12.943  11.167  0.1428  0.0590 -0.1893
26089W        W44293   9.547  11.416  12.813  0.1162 -0.0302  0.1640
26090W        W44294  10.207   2.806   3.166 -0.1575 -0.1326  0.0332
26091W        W44295   2.056  10.389  14.886 -0.0495  0.1902 -0.0168
26092W        W44296  15.303  12.884   2.291  0.0746 -0.0533 -0.0945
26093W        W44297   0.684   2.020  12.932  0.0633 -0.1876 -0.0017
26094W        W44298  10.426   0.093  14.553  0.0652  0.0745  0.2732
26095W        W44299  16.042   3.444  11.550 -0.2822  0.0805  0.1576
26096W        W44300   9.630  16.211   4.489  0.0025 -0.2206  0.4673
26097W        W44301  16.125   3.398   0.914  0.0543 -0.3240 -0.0888
26098W        W44302  17.281  13.230  13.214  0.0004 -0.1642  0.2442
26099W        W44303   6.557  15.986   3.375 -0.0344  0.0527  0.1333
26100W        W44304   0.757   7.276  12.113 -0.1931 -0.2441  0.1868
26101W        W44305   6.560   8.432  12.944 -0.0797  0.0893  0.0829
26102W        W44306   1.712  13.047  11.654 -0.0921  0.0062  0.0764
26103W        W44307   6.568   0.774   3.503 -0.0914 -0.2662  0.2067
26104W        W44308  17.981   5.082   4.669  0.3592 -0.0161 -0.2304
26105W        W44309  17.280   0.690   1.343 -0.0617 -0.0399  0.1291
26106W        W44310  11.792   0.067   4.530 -0.2996  0.1142 -0.0493
26107W        W44311  10.985  17.139   0.196  0.3793 -0.1674  0.3207
26108W        W44312   9.318   3.991  11.210 -0.1601  0.0936  0.0312
26109W        W44313   9.976  18.020   4.878  0.0246 -0.3010  0.0497
26110W        W44314   0.009  12.869   0.897  0.0857 -0.2228 -0.0869
26111W        W44315  11.780   1.170  14.635  0.1101  0.2555  0.0135
26112W        W44316  12.283   1.767  14.159  0.0880 -0.3721  0.0540
26113W        W44317  14.600   4.181  15.163 -0.2121 -0.0708 -0.0421
26114W        W44318   8.768   8.622   4.497 -0.0773 -0.0310 -0.0327
26115W        W44319   7.340  15.615  10.918  0.1915  0.1758 -0.4602
26116W        W44320  13.867   1.813  13.087 -0.0388  0.1256 -0.1782
26117W        W44321   5.383  11.067  13.233  0.0681 -0.0959  0.0725
26118W        W44322   3.899   5.457  12.964  0.1050 -0.0719  0.0791
26119W        W44323   2.641  13.748  11.377  0.0894  0.1594  0.0438
26120W        W44324   0.787   9.787   0.381  0.0703 -0.1191 -0.1187
26121W        W44325   0.553   3.895   3.809 -0.0338 -0.1208 -0.1447
26122W        W44326  14.614  14.841   1.401  0.0894 -0.0241  0.1106
26123W        W44327  12.640  11.351   2.772 -0.1228 -0.0360 -0.0513
26124W        W44328   9.861  17.806   4.330  0.1980  0.4551  0.2512
26125W        W44329   4.705   8.619  12.023  0.1717  0.1266  0.0351
26126W        W44330  14.952   2.880  13.164 -0.0596  0.1702 -0.2885
26127W        W44331   9.955   2.981   2.776  0.1425  0.0905  0.1798
26128W        W44332  13.866   2.774  12.692  0.0945 -0.1932 -0.0538
26129W        W44333   4.913  14.368  13.710  0.2666 -0.0651 -0.0670
26130W        W44334   5.715  12.151   1.151 -0.0075  0.1364 -0.0739
26131W        W44335   4.019  15.382  15.582  0.3049  0.1476 -0.3735
26132W        W44336  12.814  12.642  14.296  0.0398 -0.0570  0.1178
26133W        W44337   8.078  15.518   2.436 -0.3480  0.0252 -0.1079
26134W        W44338   3.253  10.878   3.149  0.1621 -0.0734  0.2580
26135W        W44339  14.453  15.362   3.895  0.1242  0.0876 -0.2084
26136W        W44340   5.092  15.815  15.464 -0.3424  0.1247 -0.1422
26137W        W44341   1.362   4.301   1.761 -0.1900  0.0257 -0.1163
26138W        W44342   8.993   7.412  12.852 -0.0096 -0.1120  0.0695
26139W        W44343  10.555  15.400   0.568  0.0572  0.0340 -0.2493
26140W        W44344  15.111   5.410   3.860 -0.1293 -0.1321  0.1073
26141W        W44345   5.134  12.468  13.426  0.0316  0.1744  0.1832
26142W        W44346   2.626  15.444   0.995 -0.0758 -0.2095 -0.1369
26143W        W44347  10.742  11.887  12.304  0.0031 -0.2762 -0.3200
26144W        W44348   7.330   7.271   4.346 -0.2904  0.0734  0.2308
26145W        W44349  14.348   3.276  11.515  0.3396  0.0669  0.0974
26146W        W44350   7.900   7.441   2.824 -0.0479 -0.2989 -0.0558
26147W        W44351  17.985   1.421   0.682  0.0680 -0.0664  0.1034
26148W        W44352   5.493   2.445  12.863 -0.1004 -0.0813 -0.1161
26149W        W44353  14.693  11.213   1.395  0.0046  0.0800  0.0635
26150W        W44354   5.017  15.621   2.399  0.0287 -0.1323  0.2385
26151W        W44355   0.512  14.412  15.478 -0.2813 -0.3043  0.0611
26152W        W44356   7.417  17.030   4.209  0.1401 -0.3058 -0.4712
26153W        W44357  15.425  14.152  15.187  0.0752  0.0164  0.0583
26154W        W44358  17.724   6.300  11.707  0.0117  0.1675 -0.0379
26155W        W44359   7.362  12.575  14.147 -0.1198 -0.1144 -0.0325
26156W        W44360  14.420   9.674  15.482  0.1370 -0.1937  0.3065
26157W        W44361   8.751  11.457   1.570  0.0278 -0.0156  0.1805
26158W        W44362  10.223   7.541  12.640  0.2217  0.0874 -0.1763
26159W        W44363  13.775   9.891   1.152  0.1819  0.1845 -0.1751
26160W        W44364   7.709   6.855   4.514  0.3481 -0.2756  0.3150
26161W        W44365  17.430  18.122   0.580 -0.1472 -0.1589 -0.3232
26162W        W44366  13.807   2.274  12.857 -0.2006 -0.0102  0.2841
26163W        W44367   2.933   8.575  12.572  0.1578 -0.1073 -0.0496
26164W        W44368   0.799  13.360   0.954  0.2176 -0.2360 -0.3259
26165W        W44369   1.045   1.189  13.078 -0.1248 -0.0898  0.1953
26166W        W44370  15.340   5.176   9.875  0.2275  0.1715  0.1823
26167W        W44371  13.583  15.938   2.295 -0.0088 -0.2592 -0.2107
26168W        W44372  10.308  13.395  13.242 -0.1741 -0.0588  0.0321
26169W        W44373  10.000   8.490   2.232  0.0515 -0.0463  0.3447
26170W        W44374  12.311  12.626  14.631 -0.0871  0.0207  0.2042
26171W        W44375  13.613   6.855  11.860 -0.0491  0.2888 -0.2518
26172W        W44376  17.730  10.460  13.681 -0.3009  0.0217 -0.0117
26173W        W44377   7.769   8.369   1.682 -0.0836 -0.0676 -0.0366
26174W        W44378  11.175   9.469  14.145 -0.3413 -0.1893  0.1996
26175W        W44379   5.789  12.977   0.404 -0.1743 -0.0996 -0.0313
26176W        W44380   4.826   3.176  13.098  0.0739 -0.1268 -0.1563
26177W        W44381  15.574  16.830   4.083  0.0621 -0.0857  0.0255
26178W        W44382  10.147  14.762  13.383 -0.5753 -0.1372 -0.2270
26179W        W44383   3.250   2.817  12.381  0.1837  0.0670 -0.1559
26180W        W44384  16.283   5.080   4.225 -0.1374  0.1227  0.3606
26181W        W44385   6.195  12.333  12.646 -0.2408 -0.0082  0.1957
26182W        W44386   2.155  10.014   0.021  0.2753 -0.2758 -0.1336
26183W        W44387   9.467   7.370   0.796  0.0586 -0.2033 -0.0064
26184W        W44388  15.499  17.149   1.198  0.1775  0.0756 -0.0519
26185W        W44389  15.868  17.126   0.704  0.3435  0.1279  0.0863
26186W        W44390  11.362   3.656   4.290 -0.2001  0.1792  0.0863
26187W        W44391  16.285  11.553  14.300 -0.0692 -0.1284  0.1311
26188W        W44392   6.573   7.594   5.493 -0.1426 -0.0664  0.1897
26189W        W44393   4.339   7.255  13.526  0.1784 -0.1802  0.0302
26190W        W44394  12.743   2.514  14.323 -0.2699 -0.0033 -0.0592
26191W        W44395  16.393  18.072  15.017  0.1474  0.0061 -0.2560
26192W        W44396  12.254   3.364   2.818 -0.0744  0.1206 -0.1133
26193W        W44397   5.814  14.304   3.664  0.2921 -0.0495 -0.4338
26194W        W44398  16.427  14.697   3.096 -0.1084 -0.3414 -0.1541
26195W        W44399  17.118   5.093  12.330  0.0964  0.2018 -0.0431
26196W        W44400   9.606   6.530   1.189 -0.2023 -0.1458 -0.0390
26197W        W44401  12.282   6.527  12.374 -0.0144 -0.1961  0.0581
26198W        W44402  14.968   5.544  14.001 -0.3411 -0.0909 -0.1851
26199W        W44403  17.097  13.126  12.393 -0.0737  0.0698 -0.1992
26200W        W44404  16.821   3.440   3.102 -0.1643  0.0764 -0.2618
26201W        W44405  13.802   9.198  13.718 -0.1628  0.0358 -0.0021
26202W        W44406  10.770  16.214  14.691  0.0861  0.0343  0.2769
26203W        W44407   4.417   6.744   4.277 -0.0497 -0.1379  0.1949
26204W        W44408   5.991   1.884   4.944  0.2822  0.0557  0.1946
26205W        W44409   8.005   0.132  13.998 -0.0983 -0.1232  0.1500
26206W        W44410  13.290   5.353   0.763 -0.0677  0.1117  0.2815
26207W        W44411   3.151  13.319   1.213 -0.3896  0.0547  0.3760
26208W        W44412  12.451  15.185   2.997 -0.2312 -0.2968  0.1385
26209W        W44413  10.924  10.701  11.243  0.1777 -0.0808  0.0914
26210W        W44414   7.315   1.913   4.697 -0.1131  0.0078  0.1686
26211W        W44415   5.233   3.726  10.649  0.0717 -0.0061 -0.2276
26212W        W44416   1.763   0.407   2.383  0.1478  0.3718 -0.0269
26213W        W44417   6.853   0.083   0.981  0.1544  0.0535 -0.0732
26214W        W44418   3.050   9.076   3.538 -0.3125 -0.2869 -0.0957
26215W        W44419   1.575   9.053   1.532 -0.2336  0.0124  0.1454
26216W        W44420  13.438   8.195  12.807  0.1522  0.1435 -0.3282
26217W        W44421  12.094  12.042   6.132 -0.2163  0.1960 -0.1620
26218W        W44422  11.114   7.150   5.080 -0.0954  0.1516  0.0023
26219W        W44423   1.902   3.828   0.991 -0.2196 -0.0550 -0.2461
26220W        W44424  17.743  15.274  13.297  0.1078  0.1985 -0.0595
26221W        W44425  12.561   7.447  14.536 -0.1183  0.0322 -0.2414
26222W        W44426   3.193  14.503   4.228 -0.0800 -0.0597  0.0301
26223W        W44427   1.543  17.927  14.988  0.0761 -0.2144  0.2245
26224W        W44428  13.214   6.480   2.207  0.0127  0.4758  0.2455
26225W        W44429   7.606   8.818   3.131  0.0118 -0.0719 -0.1860
26226W        W44430   9.151  15.379   0.053  0.4290 -0.1458  0.0624
26227W        W44431   3.514  13.747  15.617  0.1921 -0.2760 -0.0906
26228W        W44432  16.187  16.229   3.000  0.0094  0.1865 -0.0327
26229W        W44433  12.870   3.349  15.717 -0.3347 -0.0102  0.0336
26230W        W44434  17.942   2.886   3.593 -0.0495  0.0796 -0.0702
26231W        W44435   7.075  10.190  13.105 -0.1350 -0.2257  0.1892
26232W        W44436   6.574  16.093  15.258 -0.0292 -0.2135  0.2099
26233W        W44437   9.075   4.909   0.979 -0.2116 -0.1610 -0.4597
26234W        W44438   1.922   3.514  15.412  0.1628 -0.0778 -0.2268
26235W        W44439  13.242  11.609  11.091 -0.2536  0.0925 -0.0945
26236W        W44440   3.473   6.641   3.582 -0.1596  0.0424 -0.1009
26237W        W44441   5.358   9.517  14.138  0.1465  0.0709 -0.0345
26238W        W44442  17.539   6.149   4.907  0.1966 -0.2020  0.1857
26239W        W44443  14.956  13.648   3.718 -0.0228 -0.1374  0.1819
26240W        W44444   6.546  10.089   4.933  0.0897 -0.0915  0.2122
26241W        W44445  15.408   8.481  10.922  0.4004  0.1545 -0.0168
26242W        W44446  17.418   1.002   5.095  0.1772  0.0582 -0.3129
26243W        W44447   7.097   7.601   3.560  0.1171  0.0490  0.0256
26244W        W44448  13.463   9.821  12.489 -0.2282 -0.2111 -0.1010
26245W        W44449  15.406   8.347   3.725  0.3275 -0.0788 -0.1916
26246W        W44450  17.433  12.968   1.772 -0.1218  0.3654 -0.2730
26247W        W44451  16.929   4.327   0.832 -0.0609  0.2072 -0.0526
26248W        W44452  10.075  13.904   2.498  0.0981  0.0717 -0.2392
26249W        W44453  17.029   8.635  12.893  0.0714 -0.2318  0.0515
26250W        W44454  15.911   8.238   3.584 -0.4958  0.1917  0.0022
26251W        W44455  15.865  12.956   2.349 -0.0177  0.0394 -0.1269
26252W        W44456   4.109  13.433   1.477  0.2953  0.0383  0.3183
26253W        W44457   0.392  16.293  12.973  0.2787 -0.2826 -0.3538
26254W        W44458  16.286  10.580  14.182  0.1326 -0.1970  0.0558
26255W        W44459   7.839   4.179   3.820 -0.0222 -0.3069  0.1260
26256W        W44460  15.499   5.928   0.996 -0.1203  0.2241 -0.2579
26257W        W44461  16.442   1.163   5.794 -0.1741  0.0550  0.0083
26258W        W44462   0.210   8.972   1.664 -0.0987 -0.4611  0.3154
26259W        W44463  15.111   1.413   3.031  0.1806  0.1256  0.0017
26260W        W44464   0.362   1.716  14.818 -0.2175  0.2087  0.0386
26261W        W44465   3.615   7.167   0.727  0.0379  0.2484  0.1449
26262W        W44466  14.750  10.749   0.597  0.4223 -0.0530  0.1741
26263W        W44467  17.950  12.539  13.503  0.1198  0.0350  0.0240
26264W        W44468   5.455   1.823   2.598  0.0093 -0.0045  0.0986
26265W        W44469  13.146   2.525  11.507 -0.0607  0.0462 -0.1136
26266W        W44470   6.837   2.056   2.967 -0.4604  0.0946  0.0587
26267W        W44471   7.853  12.394  14.681 -0.2772 -0.4223 -0.2730
26268W        W44472  17.298   6.693  11.719 -0.0244  0.3725  0.0626
26269W        W44473  14.840   9.807  11.427  0.1290 -0.1572 -0.0942
26270W        W44474   2.669  10.527  11.449  0.1964  0.0906 -0.1806
26271W        W44475  12.848   6.155  12.594  0.3098  0.0053  0.1477
26272W        W44476   9.484  16.009  14.902  0.1044 -0.1313  0.2049
26273W        W44477   5.994  17.670   1.210  0.1627 -0.0085  0.0057
26274W        W44478   3.041  12.204   4.146 -0.0867 -0.4432  0.2499
26275W        W44479   3.213  14.437   0.591  0.2554  0.0082 -0.0515
26276W        W44480   7.012  16.532  11.643 -0.1764 -0.2616 -0.0409
26277W        W44481   9.065   5.578   3.125 -0.2625 -0.0652  0.1968
26278W        W44482  12.334  11.918  12.508  0.0682 -0.1219 -0.3266
26279W        W44483  14.433  11.142  15.527  0.2240 -0.2712  0.0079
26280W        W44484   6.732   2.726  10.638 -0.0148  0.2768  0.1827
26281W        W44485   4.742   1.697  13.503  0.1235  0.1663 -0.0376
26282W        W44486   8.851  11.361   5.034  0.1938 -0.0647  0.0133
26283W        W44487   5.078   6.431  14.491  0.0012 -0.2025  0.0814
26284W        W44488   4.877  13.638   0.555  0.1832  0.0586 -0.2336
26285W        W44489   3.594   2.945  11.072  0.2274 -0.0037  0.0587
26286W        W44490   7.166  14.050   1.150 -0.0744  0.2634  0.1656
26287W        W44491   2.294  10.938  11.475  0.3107  0.1692 -0.2489
26288W        W44492  13.760   0.086  15.162 -0.0552 -0.1927  0.1257
26289W        W44493   9.620   6.428   4.881  0.1563  0.3121  0.0505
26290W        W44494  12.010  14.351   2.005 -0.3953  0.1176  0.0396
26291W        W44495  18.346  13.627  11.776  0.1468 -0.0589 -0.0458
26292W        W44496   9.384  15.083  15.393 -0.1915  0.2454 -0.1963
26293W        W44497   9.570   0.135  11.045  0.0482 -0.0518  0.1615
26294W        W44498   8.978  15.127  13.390 -0.1616 -0.2766 -0.4020
26295W        W44499  16.393   6.560   0.410 -0.1785  0.3178 -0.0807
26296W        W44500   0.928   7.051   4.270  0.1581 -0.0475 -0.0189
26297W        W44501  15.039   7.385   2.681 -0.1683  0.0785  0.0095
26298W        W44502  11.231  12.862   0.605  0.2145 -0.0453 -0.0649
26299W        W44503  17.672   8.208  14.802  0.1317 -0.0427  0.1475
26300W        W44504   3.726   4.235   4.693  0.1146  0.1953 -0.1433
26301W        W44505   9.227  10.606   3.403  0.1401 -0.0845 -0.1844
26302W        W44506  11.107  14.537   3.321 -0.1117 -0.0707 -0.1403
26303W        W44507  10.254   9.033   0.121 -0.2560 -0.0524  0.0142
26304W        W44508   5.779   4.840  12.476  0.0835 -0.0293 -0.0617
26305W        W44509  12.795  14.347  15.033 -0.1257  0.1675 -0.0754
26306W        W44510  17.992   2.829  13.175 -0.0359  0.0909  0.2365
26307W        W44511   0.282   9.286  12.219 -0.2644 -0.3461 -0.1251
26308W        W44512   7.242   7.908   2.760  0.1385  0.2851  0.1587
26309W        W44513   6.152  15.969  10.126  0.2725  0.3302 -0.0493
26310W        W44514  11.858   1.522  11.901  0.4256  0.1908 -0.1265
26311W        W44515   3.798  10.262   4.499  0.1527 -0.0906  0.1812
26312W        W44516  11.856   0.394   0.204 -0.0207 -0.3713 -0.0625
26313W        W44517  12.027  13.326  10.155 -0.0352  0.1999  0.0826
26314W        W44518  13.286  17.633   4.678 -0.3997  0.1046  0.2913
26315W        W44519  17.683   2.611   4.194 -0.1572 -0.1556  0.3215
26316W        W44520  17.401   1.214   1.211 -0.0546 -0.0306 -0.0227
26317W        W44521   2.581  12.800   3.060  0.4328  0.3254 -0.0005
26318W        W44522   2.504   4.659   4.316  0.1198  0.1761  0.0314
26319W        W44523   6.475   4.848   3.507  0.0445  0.2955  0.2621
26320W        W44524   3.423   8.648  14.535 -0.1708 -0.3213 -0.1114
26321W        W44525   9.582  10.186  13.370 -0.0618  0.0750  0.0807
26322W        W44526   0.816   3.678  10.372 -0.1504  0.0674  0.2323
26323W        W44527   0.728  15.138  13.240 -0.2143  0.1126  0.0262
26324W        W44528  10.429   0.824   5.885 -0.1306 -0.2210  0.0871
26325W        W44529   3.304   0.083   0.119 -0.2092  0.0418 -0.0513
26326W        W44530   1.539  10.190  12.916 -0.1066  0.0496  0.2271
26327W        W44531   6.385   0.359  11.128  0.0879  0.2198 -0.1121
26328W        W44532  11.058  14.121   2.702  0.1279 -0.0492  0.1150
26329W        W44533  11.628  14.171   0.183 -0.1085 -0.0710  0.1202
26330W        W44534  11.639  12.550   0.248  0.0723 -0.4376 -0.0356
26331W        W44535   5.131   1.113   0.809  0.1495 -0.1945  0.0405
26332W        W44536   6.558   0.824  14.409  0.1639  0.1322 -0.3399
26333W        W44537  12.218  10.789  13.237  0.2574 -0.2561  0.1456
26334W        W44538   8.935  11.764   4.128 -0.0214 -0.1061 -0.2653
26335W        W44539   7.672   0.470  10.969  0.0537  0.0948  0.2338
26336W        W44540   3.971   0.607  10.928 -0.1077 -0.3226 -0.0046
26337W        W44541  10.277   8.727   5.041  0.0757  0.0247 -0.0222
26338W        W44542  11.864  11.532   2.289 -0.2064  0.0708  0.2467
26339W        W44543  12.130  16.569  11.234  0.0691 -0.0147  0.1958
26340W        W44544  14.106   5.458  10.441  0.0355 -0.3297  0.2274
26341W        W44545   6.410   0.722  13.018  0.0350  0.1202 -0.1737
26342W        W44546   1.941  11.021  14.133  0.2461  0.1902  0.0927
26343W        W44547   1.697  16.652  13.464 -0.2571  0.1573 -0.1654
26344W        W44548   1.612   3.647  12.431 -0.2142  0.3621  0.0737
26345W        W44549   3.480   6.770   1.181  0.0725  0.1583 -0.1128
26346W        W44550   3.417   3.111  14.374  0.3499 -0.3506 -0.2436
26347W        W44551   8.989   1.947  13.720 -0.0842  0.2246  0.1538
26348W        W44552  14.582  12.253   3.362  0.0109  0.0578  0.0283
26349W        W44553   6.661  10.278   3.979  0.0793 -0.0622  0.0135
26350W        W44554  12.578  15.149  13.885 -0.1847 -0.3336 -0.1377
26351W        W44555   3.317  17.237   3.266  0.0616 -0.0171  0.0846
26352W        W44556   3.891   6.440   3.330 -0.1461 -0.0319 -0.3193
26353W        W44557  12.974  12.968   4.449  0.0363 -0.0267 -0.3064
26354W        W44558   3.313  15.136  13.692  0.2214  0.2021  0.2279
26355W        W44559   5.096   5.055  13.331 -0.0151  0.0290  0.3338
26356W        W44560  15.263   7.437   2.222  0.0201 -0.1521  0.0699
26357W        W44561  12.068  14.716  11.785 -0.1098  0.2191 -0.1135
26358W        W44562   6.126   7.699   1.955  0.0596  0.0779  0.0664
26359W        W44563  16.876   5.311   2.503  0.0849  0.2574  0.0373
26360W        W44564   9.877   5.699  11.345  0.2382  0.0060 -0.0581
26361W        W44565   0.784   0.227   1.015  0.1866 -0.2138  0.1732
26362W        W44566  14.529   2.543  11.394  0.1119  0.0365 -0.2038
26363W        W44567  17.748   7.152  13.652 -0.0692  0.0581  0.2008
26364W        W44568   3.137  10.301  15.220  0.1258  0.1435  0.2186
26365W        W44569  13.794  17.180  14.110 -0.2339  0.1273  0.1933
26366W        W44570   6.484   3.155   3.667 -0.2793  0.4135  0.3139
26367W        W44571   4.685   3.983  13.175 -0.0690  0.0141 -0.2409
26368W        W44572   7.857  13.395   2.172  0.1437  0.1201 -0.2393
26369W        W44573  15.811  15.460   4.366  0.1555 -0.0411 -0.1823
26370W        W44574  16.860  14.269   3.979  0.2433  0.0205 -0.0853
26371W        W44575   2.252  11.278  15.260  0.2066  0.2400  0.2808
26372W        W44576  16.859  10.028  14.685  0.1133  0.1399  0.1409
26373W        W44577   2.687  15.771   4.047 -0.2963 -0.0264 -0.0481
26374W        W44578  14.502  15.231  15.595 -0.2398 -0.2889 -0.0760
26375W        W44579   8.434  10.168  13.467  0.0389  0.0742  0.2099
26376W        W44580   1.686  17.132  13.436 -0.0693 -0.0114 -0.2017
26377W        W44581   6.439   2.898  14.417  0.0926  0.1902 -0.3286
26378W        W44582   4.565  14.512   0.764 -0.1284 -0.1774  0.2408
26379W        W44583  10.048   6.664  15.473  0.2418  0.0277  0.2373
26380W        W44584   2.555  18.313  12.280 -0.0455 -0.2718 -0.1563
26381W        W44585  15.500   4.663   0.172 -0.2270 -0.1262 -0.2270
26382W        W44586   1.450  12.534   4.755  0.4684 -0.1882  0.1172
26383W        W44587   2.052   3.550   1.937 -0.1970 -0.0328 -0.1110
26384W        W44588   5.782   0.210   3.196  0.0588 -0.0411  0.0008
26385W        W44589  17.107   0.315  14.788 -0.1325 -0.2442  0.0167
26386W        W44590   5.153   0.223  14.084 -0.3706  0.1117 -0.1875
26387W        W44591  13.088  15.911   3.443 -0.0906  0.1400  0.0159
26388W        W44592   2.298  16.483   3.457  0.1168 -0.2027 -0.0921
26389W        W44593  12.040   6.757  14.422  0.0666 -0.1330 -0.0146
26390W        W44594   7.037  16.956  13.576  0.0269  0.0710  0.1316
26391W        W44595   0.382  12.319   1.701 -0.3559  0.0117  0.1099
26392W        W44596   7.042  17.209   1.978 -0.1466  0.0956  0.1993
26393W        W44597   7.627   9.170  12.868  0.1679  0.0688  0.1003
26394W        W44598  12.453  15.194  15.249 -0.1612  0.0457 -0.2113
26395W        W44599  18.018  15.912  14.931  0.1340 -0.1190 -0.0594
26396W        W44600  14.039   9.946   4.329  0.1235 -0.3688  0.1350
26397W        W44601   7.731  10.750  13.003  0.1799  0.1379 -0.1378
26398W        W44602   9.298   3.899   3.457 -0.1760 -0.2708  0.2349
26399W        W44603  14.053  12.683   4.126 -0.2078 -0.0587 -0.0418
26400W        W44604   0.392   2.749  11.444  0.0174 -0.2461 -0.0080
26401W        W44605   4.827  12.089  15.356 -0.3234 -0.0124  0.1422
26402W        W44606   0.834   8.277   2.934 -0.1555  0.0754  0.0845
26403W        W44607  12.887   6.675  12.383 -0.2929 -0.0072 -0.1453
26404W        W44608   5.322   0.738  13.901 -0.2716 -0.4282  0.1015
26405W        W44609   2.187   5.697  11.758 -0.0230 -0.1006 -0.1553
26406W        W44610   6.799  10.110   1.275 -0.1206 -0.1189 -0.0987
26407W        W44611  14.771  10.242  12.322 -0.2171 -0.2724 -0.0877
26408W        W44612   9.840  13.356   4.348 -0.0646 -0.0906  0.0764
26409W        W44613   0.851   4.798  10.813 -0.1012 -0.0108  0.0842
26410W        W44614   4.690   7.147  12.564  0.0452 -0.2292 -0.0993
26411W        W44615  15.532   4.428   0.685 -0.3569  0.1452  0.1090
26412W        W44616  14.372   5.727   4.101  0.0270 -0.3284 -0.1698
26413W        W44617  17.806   9.126  12.479  0.1258  0.0925  0.0755
26414W        W44618  17.499   3.413   4.663 -0.1695 -0.1917 -0.0394
26415W        W44619   7.288  14.127  10.869 -0.3925  0.4253 -0.1857
26416W        W44620  14.435  10.756   0.188  0.0313 -0.1159  0.2400
26417W        W44621  14.131   5.759   0.559  0.0477 -0.0738 -0.2108
26418W        W44622  11.686   4.022   2.509  0.2944  0.0543  0.0623
26419W        W44623  13.766   6.340   0.600 -0.0933  0.2342  0.3553
26420W        W44624   8.310  10.733  11.341  0.0154  0.3044 -0.2486
26421W        W44625   4.225   8.475   0.061  0.1635 -0.3837 -0.1705
26422W        W44626  16.919   4.056  11.401  0.0500  0.3030 -0.0400
26423W        W44627   6.282  12.605  13.090 -0.1701 -0.0768  0.3397
26424W        W44628   5.748  12.075   3.078  0.1500  0.1717  0.0077
26425W        W44629   9.715   9.528   3.862  0.0408  0.1474  0.1704
26426W        W44630   7.380  13.099  11.819 -0.0025 -0.2348  0.0037
26427W        W44631  17.017  10.402   4.461 -0.0672  0.0046 -0.0712
26428W        W44632  10.150   9.839   4.725  0.1802 -0.1277 -0.2550
26429W        W44633  12.906   0.464   1.813 -0.1019 -0.2259 -0.0601
26430W        W44634   9.449  15.383  13.711 -0.0400 -0.0492  0.1851
26431W        W44635   2.412  13.120  14.713 -0.0699  0.2888  0.1444
26432W        W44636  17.964  13.325  11.360 -0.2886 -0.0064  0.1628
26433W        W44637  10.355   3.589   0.500  0.2070  0.0057 -0.2913
26434W        W44638   9.501   3.415   3.366 -0.1992  0.1728  0.0949
26435W        W44639  13.517  17.570  14.983  0.0317  0.1062  0.0806
26436W        W44640  13.742   4.459  14.935 -0.0890  0.2423 -0.4945
26437W        W44641  11.193  17.730   2.887  0.2887  0.0954  0.0887
26438W        W44642  10.629   7.456  11.349  0.2707 -0.0327 -0.0693
26439W        W44643   0.694   2.845   4.018 -0.0120  0.0372  0.4169
26440W        W44644  15.541   6.553   2.183 -0.0075  0.1971 -0.0566
26441W        W44645  14.904   5.393  13.362 -0.3297  0.2311 -0.0801
26442W        W44646   8.827   0.059  13.745 -0.3695  0.3099  0.1269
26443W        W44647   2.746   5.360   4.312  0.0724 -0.1706  0.1569
26444W        W44648  12.472  10.234  14.535  0.1025 -0.1256  0.0006
26445W        W44649  14.796  16.978  11.278 -0.3140 -0.0433 -0.1147
26446W        W44650   4.805   2.864  10.891 -0.3093 -0.2334 -0.0024
26447W        W44651  15.228   6.693  14.213  0.2813  0.0224 -0.1190
26448W        W44652   6.607   7.076   2.347 -0.0432  0.3798  0.3063
26449W        W44653  15.346   1.463  13.929 -0.1384  0.1680 -0.1274
26450W        W44654  14.692   3.932   0.631  0.1947 -0.1397  0.1985
26451W        W44655   3.362  17.014   2.073 -0.1124  0.0294 -0.0126
26452W        W44656   1.908  16.780   3.552 -0.1646 -0.1883  0.0686
26453W        W44657   2.072  15.755   1.863  0.1580 -0.2703 -0.1847
26454W        W44658   5.419  14.261  15.204  0.0401  0.1588 -0.2212
26455W        W44659   2.483  16.103   5.411 -0.1265 -0.1136  0.0618
26456W        W44660  15.546   2.609   4.304  0.4081  0.1169  0.2343
26457W        W44661   4.168  14.569  11.318 -0.3287 -0.0537 -0.2625
26458W        W44662   9.465  18.046   2.238 -0.0311 -0.1093  0.1443
26459W        W44663   1.233   3.082   2.667 -0.0478 -0.1910 -0.0193
26460W        W44664  17.227  11.472  11.576 -0.2380  0.2132 -0.1613
26461W        W44665   8.734   0.873   0.248  0.0059 -0.0267  0.0336
26462W        W44666  11.316   2.883   3.170  0.0133  0.0098  0.0203
26463W        W44667   9.346   8.127   1.954  0.0666 -0.5431 -0.1631
26464W        W44668   9.366  18.094  11.679  0.1743 -0.1628 -0.2042
26465W        W44669   4.676  10.183  11.360  0.0788  0.0266 -0.1202
26466W        W44670  14.707   2.013  12.331 -0.1374 -0.0687  0.2235
26467W        W44671  16.584  11.421   0.089 -0.0318 -0.2374  0.0842
26468W        W44672  16.494  10.755  15.071  0.0216 -0.1838 -0.2603
26469W        W44673  15.075  10.301  11.180 -0.0481 -0.0257  0.3138
26470W        W44674   4.419  17.917   2.521 -0.0123  0.0048 -0.0279
26471W        W44675   7.524  15.528   2.063 -0.3574 -0.2158 -0.0600
26472W        W44676  12.887   0.454  14.459 -0.3367  0.0363 -0.0550
26473W        W44677   5.390   5.824  11.128 -0.0240 -0.0326  0.1456
26474W        W44678   1.191  15.132   1.176 -0.2267  0.0745 -0.0980
26475W        W44679  16.578   3.224  10.596  0.3184  0.0226  0.2137
26476W        W44680   8.110   8.101   5.032 -0.1785 -0.2152  0.0424
26477W        W44681   8.281  13.366  13.176  0.0773  0.0609 -0.0664
26478W        W44682   5.330  14.468  11.785  0.2362  0.0456  0.0723
26479W        W44683  14.695  17.820   2.585 -0.1567 -0.0437 -0.0896
26480W        W44684   6.435   8.719   0.315 -0.1072  0.2514 -0.0657
26481W        W44685   5.017  12.661   3.941 -0.2098  0.1223 -0.0741
26482W        W44686  11.121   5.480  13.045  0.0430 -0.0520  0.0950
26483W        W44687  12.174   8.035  15.118 -0.0414 -0.1320  0.0760
26484W        W44688  13.552  13.181   4.607  0.2233 -0.0420  0.0686
26485W        W44689   7.983  13.798   5.389  0.0929 -0.0887 -0.3823
26486W        W44690   9.954   8.665  14.660 -0.2936 -0.0285  0.0275
26487W        W44691  12.271   5.279   4.078 -0.1141 -0.3194 -0.1189
26488W        W44692   1.604  10.268  11.853  0.0538 -0.5727  0.4732
26489W        W44693   6.922   0.243   4.787 -0.1864  0.0918 -0.1261
26490W        W44694  16.172   2.713  14.248 -0.0527 -0.1679 -0.2432
26491W        W44695  13.603   0.468  10.177 -0.1439 -0.0802 -0.4116
26492W        W44696  17.058  12.271   2.301 -0.2337  0.1520  0.1378
26493W        W44697   9.933  16.738   5.075  0.0566 -0.0181 -0.1145
26494W        W44698   4.766  15.861   1.177 -0.2269 -0.0746  0.2301
26495W        W44699  11.646   4.081  11.417  0.1964 -0.2237 -0.2529
26496W        W44700   5.352  12.469   3.139 -0.1875  0.1533  0.0951
26497W        W44701   0.207  18.342   4.449  0.1704  0.0578  0.1837
26498W        W44702   5.721   8.416  13.472  0.0723 -0.0912  0.0724
26499W        W44703  10.304  11.991   0.535  0.1728 -0.2619  0.2942
26500W        W44704   6.034   7.106  13.856  0.1063 -0.0857  0.0115
26501W        W44705   2.966   6.713   4.595 -0.1633 -0.0216  0.1822
26502W        W44706  11.157   2.329  13.379 -0.1978 -0.0209  0.0277
26503W        W44707  15.200   9.506  14.030  0.1689  0.0102  0.0115
26504W        W44708  15.036   0.877   3.108 -0.2340 -0.0783 -0.2570
26505W        W44709   4.133  11.041   1.161  0.1632  0.0339  0.1353
26506W        W44710   4.337   9.851   1.827  0.2337  0.1549 -0.1229
26507W        W44711  18.264  11.679   2.123  0.2579  0.2151  0.3443
26508W        W44712  12.739  11.950   4.203  0.1030 -0.1315  0.0852
26509W        W44713   9.573  11.210   1.937  0.1357  0.2448 -0.0195
26510W        W44714  18.082  13.710   2.962  0.1180  0.0208 -0.1953
26511W        W44715   7.906   4.708   0.276  0.0804 -0.3148  0.0243
26512W        W44716  15.149  12.585  15.329 -0.1566 -0.0438  0.1125
26513W        W44717   3.170   2.397   1.134 -0.2419  0.0227 -0.1686
26514W        W44718   2.451  16.474  12.384 -0.0808  0.0075  0.3357
26515W        W44719  10.692  14.919  11.867  0.3634 -0.0155 -0.1536
26516W        W44720   7.795   5.751   1.705 -0.0550 -0.1500 -0.3585
26517W        W44721   2.134   6.643  13.912  0.1251 -0.3355  0.1944
26518W        W44722  15.148   1.689   0.051 -0.1273  0.2203 -0.0972
26519W        W44723  10.313  18.165   3.064  0.1492  0.3056 -0.1230
26520W        W44724   2.748   3.618  13.843 -0.1792  0.2788  0.1475
26521W        W44725   4.881  15.622  10.411  0.0797  0.1200  0.2033
26522W        W44726  10.759  17.342  10.775 -0.1245 -0.1700 -0.0324
26523W        W44727   5.438   6.635   4.296  0.0675 -0.0780  0.1646
26524W        W44728  10.402   0.493  12.438 -0.1228  0.2766 -0.0316
26525W        W44729   0.998   5.916   0.845 -0.0268 -0.1362 -0.1762
26526W        W44730  16.580   5.020   5.003  0.2757  0.3342  0.0810
26527W        W44731   2.707  17.098   1.167  0.0353  0.1224 -0.1013
26528W        W44732  12.695   0.662   4.649  0.0013 -0.2307  0.0427
26529W        W44733   4.988  11.377  14.655  0.1028  0.2312  0.2412
26530W        W44734  17.559   4.667  11.937 -0.0189 -0.2148 -0.1606
26531W        W44735   4.363  12.456   1.435 -0.1115 -0.1355  0.3798
26532W        W44736  18.055   0.856   0.575 -0.1271  0.0446 -0.1542
26533W        W44737  12.643  15.271  12.292  0.0207 -0.1579 -0.3437
26534W        W44738   5.506  12.634   3.759  0.3305 -0.0459  0.0024
26535W        W44739  11.313  12.674  13.688 -0.2205  0.5003  0.2100
26536W        W44740   7.837   3.648   3.729 -0.0857  0.1148  0.0138
26537W        W44741  13.638  10.056   4.669 -0.0366  0.1465  0.3629
26538W        W44742   2.807  16.225   2.163 -0.1641  0.0983 -0.0702
26539W        W44743   7.813   4.545   5.241 -0.2563 -0.0920  0.1795
26540W        W44744   5.254   5.269   2.853 -0.0009 -0.2978  0.1225
26541W        W44745  18.353   7.112  14.727 -0.2666  0.1304 -0.1646
26542W        W44746  15.364   7.682   1.749 -0.1259 -0.0115  0.2363
26543W        W44747   7.011   9.579   1.264  0.1661  0.0689 -0.0088
26544W        W44748   8.220   8.538  13.592  0.0212 -0.0919 -0.0763
26545W        W44749  16.987  18.262   0.002  0.3355  0.0297 -0.1569
26546W        W44750   4.561  11.196  15.293 -0.0391 -0.2065  0.0563
26547W        W44751   6.110   4.412  11.037  0.3190 -0.3099  0.3297
26548W        W44752   0.654  17.611   0.576 -0.3654 -0.2131 -0.2634
26549W        W44753  16.016   4.541  15.141  0.0787  0.0246 -0.0437
26550W        W44754  10.743   6.213   0.906 -0.0525 -0.3325  0.1899
26551W        W44755  10.559  11.184   2.780  0.0874 -0.0015  0.0340
26552W        W44756   8.224  18.134  11.060  0.0893 -0.0389  0.4084
26553W        W44757  11.789  11.801  12.345 -0.1932  0.0868 -0.1272
26554W        W44758  14.185  13.311   2.998 -0.1641 -0.2129 -0.1848
26555W        W44759   9.630   7.400   1.258 -0.0821  0.1242 -0.4948
26556W        W44760  11.666   6.986   2.793  0.1386  0.0824  0.1471
26557W        W44761   4.240  14.727   2.834 -0.1661  0.3421  0.0039
26558W        W44762  18.374  14.348   0.629  0.3251 -0.0429 -0.1054
26559W        W44763  10.800   2.350   0.320  0.0793 -0.1843 -0.0457
26560W        W44764   4.144   0.308   3.455 -0.0191  0.1442  0.2858
26561W        W44765  16.002  15.664  11.854  0.4033 -0.1486  0.1060
26562W        W44766  11.720  17.806   3.124 -0.2911  0.3772  0.0726
26563W        W44767   2.317  17.539  14.484 -0.1171 -0.0412 -0.1822
26564W        W44768  10.335   3.409  14.739 -0.0223 -0.3476 -0.0152
26565W        W44769   6.519  10.189   4.431  0.1352 -0.0821 -0.1413
26566W        W44770   3.057   5.888   3.444  0.0505  0.2995 -0.0196
26567W        W44771  12.678  11.042   4.346 -0.1281 -0.0389  0.3200
26568W        W44772   2.088   8.676  13.819 -0.0078 -0.1151  0.0251
26569W        W44773   0.051   6.102  11.091  0.1387  0.1480 -0.2830
26570W        W44774   5.988   4.058  14.327  0.1059  0.1640 -0.1373
26571W        W44775   7.700  14.803   3.200  0.1669  0.1308 -0.0400
26572W        W44776  14.308  10.726  14.495 -0.0627  0.1272 -0.0444
26573W        W44777   3.994   5.000   5.021 -0.0157 -0.0281  0.0894
26574W        W44778  14.037  18.113   3.439  0.0832  0.1044 -0.1691
26575W        W44779  14.241   3.084  11.975  0.0573 -0.1447 -0.0279
26576W        W44780   2.110   2.496  13.800 -0.0252  0.0978  0.0633
26577W        W44781  12.372   2.712  15.637  0.2225 -0.2269 -0.0167
26578W        W44782  16.975   0.338   9.975  0.0589 -0.0294  0.1082
26579W        W44783   0.194  17.230  15.236  0.2065 -0.1002 -0.0694
26580W        W44784   8.912  10.649  15.073  0.1396  0.3069 -0.1640
26581W        W44785   6.031   3.306   0.213  0.2408  0.2294 -0.0157
26582W        W44786   9.067   1.375  14.749 -0.2811  0.0237 -0.0847
26583W        W44787   6.506   3.538  14.941 -0.0894 -0.1866 -0.2234
26584W        W44788  12.881   9.728  12.550 -0.0010 -0.1052  0.0587
26585W        W44789  12.569   8.550   2.494  0.1124 -0.0120 -0.1454
26586W        W44790  13.272   9.685   1.058  0.0131  0.4117 -0.1703
26587W        W44791  10.649   1.139  15.166 -0.2785  0.0872  0.2296
26588W        W44792  10.017   8.154  11.050 -0.3093  0.0498  0.1314
26589W        W44793   2.047   2.545  11.773  0.0030 -0.0518 -0.0482
26590W        W44794   2.472  14.309   3.221 -0.0686  0.0585  0.2508
26591W        W44795  14.411   9.249  11.246  0.0128  0.0750 -0.2707
26592W        W44796  16.891   4.691  14.119  0.0492 -0.3193 -0.0269
26593W        W44797   7.647   3.798  12.161  0.1240 -0.2503  0.0703
26594W        W44798  16.694   9.371  12.908  0.1327 -0.2231 -0.0704
26595W        W44799  16.488   0.015   0.048 -0.1867 -0.2112  0.1610
26596W        W44800   8.306   0.546  14.082 -0.2379 -0.1946 -0.0396
26597W        W44801   4.518  17.277  15.268  0.4335  0.1032  0.2519
26598W        W44802   5.843   7.377   3.861 -0.0201 -0.1046  0.0627
26599W        W44803   6.354   2.343   4.367 -0.0644  0.1622  0.2423
26600W        W44804   6.476  10.039  12.836  0.1091  0.2114 -0.0205
26601W        W44805  17.368  10.497  12.772 -0.0623  0.1887 -0.0679
26602W        W44806   9.443  16.510   3.691  0.2033  0.2172 -0.1063
26603W        W44807  12.759  16.979  12.729 -0.0386 -0.2664  0.1252
26604W        W44808  13.188   7.117  12.045 -0.0044  0.1742  0.0207
26605W        W44809   3.124   5.475  14.959  0.0687  0.0688 -0.0998
26606W        W44810   1.966   9.032   1.898  0.0107  0.0783 -0.0155
26607W        W44811  15.810  11.549  11.046 -0.1521 -0.0167  0.0945
26608W        W44812   8.723  13.109  14.067 -0.0055  0.0659 -0.0457
26609W        W44813  12.035  18.309   0.369 -0.1039  0.0389 -0.1263
26610W        W44814  15.940  14.847  11.073  0.0393 -0.2583  0.0401
26611W        W44815   2.944   6.713  10.134 -0.2773 -0.2075  0.0164
26612W        W44816  17.970  12.520  15.541  0.1506 -0.0104 -0.0239
26613W        W44817  14.875   7.573   1.934  0.0101  0.0748 -0.1805
26614W        W44818  14.093   1.013  12.448 -0.2015 -0.3390  0.3304
26615W        W44819  17.581   6.039   2.655  0.3182 -0.0885  0.2409
26616W        W44820  12.704   1.983  12.766  0.4153 -0.0675  0.0640
26617W        W44821  17.775  15.323   2.587 -0.0249 -0.0607 -0.2141
26618W        W44822   1.420  16.023  14.044 -0.1150  0.1023 -0.3822
26619W        W44823   9.938   6.725   3.508  0.1290 -0.1842  0.3182
26620W        W44824   2.839   1.495   0.683 -0.6247  0.1518  0.1764
26621W        W44825   7.736   9.724   2.039  0.4309 -0.1027  0.1950
26622W        W44826   7.133  16.921   0.221 -0.0459 -0.0123  0.1121
26623W        W44827   6.325   2.026   3.060  0.0537 -0.2351 -0.0773
26624W        W44828   0.905   9.108  14.771 -0.0132  0.2175 -0.2654
26625W        W44829  14.299   3.860   2.760  0.0335 -0.1726  0.3217
26626W        W44830   3.303   8.009  14.115  0.1325  0.1992  0.0899
26627W        W44831  13.929   7.083   2.498 -0.0006  0.2169  0.0631
26628W        W44832   1.909   4.437  14.506  0.1540 -0.1108 -0.2106
26629W        W44833  15.313   9.950  14.091  0.2727  0.2039  0.0451
26630W        W44834  11.288   6.247   5.304 -0.0111  0.1352  0.0895
26631W        W44835   5.528   0.751   3.869 -0.1525 -0.0438  0.1302
26632W        W44836  13.580  15.872   0.938  0.1607 -0.2291 -0.1434
26633W        W44837  18.173  10.629   2.886  0.0395  0.1285 -0.0116
26634W        W44838  10.889  15.669   1.362  0.3323  0.0911  0.0136
26635W        W44839   2.778   1.636  13.708 -0.0914 -0.0543 -0.0538
26636W        W44840   4.746  14.059   3.267 -0.1211 -0.1501  0.1801
26637W        W44841  10.844  16.156  11.357  0.1357  0.0336  0.4890
26638W        W44842  10.101  10.575   3.848 -0.1952 -0.1803 -0.3584
26639W        W44843   7.763  10.756  12.158  0.0743  0.2532 -0.0959
26640W        W44844   9.336  18.307  12.399 -0.2170 -0.0947  0.0647
26641W        W44845  16.162   8.722  14.821  0.1713 -0.3283  0.0821
26642W        W44846  17.131   0.103   1.333  0.0626  0.1210  0.1567
26643W        W44847   5.334  14.997   2.759  0.0529 -0.1113  0.0408
26644W        W44848  14.620  10.990  11.646  0.2272  0.2533 -0.1490
26645W        W44849  15.000   3.851   0.269  0.3339  0.0760 -0.0193
26646W        W44850   2.045  13.613  12.863  0.0374  0.3342  0.2009
26647W        W44851  10.197  15.618   0.207  0.1287  0.1736  0.1044
26648W        W44852  14.008  10.472   0.035  0.0859 -0.1971  0.0337
26649W        W44853  14.065   2.684  12.240  0.1023 -0.2725  0.1900
26650W        W44854   3.567   5.861   4.794  0.3056  0.0549 -0.0842
26651W        W44855   7.106  13.503  11.736  0.2406 -0.0324  0.1470
26652W        W44856   9.135   1.313   2.780  0.1662  0.1257  0.0151
26653W        W44857  16.135   5.323   5.072 -0.4428  0.3246  0.2285
26654W        W44858   3.507   7.869  15.673 -0.2590 -0.0620  0.2935
26655W        W44859   4.387  15.726  14.745  0.1234 -0.2246 -0.1071
26656W        W44860  13.813   3.417   4.807  0.0519  0.0907  0.1323
26657W        W44861  12.919  17.162  11.894  0.3016  0.2805  0.0355
26658W        W44862   2.685   6.675   3.760 -0.1459  0.2494  0.0792
26659W        W44863  14.475   3.368  12.454  0.1489  0.0372  0.1507
26660W        W44864   0.548   9.421   2.941  0.1888 -0.1395 -0.0407
26661W        W44865  16.264  15.960  14.530  0.1808 -0.3121  0.1061
26662W        W44866   1.621  14.524  15.727  0.0826 -0.0466 -0.3140
26663W        W44867   0.970  12.632   2.443  0.0251 -0.1230 -0.2849
26664W        W44868  13.025  11.795  10.015  0.2567 -0.0601  0.1461
26665W        W44869  12.445  13.757   4.606 -0.0600  0.1826 -0.1299
26666W        W44870  13.397   7.736  11.522  0.1891  0.3043 -0.1738
26667W        W44871   9.258  17.125   0.573 -0.1610 -0.0461 -0.2094
26668W        W44872   3.190   9.311   1.421 -0.2070  0.4628 -0.2056
26669W        W44873   9.568   9.138  11.535 -0.2691 -0.0076 -0.2960
26670W        W44874   3.759   2.807  12.531  0.0630 -0.0177 -0.1584
26671W        W44875   8.667  15.162   0.220  0.2170  0.0056 -0.1913
26672W        W44876   4.278  11.260  12.921  0.3431  0.0166 -0.1031
26673W        W44877   4.313   1.115   1.957  0.1127 -0.0381  0.0235
26674W        W44878   9.349   8.505  13.409  0.2753 -0.1122  0.0835
26675W        W44879  13.791  17.563  10.834 -0.0386  0.2888  0.1725
26676W        W44880  10.582   3.743   1.246  0.0423  0.0038 -0.0089
26677W        W44881  16.569  11.493   2.591 -0.0435 -0.1611  0.2100
26678W        W44882  14.729   5.138  11.915 -0.0011  0.0792 -0.0663
26679W        W44883  12.842  17.954   0.673 -0.1268 -0.1024  0.3566
26680W        W44884   9.691   5.426  11.698 -0.1989 -0.0353 -0.0504
26681W        W44885  15.034   2.341   3.059  0.1385  0.1821  0.0222
26682W        W44886   0.690  15.507  14.527 -0.0474 -0.1818 -0.0016
26683W        W44887   8.444  13.170  12.739  0.2019  0.1418 -0.3010
26684W        W44888   0.622  10.449   1.136  0.1586 -0.2102  0.3379
26685W        W44889   8.286   0.055  12.375  0.1911 -0.2311 -0.0434
26686W        W44890  18.240   2.054  14.133  0.3080  0.2096  0.0883
26687W        W44891  11.207  12.224   3.468  0.0584  0.1199  0.1355
26688W        W44892   0.554  11.246  11.505  0.0955  0.0303 -0.0347
26689W        W44893   8.312  12.313   2.783 -0.4003 -0.3340  0.0098
26690W        W44894   6.750   4.488   3.225 -0.1435 -0.2030 -0.3020
26691W        W44895   8.434   1.456  14.930 -0.1736  0.0821  0.2653
26692W        W44896  17.098  11.133  12.143 -0.0509  0.3061 -0.0299
26693W        W44897   3.534  15.352  14.955  0.1838 -0.1103 -0.1562
26694W        W44898   2.001   1.398  15.727 -0.0227 -0.1359  0.1996
26695W        W44899   3.536   5.441  12.334  0.0409 -0.0267  0.0256
26696W        W44900  15.793   1.580   0.141 -0.2933 -0.1446 -0.2090
26697W        W44901  10.562  13.241   2.053  0.1763  0.1725 -0.0107
26698W        W44902   6.393   7.067   0.375 -0.0455  0.0601  0.1317
26699W        W44903   6.731   5.426   2.754  0.0836 -0.2813 -0.0302
26700W        W44904   7.511  13.508   2.644 -0.0214  0.0584 -0.0499
26701W        W44905   9.898   8.380   3.621  0.0488  0.2366  0.0871
26702W        W44906  10.408   8.502   0.885  0.0654  0.0436  0.1666
26703W        W44907   6.835   3.066   0.781 -0.2004 -0.1745  0.1954
26704W        W44908  17.087  14.845   4.639  0.0263  0.0548  0.0356
26705W        W44909  11.429  18.340  11.906  0.2004  0.2577  0.1316
26706W        W44910   5.442   6.232  11.399 -0.0658 -0.2262  0.0296
26707W        W44911   2.260   8.073   0.062 -0.1585  0.1028 -0.1132
26708W        W44912   3.663   8.889   0.155  0.4245  0.1698  0.1218
26709W        W44913   2.530   3.051   1.222 -0.2214 -0.1400 -0.2233
26710W        W44914  12.451   2.786   3.534  0.1365  0.0359 -0.0127
26711W        W44915  18.324   2.277  13.061  0.1332 -0.0927 -0.0256
26712W        W44916   8.178  15.169  11.489  0.1882  0.0001 -0.0429
26713W        W44917   9.072  15.780   2.756 -0.1113 -0.2488  0.0421
26714W        W44918   1.821  11.121  15.626  0.1777 -0.1109  0.1074
26715W        W44919   7.055   4.719  11.275  0.2682  0.3826  0.2294
26716W        W44920   1.617  13.332   2.202  0.3253 -0.2822 -0.2694
26717W        W44921  12.027   3.763   2.234  0.0851  0.1704 -0.0263
26718W        W44922  17.128  11.158   1.944 -0.3652 -0.0030 -0.1769
26719W        W44923   2.527   4.043   4.369  0.3239  0.0445 -0.1045
26720W        W44924   5.911   2.842  15.714 -0.4495  0.0360  0.2797
26721W        W44925   7.090   0.727  11.853 -0.1362  0.2402  0.0721
26722W        W44926   9.169  18.043   0.110  0.1280  0.0051 -0.0433
26723W        W44927  10.651   4.972  12.312  0.1300  0.0909  0.0885
26724W        W44928   0.733   5.326  12.927  0.0828 -0.0237 -0.2344
26725W        W44929   7.947   9.111   2.765 -0.1726 -0.3116  0.1774
26726W        W44930   5.490  16.960   1.079  0.5042 -0.2383 -0.0643
26727W        W44931   4.783   3.562  14.676  0.1259  0.1445 -0.2058
26728W        W44932   4.505  10.760  12.898 -0.0783  0.0883  0.1061
26729W        W44933  14.002  13.813  13.624 -0.1787  0.1667 -0.0100
26730W        W44934   4.356  13.615   0.311  0.1586  0.1291 -0.0346
26731W        W44935   7.099  15.603  12.230  0.0027 -0.1459 -0.0364
26732W        W44936  17.088  13.274  11.866  0.0648  0.1020  0.1303
26733W        W44937   8.841  11.582  15.048  0.0677 -0.1381  0.1317
26734W        W44938   5.011   1.151  11.853 -0.0558  0.3346  0.1579
26735W        W44939  16.651   8.060  14.404  0.1386 -0.1579  0.0748
26736W        W44940  10.930  13.171   2.896  0.0202 -0.1428  0.0327
26737W        W44941   4.713  14.227  12.978  0.1292  0.0801 -0.1306
26738W        W44942  13.659  16.832   3.660  0.0711  0.0697 -0.1750
26739W        W44943   3.375  18.168   4.700 -0.2269  0.0335 -0.0217
26740W        W44944  17.302  17.150   0.747 -0.0105  0.3612 -0.0146
26741W        W44945  14.619  14.163  10.432  0.0217  0.1651 -0.0059
26742W        W44946  12.124   8.820  13.090 -0.1340 -0.1361  0.0921
26743W        W44947   6.189  11.042  12.408 -0.1129 -0.2297  0.0422
26744W        W44948  15.257  14.317   1.820  0.1834  0.1008 -0.1467
26745W        W44949   8.825  12.833   5.247  0.2979 -0.2172  0.0852
26746W        W44950   5.208   9.073   4.730  0.1192  0.1266 -0.1276
26747W        W44951   7.861   3.157   2.635 -0.1817 -0.1300  0.2214
26748W        W44952   6.006  11.048   5.704 -0.1880 -0.1693  0.1501
26749W        W44953  11.659   9.834   0.254 -0.2162  0.3047  0.3973
26750W        W44954  14.673   5.622  12.104 -0.2189 -0.2492 -0.0009
26751W        W44955   6.467  13.045  13.580  0.1918  0.0957 -0.0110
26752W        W44956   5.966   0.972   0.657  0.2605 -0.0607 -0.0934
26753W        W44957  16.626   5.208  15.587 -0.1422  0.1712 -0.1180
26754W        W44958  15.290   3.453   1.099  0.0489 -0.3358  0.0408
26755W        W44959   2.823  12.590  13.209 -0.0121 -0.0867  0.1602
26756W        W44960  17.693  13.675  13.241 -0.1606 -0.4430 -0.1425
26757W        W44961  17.176   1.525  15.255 -0.0317 -0.0718  0.0430
26758W        W44962  17.850   4.160   1.301  0.1125 -0.2269 -0.0263
26759W        W44963  17.986  11.207  13.076 -0.3328 -0.0972  0.2966
26760W        W44964  14.124   8.095  14.036  0.1407  0.1674 -0.1481
26761W        W44965   2.229   0.740  14.594  0.0995  0.1223  0.0781
26762W        W44966   6.593  11.935   3.391 -0.0342 -0.1065 -0.2086
26763W        W44967  13.852   4.195  14.520 -0.0623  0.1654 -0.0348
26764W        W44968   0.877  18.162   1.345  0.1107  0.5747  0.1400
26765W        W44969   2.414  11.101   2.448 -0.0453 -0.2589 -0.1253
26766W        W44970   4.535  10.290  12.203  0.2513 -0.0215 -0.1891
26767W        W44971   8.855  10.461  13.724  0.6268  0.0647  0.1739
26768W        W44972   7.517  12.015  12.510 -0.1745 -0.1085 -0.0645
26769W        W44973   6.669   5.420  14.851  0.2969  0.1487  0.1692
26770W        W44974  18.265   8.552  12.408 -0.0199 -0.0880  0.0678
26771W        W44975   4.664   9.806   1.342 -0.0163 -0.2581  0.3302
26772W        W44976   3.040  10.215  12.810  0.1644  0.0511 -0.2662
26773W        W44977   6.961   3.862   5.365 -0.1472  0.0363  0.0850
26774W        W44978  16.556  14.599  12.943  0.0362  0.0498 -0.4920
26775W        W44979   4.179  14.969   3.329 -0.0176 -0.2689 -0.1255
26776W        W44980   1.069  13.530  13.616  0.0515 -0.1998  0.3201
26777W        W44981   2.115   8.754  12.879 -0.2787  0.0710  0.1325
26778W        W44982   7.449  14.464  11.616 -0.0661 -0.2621 -0.0914
26779W        W44983   2.374   0.182  10.758 -0.3610 -0.2628  0.1481
26780W        W44984   5.442   5.985  13.742 -0.2080 -0.0054  0.0466
26781W        W44985  15.828   1.711  11.323  0.0952 -0.0420  0.0555
26782W        W44986  12.009   0.740  11.454 -0.0070  0.2584 -0.0883
26783W        W44987  14.431   3.348   3.797 -0.1055 -0.1647 -0.0106
26784W        W44988  17.745   4.805  13.078  0.2404  0.2165 -0.1389
26785W        W44989  17.270   9.634  15.557 -0.0655  0.1119  0.0126
26786W        W44990   0.820   4.052  12.338 -0.1253 -0.2067  0.1075
26787W        W44991   5.785  16.297   4.317  0.0043  0.1289  0.0088
26788W        W44992   5.694  15.972   2.928  0.0332 -0.0811 -0.1937
26789W        W44993   6.837  13.702   3.019  0.0260  0.0561 -0.0285
26790W        W44994   2.877  16.249  14.955  0.2128 -0.0204 -0.0280
26791W        W44995  18.142  17.014  13.867  0.2090  0.1085 -0.1062
26792W        W44996   5.006  10.891  12.897  0.0350 -0.1663 -0.0128
26793W        W44997   4.467   3.986   4.054 -0.3260  0.3234 -0.4335
26794W        W44998  13.849   0.803   3.893  0.1573  0.0816  0.1100
26795W        W44999  12.991  15.827   4.671  0.1450 -0.0161 -0.0564
26796W        W45000  10.700   3.981  12.873  0.1626  0.2095 -0.0641
26797W        W45001   9.283  11.983  15.637 -0.3064 -0.1594  0.1747
26798W        W45002   3.031   7.755   4.542  0.0669 -0.0586  0.1203
26799W        W45003   8.462  15.816  13.490 -0.0471  0.1274  0.0180
26800W        W45004   8.611   6.693  12.128 -0.0406 -0.4547  0.0869
26801W        W45005  11.914  15.550  13.278  0.3789 -0.1454  0.0454
26802W        W45006   8.423  17.799   4.097 -0.3102 -0.0053  0.0600
26803W        W45007   7.206   2.611   1.987  0.0538 -0.1783 -0.3299
26804W        W45008  15.360  14.618  10.204  0.2469 -0.0895  0.0156
26805W        W45009   9.463  16.604  14.567  0.1270  0.2924  0.0722
26806W        W45010   0.830   7.561   1.568  0.0212  0.0568  0.1907
26807W        W45011   6.865   8.639  15.200 -0.3911  0.0236 -0.2934
26808W        W45012  10.456   4.049   0.217 -0.0642 -0.0873  0.0015
26809W        W45013  16.966  18.098   0.453  0.0389 -0.1093 -0.2672
26810W        W45014   7.833  10.690   1.548 -0.4034  0.0548  0.1992
26811W        W45015   8.221   9.629  14.103 -0.0683 -0.1910  0.2732
26812W        W45016   4.588   4.569   3.765 -0.2530  0.1868  0.1945
26813W        W45017  15.512  10.627  12.875 -0.2572  0.2521  0.0302
26814W        W45018   3.040   5.526  12.174 -0.2280  0.3404 -0.0996
26815W        W45019   6.029  12.730  12.027  0.0518  0.2522  0.0242
26816W        W45020  14.371  12.640  13.952 -0.1501 -0.0984 -0.0659
26817W        W45021  12.544  17.715   1.655 -0.1007  0.1140  0.0416
26818W        W45022  18.302  16.582  15.584 -0.0401 -0.0608  0.2849
26819W        W45023  11.564  14.977  13.420 -0.2669  0.4225 -0.1012
26820W        W45024   7.587  11.131   4.224  0.2694 -0.0787 -0.0787
26821W        W45025   3.783   8.304  14.755  0.0989 -0.0960  0.0101
26822W        W45026  16.687  12.384  12.889  0.4167  0.2920 -0.1328
26823W        W45027   3.217  11.664  13.429  0.0728 -0.0230 -0.2481
26824W        W45028   1.199  11.462  14.737 -0.0529  0.1442  0.0568
26825W        W45029  12.467   8.676  12.145  0.0748 -0.1891  0.0139
26826W        W45030  10.900   3.682   3.966 -0.0693 -0.1918 -0.0155
26827W        W45031   5.551   0.215  13.797 -0.2045  0.0662 -0.2225
26828W        W45032   5.913   9.088   3.457  0.0256  0.0908  0.2325
26829W        W45033   1.293  14.190   1.651  0.0412 -0.0404 -0.0515
26830W        W45034   9.433  15.953  11.786  0.0996  0.0755  0.2366
26831W        W45035  13.477  17.289  15.530 -0.0405  0.2300 -0.0307
26832W        W45036  14.286  12.947   2.710 -0.1721 -0.0544  0.0310
26833W        W45037  10.662   1.364  13.946  0.0215 -0.0070  0.2788
26834W        W45038  17.472   1.128   4.488  0.1049 -0.1227  0.2466
26835W        W45039   8.064   7.052  12.895 -0.1866  0.0668  0.1444
26836W        W45040   5.477   7.442   1.343  0.0413  0.1686  0.0345
26837W        W45041  16.603  12.249   2.015 -0.0324 -0.4702 -0.0042
26838W        W45042   2.389  11.223  13.025 -0.1772  0.0429 -0.0005
26839W        W45043   7.713  13.093   2.541  0.3190 -0.0633 -0.2402
26840W        W45044  16.915   5.581   0.187  0.0511  0.0735 -0.0914
26841W        W45045   4.541  15.179  13.403  0.0780 -0.2358 -0.2090
26842W        W45046   2.888  13.821   2.803 -0.2609 -0.0465  0.0219
26843W        W45047  11.255   2.548   0.670  0.0501 -0.2986 -0.2027
26844W        W45048  18.100   0.833  10.461 -0.0058 -0.0507  0.1979
26845W        W45049   6.481  10.753   2.076 -0.1738 -0.0459 -0.1154
26846W        W45050  17.851   8.062   2.050  0.2473  0.1391 -0.0177
26847W        W45051  11.846   3.179   3.127  0.0916  0.0826 -0.0720
26848W        W45052  13.142  10.058  13.826 -0.2544 -0.1806  0.0702
26849W        W45053   8.909  16.536  14.561 -0.1632  0.0703 -0.0661
26850W        W45054  15.861  17.132  11.165 -0.2539  0.1288  0.5899
26851W        W45055   6.948   7.012   2.749  0.0453  0.0525  0.3629
26852W        W45056  14.234   6.842   3.453 -0.0879  0.2215 -0.3206
26853W        W45057   4.574   6.350  13.491 -0.1530 -0.2795 -0.3573
26854W        W45058  16.853   4.534   4.728 -0.0213 -0.3308  0.4450
26855W        W45059   8.750   8.066   5.228  0.0068 -0.0642  0.2508
26856W        W45060   9.347   0.964   0.940 -0.0347  0.1837  0.0283
26857W        W45061   9.195  11.153  13.867  0.1637 -0.0099 -0.1899
26858W        W45062  13.963  10.308  13.102 -0.1493  0.3516 -0.0274
26859W        W45063  13.855   1.548  14.213  0.1754  0.0528 -0.1285
26860W        W45064   8.584  17.568  14.246 -0.0721 -0.3439 -0.0284
26861W        W45065  14.444   0.454   1.323 -0.1790  0.0668 -0.0702
26862W        W45066  14.562   3.040  11.179  0.2168  0.1017  0.0172
26863W        W45067  11.956   9.369  13.830 -0.2835 -0.0140  0.2913
26864W        W45068   2.593  16.858  13.350  0.0194 -0.1124  0.0391
26865W        W45069  10.030  17.037  12.527  0.1482  0.1438 -0.0551
26866W        W45070  16.777   0.013  15.271  0.1902  0.0527 -0.0951
26867W        W45071   1.293   6.286  14.881  0.0244  0.2345  0.1399
26868W        W45072   7.036   4.250   5.000 -0.3197  0.1125  0.0541
26869W        W45073   7.834   4.206  14.902 -0.2845  0.1317 -0.0703
26870W        W45074  11.935  13.555   2.572  0.0428 -0.0728 -0.1067
26871W        W45075   6.352   5.180  14.602  0.1884  0.0176  0.2329
26872W        W45076   0.403   0.837  11.631  0.1031  0.0344 -0.0755
26873W        W45077  16.708   6.648  12.968  0.1980 -0.1915  0.2741
26874W        W45078   5.853  11.385   1.798 -0.1557  0.0970 -0.3023
26875W        W45079  17.614  12.678   3.951  0.1566 -0.1415  0.1411
26876W        W45080   6.096   6.220   1.277 -0.1910 -0.1362 -0.2212
26877W        W45081   2.013  17.293   3.497  0.2991  0.3029  0.2840
26878W        W45082  10.871   7.362  13.102 -0.0345  0.3182 -0.0462
26879W        W45083  12.448  14.460  14.095  0.0815  0.1177 -0.1781
26880W        W45084   0.771   2.403  15.251  0.2233 -0.0499 -0.2673
26881W        W45085   5.074  13.813  13.132 -0.1635 -0.0073  0.1582
26882W        W45086   9.278   3.607  12.131  0.0856 -0.1979 -0.1720
26883W        W45087   7.111  17.292  13.157  0.0442 -0.2828 -0.0464
26884W        W45088   5.005   7.712  12.322  0.0006  0.2206  0.1287
26885W        W45089   2.069  16.860   9.965 -0.1567  0.0568  0.0414
26886W        W45090  14.636   3.194   3.298  0.1306 -0.4626 -0.0382
26887W        W45091   0.996   3.692  15.598  0.0585 -0.1199 -0.1592
26888W        W45092   8.998  16.799  13.733  0.0148 -0.3403  0.4197
26889W        W45093  18.297   5.099  14.577 -0.0874  0.2234  0.0763
26890W        W45094  17.512   3.015   0.198 -0.4396 -0.2249  0.1677
26891W        W45095   8.874   4.387  14.330  0.2780 -0.0756  0.1665
26892W        W45096  14.053   8.249  10.985  0.1770 -0.0194  0.1596
26893W        W45097   0.344  12.492  13.851 -0.2496  0.4065  0.0075
26894W        W45098   1.413   3.828   0.715 -0.2601 -0.0020  0.0993
26895W        W45099  11.153   1.088   2.725  0.0511 -0.0135  0.1896
26896W        W45100  10.390   8.546   3.614 -0.2215  0.0569 -0.1479
26897W        W45101   3.738   9.870   3.631  0.0534  0.5317 -0.0911
26898W        W45102   6.787  12.920   2.626 -0.0398 -0.1803 -0.2487
26899W        W45103  17.493  16.866   3.070 -0.2314 -0.0142 -0.0056
26900W        W45104   0.478   4.123  11.321  0.2262  0.0493 -0.0626
26901W        W45105  11.657  16.009  14.125  0.0048  0.0026  0.1662
26902W        W45106   1.908   2.753  12.273 -0.2031 -0.1555 -0.2476
26903W        W45107  13.142  18.178   2.908 -0.2136 -0.0787 -0.1452
26904W        W45108   1.887   8.464   4.124 -0.0655 -0.0205 -0.2297
26905W        W45109   1.241  12.508  11.933 -0.0244 -0.3850 -0.2454
26906W        W45110  10.044   9.267   4.790 -0.1331 -0.0654 -0.0059
26907W        W45111   5.669  18.115  13.741  0.0893 -0.0865  0.0587
26908W        W45112   3.838  17.682   1.241  0.2667  0.1438 -0.2317
26909W        W45113   6.897  10.820  15.696  0.0931 -0.0662  0.2828
26910W        W45114   8.548   3.302  14.788 -0.0959 -0.0651 -0.0502
26911W        W45115   8.487   3.555  14.367 -0.0911  0.2067 -0.1923
26912W        W45116   5.825  18.143   3.239 -0.0289  0.1160  0.0381
26913W        W45117   7.673  13.991  14.949  0.2327  0.0008 -0.1335
26914W        W45118   7.281   4.234   0.620  0.1517 -0.1503  0.1238
26915W        W45119   2.432   3.215   3.956  0.0849 -0.3110 -0.0791
26916W        W45120  10.661   1.877   3.746 -0.0150  0.0290  0.0215
26917W        W45121   1.711   5.836  14.858 -0.0793  0.1368 -0.1210
26918W        W45122  12.000   1.257   1.564 -0.4188  0.0235 -0.2495
26919W        W45123  12.985   6.725   3.528  0.3199 -0.0318 -0.1003
26920W        W45124   2.963  17.560  12.878  0.0074  0.1035 -0.1390
26921W        W45125   9.264   7.783   4.063  0.0256  0.1134  0.0211
26922W        W45126   2.752   6.105   1.544 -0.0189 -0.0630  0.4266
26923W        W45127  13.163  18.132   1.057  0.2374 -0.2612  0.1054
26924W        W45128  15.539   7.242  11.249 -0.0105  0.1601 -0.0385
26925W        W45129  12.249  13.986   5.168 -0.2291 -0.2695 -0.0806
26926W        W45130  17.292  12.447   1.479  0.3529 -0.2726  0.0357
26927W        W45131  10.622  10.545  15.219 -0.0754 -0.0572  0.1560
26928W        W45132   5.905   6.919  14.365  0.3596  0.0912 -0.2628
26929W        W45133   0.289   9.924   0.449 -0.0980  0.1287  0.0975
26930W        W45134   7.271   6.977   0.993 -0.0002 -0.0242 -0.2290
26931W        W45135   1.173   8.571  14.984  0.0913 -0.0552  0.3407
26932W        W45136   1.430  14.215   0.364  0.3076  0.1530 -0.1303
26933W        W45137  13.739  14.581  14.422  0.2452 -0.0620  0.1110
26934W        W45138  14.866  12.902  13.172  0.1121  0.0638  0.3284
26935W        W45139   7.718   5.468  13.471 -0.1517  0.0624 -0.0385
26936W        W45140  12.264   7.436   0.191 -0.1397  0.0380 -0.0744
26937W        W45141   4.452   9.766  12.078 -0.2152  0.0508  0.1899
26938W        W45142   1.398   1.690   4.090  0.0426  0.1082  0.1473
26939W        W45143   3.473   0.310   4.264 -0.2927  0.1097  0.1581
26940W        W45144  10.054  18.161   3.528 -0.0368 -0.1770 -0.0327
26941W        W45145  16.058   1.055  13.262 -0.1127  0.2795 -0.3889
26942W        W45146  16.190  13.658   4.773  0.1194  0.0883  0.1519
26943W        W45147   8.346  12.581   4.566 -0.1215 -0.2863 -0.2832
26944W        W45148  11.096   0.938   0.243 -0.2080  0.0088  0.2014
26945W        W45149   5.015   2.116   2.836  0.3095 -0.1336 -0.2875
26946W        W45150   6.742  12.449  10.538 -0.0518  0.0121  0.0999
26947W        W45151  13.632   9.576  13.406 -0.0307  0.1254 -0.4588
26948W        W45152   0.770  10.621  11.495 -0.2680  0.2158 -0.0091
26949W        W45153  16.844  16.404   1.292  0.0736  0.6927 -0.1198
26950W        W45154   7.201   5.212  10.375 -0.0819  0.4166  0.2364
26951W        W45155   9.608  14.886   1.658 -0.0027  0.1823 -0.0997
26952W        W45156   8.666  17.794   0.115 -0.2623 -0.3263 -0.0857
26953W        W45157   0.458  13.749  14.893  0.1508  0.0672 -0.2799
26954W        W45158  15.767  14.637   0.436  0.0239 -0.2611 -0.0588
26955W        W45159   3.257   6.448   0.889  0.0920 -0.0708 -0.0225
26956W        W45160  16.238  18.178  12.582 -0.0455 -0.1284  0.1739
26957W        W45161  10.092  16.348  10.231 -0.2977 -0.1605 -0.3897
26958W        W45162   7.905  12.970  14.797 -0.2880 -0.0282  0.0433
26959W        W45163  14.872  13.412   4.184 -0.0157 -0.1898  0.1439
26960W        W45164  15.484   9.753  12.209 -0.0640  0.2152 -0.0348
26961W        W45165  14.675  16.206   4.344 -0.2001 -0.0734  0.0783
26962W        W45166   1.837   3.422   4.960  0.0781  0.0696  0.0372
26963W        W45167   9.879   6.804  12.157 -0.0587 -0.2218 -0.0727
26964W        W45168  16.625   0.622   1.460 -0.0173 -0.0305 -0.1104
26965W        W45169  16.391  14.034  15.119 -0.3530 -0.0127 -0.0629
26966W        W45170  15.161  14.721  11.273 -0.2147 -0.2402  0.1528
26967W        W45171   6.233  10.843  13.004 -0.0071 -0.0526  0.0616
26968W        W45172   3.890  11.506   0.328  0.0763  0.1032 -0.0660
26969W        W45173  11.252  17.164   2.751 -0.1501  0.3488 -0.1812
26970W        W45174   3.130  14.657   1.082  0.0666 -0.0145 -0.1655
26971W        W45175  16.930   4.144  14.962  0.1376  0.0245  0.0117
26972W        W45176   4.315  15.368  14.403  0.0724  0.1430 -0.2419
26973W        W45177  16.979  12.344  15.481  0.0234 -0.2187 -0.2655
26974W        W45178   4.794   5.662  11.956  0.1688 -0.2574  0.1154
26975W        W45179   0.173  13.197   4.580  0.1946 -0.0617  0.2731
26976W        W45180  18.301   6.102  15.709 -0.0978 -0.1306  0.1381
26977W        W45181  13.178  16.300   2.196 -0.0361 -0.2489  0.0615
26978W        W45182  17.091  18.307   0.885  0.0689 -0.2123  0.0867
26979W        W45183  10.189  12.378   0.193 -0.0025 -0.0197  0.1463
26980W        W45184   6.728  13.964   2.539  0.0168 -0.0388 -0.2759
26981W        W45185  15.706  15.545   0.553 -0.1679 -0.0793  0.1863
26982W        W45186   8.890   1.155   0.820  0.1519  0.3461  0.0667
26983W        W45187  12.084   8.299  14.603 -0.0565 -0.0894 -0.1607
26984W        W45188   7.243   0.266  13.457 -0.1197  0.1557  0.1320
26985W        W45189   0.345   5.856  12.091 -0.1642 -0.3910 -0.2544
26986W        W45190  12.643  15.736   0.900  0.0494  0.0668  0.0099
26987W        W45191  16.023  11.173  14.572 -0.1738 -0.1695  0.0705
26988W        W45192  17.321   2.541  14.168 -0.1542  0.2149  0.1232
26989W        W45193   5.944   6.855   0.674  0.1643 -0.3472  0.0851
26990W        W45194  10.277  17.222  11.895 -0.2885 -0.1367  0.0049
26991W        W45195  17.472  12.250   1.982 -0.3014 -0.1416  0.0147
26992W        W45196   1.487  13.570  12.706 -0.0039  0.0800 -0.1298
26993W        W45197  11.139  17.012  15.202  0.1137 -0.0888  0.2234
26994W        W45198   2.439   6.115  11.870  0.0779 -0.0682  0.1225
26995W        W45199  14.779   6.030   4.356  0.2182 -0.3736 -0.1283
26996W        W45200   0.458   1.663   0.979 -0.2514 -0.1927  0.0273
26997W        W45201  14.801   2.657  10.939  0.0593  0.0879 -0.1161
26998W        W45202  13.899   3.788  13.258  0.3348  0.2023 -0.0214
26999W        W45203  14.071  15.517  14.538 -0.0574 -0.1684 -0.3515
27000W        W45204  16.961   0.363  11.894  0.3229  0.2698 -0.0909
27001W        W45205  10.031   0.512   4.655  0.2193  0.0064 -0.1227
27002W        W45206   9.432   9.185  14.128  0.1333  0.1696 -0.0908
27003W        W45207   6.153  17.468  15.178 -0.1386  0.1344 -0.0320
27004W        W45208  16.050  11.474  15.163  0.0012  0.1334  0.0577
27005W        W45209  17.919  15.552   1.317  0.0763 -0.1590 -0.3042
27006W        W45210   1.529   9.015  14.060 -0.0736  0.0584 -0.0572
27007W        W45211   7.081   1.545   1.098  0.1762  0.0075 -0.0107
27008W        W45212  13.889  13.678  12.703 -0.1409  0.1556  0.0554
27009W        W45213  18.191   6.093  14.849  0.2767  0.0274  0.0950
27010W        W45214   3.816  14.086   3.491 -0.4589 -0.2357  0.0322
27011W        W45215   5.952   9.632  12.012  0.1066 -0.3583 -0.1514
27012W        W45216   3.050  13.478   1.774  0.3233  0.1392  0.0874
27013W        W45217  17.920   0.175  13.776  0.0500  0.0630 -0.1104
27014W        W45218   1.424   5.775   4.066  0.0037  0.3461 -0.1361
27015W        W45219   8.959  14.748  15.076  0.0788 -0.1108 -0.0651
27016W        W45220   8.616   0.871  13.291  0.0664  0.0492 -0.2802
27017W        W45221   1.461   0.170  15.512  0.2300 -0.2539  0.1161
27018W        W45222   2.047   9.548  13.561 -0.5246  0.0317 -0.0094
27019W        W45223  11.859   7.163  13.994  0.2350  0.1417  0.2137
27020W        W45224   6.309  13.602  14.382  0.0858  0.2130  0.2698
27021W        W45225   4.652   1.479  11.593  0.0267  0.0146 -0.0236
27022W        W45226   6.336   1.225   3.315 -0.0497 -0.0734  0.2023
27023W        W45227  13.102   3.517   3.083 -0.0373  0.1687 -0.0439
27024W        W45228   5.752  17.762   2.278 -0.2215  0.0300 -0.1883
27025W        W45229   6.702  10.293  11.687  0.1631  0.3220 -0.2250
27026W        W45230  10.947   9.578  13.312 -0.2222  0.1378  0.1822
27027W        W45231   0.949  17.723  12.160  0.2949 -0.0384  0.0165
27028W        W45232   0.784   6.809   1.087 -0.1684 -0.2400 -0.0948
27029W        W45233   6.934   4.945  12.046 -0.1355 -0.0054  0.0770
27030W        W45234  11.423  15.747   1.285  0.0458 -0.1912 -0.1830
27031W        W45235   9.954  11.831  11.510  0.0465 -0.1322 -0.1637
27032W        W45236   3.533   4.169  13.627  0.3144  0.1343  0.1092
27033W        W45237  11.040   8.701   0.628  0.4348 -0.1585 -0.1343
27034W        W45238  18.263  12.606  11.510  0.3516  0.1456  0.3694
27035W        W45239   2.195   5.294  13.752  0.0981  0.1126  0.0818
27036W        W45240  12.488  11.873  11.736 -0.0970  0.0787  0.0047
27037W        W45241  17.195   8.952  14.278  0.1250 -0.3902  0.1327
27038W        W45242  10.018  13.927   1.314 -0.0286  0.1062 -0.2554
27039W        W45243  13.679  12.967  14.452 -0.2194 -0.0187  0.0195
27040W        W45244  15.798   5.721   0.567  0.1360  0.0306  0.3834
27041W        W45245   2.230   0.994   1.831  0.0823 -0.2572 -0.2304
27042W        W45246  14.038  15.466  12.855  0.0744 -0.3700 -0.4190
27043W        W45247   0.788  12.710  14.040 -0.1046 -0.2227 -0.0605
27044W        W45248   1.055   0.856   2.564 -0.0348  0.4694  0.3837
27045W        W45249  11.662  12.192  14.510 -0.0268  0.1550 -0.0757
27046W        W45250  10.119   9.871   0.295 -0.0414  0.1022 -0.0728
27047W        W45251  15.231   9.855   3.277 -0.0474 -0.2067 -0.0860
27048W        W45252   6.808  16.951   1.066 -0.1601 -0.0229 -0.0054
27049W        W45253   8.884  13.028  11.782  0.1037 -0.1198 -0.1662
27050W        W45254  12.504  14.151  13.722  0.4215 -0.2445  0.2444
27051W        W45255   4.788   6.403  15.415  0.2802  0.0404 -0.1599
27052W        W45256  11.629  14.101  14.104  0.3169 -0.0182  0.2344
27053W        W45257   7.416   6.698  12.430  0.2394  0.0424  0.3218
27054W        W45258   2.754  17.206  10.956  0.3557 -0.2059 -0.1938
27055W        W45259  12.320  10.341  13.519  0.0644 -0.2244  0.1250
27056W        W45260   8.431   2.648  11.930 -0.0901  0.1734  0.1869
27057W        W45261  11.290  17.841  13.078 -0.2337  0.0520 -0.2229
27058W        W45262   3.909  11.992  13.930  0.0805  0.1765 -0.0915
27059W        W45263   9.855   3.948   2.124 -0.0885 -0.2888  0.0228
27060W        W45264  17.153  17.592   3.743 -0.1068 -0.0888 -0.0647
27061W        W45265   4.887   2.104  12.174  0.3092  0.1094 -0.4034
27062W        W45266   1.780  18.012   4.126 -0.1057 -0.1041 -0.0654
27063W        W45267  12.991  11.852   1.182 -0.0957 -0.2050  0.2859
27064W        W45268   0.581   7.473   3.794  0.0397  0.0370 -0.4510
27065W        W45269   0.070  16.930  14.872  0.0083  0.3234 -0.0612
27066W        W45270  14.013   2.385   2.982  0.0976  0.1232  0.2543
27067W        W45271  15.458   6.739  12.289  0.1369 -0.0339  0.0390
27068W        W45272  14.971  13.701  10.633 -0.0363  0.2795 -0.0584
27069W        W45273   2.380  15.990  14.970 -0.1573 -0.0509 -0.3392
27070W        W45274   3.576  17.673   0.826 -0.1612 -0.0662 -0.1788
27071W        W45275   4.848  16.433  15.201 -0.2951  0.1388 -0.2763
27072W        W45276   5.993  17.784   1.798 -0.2992  0.1024 -0.3426
27073W        W45277  11.520   5.825   2.888  0.0353 -0.1666 -0.3113
27074W        W45278   3.837  15.813  11.786  0.0456  0.3476  0.1159
27075W        W45279   3.599  18.231  11.787 -0.1769  0.3201  0.1026
27076W        W45280   9.972  15.600  13.791  0.1294  0.2399  0.0079
27077W        W45281  12.597  10.455   1.541  0.0311  0.0086  0.1891
27078W        W45282  17.528   1.157   3.110  0.1047 -0.1352 -0.0962
27079W        W45283  13.144   2.628  14.536 -0.3040  0.0614 -0.1285
27080W        W45284   4.475   3.010  12.710  0.0190 -0.1129  0.1677
27081W        W45285  16.968   6.511  15.244  0.3261  0.0553  0.0860
27082W        W45286  11.492   3.356   0.821  0.0025 -0.0394 -0.1747
27083W        W45287   5.494   9.789  13.263 -0.0809  0.0774  0.0994
27084W        W45288  14.539  11.285   0.286 -0.1388 -0.1010 -0.2551
27085W        W45289   1.137  16.774  14.280 -0.1432 -0.0479  0.0698
27086W        W45290  15.398  17.354   2.953 -0.1369  0.2518 -0.1494
27087W        W45291  10.588   5.270  13.658 -0.1192  0.3045 -0.1130
27088W        W45292  12.460  10.021   5.022  0.2502  0.1130  0.0365
27089W        W45293   9.664   1.230   4.632 -0.1204  0.3532 -0.0399
27090W        W45294   6.094  15.842  11.003  0.0534 -0.2449 -0.0161
27091W        W45295  12.633   7.706  15.050 -0.2206  0.2328  0.2199
27092W        W45296  11.436  15.206   3.944  0.2601 -0.3700  0.0477
27093W        W45297   0.884  13.145   4.073 -0.0954 -0.1447 -0.1191
27094W        W45298   1.424   5.494  13.638 -0.1763  0.0636  0.1174
27095W        W45299  15.853  14.909   0.979 -0.1701  0.2314  0.3605
27096W        W45300  16.786   4.611  12.369  0.0860  0.1264  0.1417
27097W        W45301   2.922   7.232  11.026 -0.0653  0.0690 -0.1776
27098W        W45302   7.614   4.328   3.011  0.0523  0.0019  0.1830
27099W        W45303   2.038   7.266  14.981 -0.0711 -0.1106  0.2256
27100W        W45304   3.036  17.013  11.629  0.3283 -0.0015 -0.3418
27101W        W45305  11.596  14.704  12.844  0.0032  0.0050 -0.1199
27102W        W45306  12.678  18.351   3.687  0.0013  0.0173  0.1691
27103W        W45307   4.445   3.026  11.362  0.0774  0.1328 -0.0271
27104W        W45308  15.216  16.804   2.874 -0.1886  0.3325 -0.1097
27105W        W45309  11.081  13.654   2.855 -0.3592  0.0990 -0.1948
27106W        W45310   3.943   5.399   2.348 -0.1625  0.0307 -0.0566
27107W        W45311  15.858   5.750  12.379  0.1076  0.0570 -0.0418
27108W        W45312  17.357  12.479  14.020  0.0796 -0.3016 -0.2442
27109W        W45313  15.217   8.958   0.586 -0.0721 -0.2308 -0.3133
27110W        W45314  17.037  11.899  11.766 -0.2832 -0.1620 -0.1055
27111W        W45315  11.409   4.767  15.497  0.1522  0.0516  0.0242
27112W        W45316  12.649   9.973   4.339  0.1744 -0.0906  0.0192
27113W        W45317   2.306   6.339   3.913 -0.0095  0.0642 -0.0507
27114W        W45318  10.482   1.593   2.294  0.0946  0.0237  0.0149
27115W        W45319   1.164   8.528   2.597 -0.0603 -0.1637 -0.2526
27116W        W45320   9.889  11.742   1.535 -0.0133  0.0159  0.2548
27117W        W45321   5.279   8.645  14.168  0.1199  0.2478 -0.0489
27118W        W45322   1.390  12.713  13.200  0.0603  0.4037  0.3437
27119W        W45323   8.473  11.555   3.361 -0.1084  0.2309  0.1910
27120W        W45324   5.566   0.022   0.602  0.0033 -0.1980 -0.2491
27121W        W45325  17.271   7.303  11.099  0.1673 -0.3025 -0.1502
27122W        W45326  11.392   3.765   2.960  0.1103  0.0662  0.0896
27123W        W45327   4.407  12.951   3.264 -0.0619 -0.3989 -0.0065
27124W        W45328  10.359   3.870   1.870 -0.1580  0.1712 -0.0075
27125W        W45329   6.859  11.413  13.582 -0.0419  0.0184 -0.3199
27126W        W45330  17.066   8.333   0.936 -0.1800 -0.5348 -0.0028
27127W        W45331   2.421  14.337  10.031  0.0433  0.1426  0.1321
27128W        W45332  13.209   5.909   1.491 -0.0723  0.0097  0.0436
27129W        W45333   7.288   1.163  10.492 -0.4689  0.0531 -0.1641
27130W        W45334   2.341  13.177   2.843 -0.0083 -0.1281 -0.1924
27131W        W45335  11.718   8.846  13.857  0.1408  0.0573  0.2332
27132W        W45336  14.605   0.288   0.207 -0.0650 -0.1430 -0.0674
27133W        W45337   5.552  14.421   9.982 -0.1110  0.2143 -0.0593
27134W        W45338  12.903  16.481  13.480  0.1192 -0.1495  0.2972
27135W        W45339  12.088   5.737   4.471 -0.0932 -0.2438 -0.0892
27136W        W45340   3.210  13.187   5.626  0.4082 -0.0359  0.0556
27137W        W45341   3.963   4.200   2.241 -0.0202 -0.1455  0.2102
27138W        W45342  17.030   8.735   3.407  0.0173  0.0692  0.2403
27139W        W45343   1.857   9.325   2.326  0.2564  0.0359 -0.1743
27140W        W45344   0.042  10.270   2.557  0.0300 -0.2989 -0.2728
27141W        W45345   9.877  16.999  15.274  0.0139  0.0224  0.3909
27142W        W45346   9.119   4.258   2.275 -0.3860  0.2987  0.1541
27143W        W45347  10.213  13.698   4.130  0.4525  0.1155 -0.0530
27144W        W45348   8.718   7.739  13.685 -0.0457  0.1134  0.1262
27145W        W45349  17.481  11.027   2.334  0.0172 -0.0156 -0.3600
27146W        W45350   3.326  15.775  11.535 -0.1946  0.2505 -0.0704
27147W        W45351  16.369  13.086  15.024  0.3775 -0.1372 -0.0671
27148W        W45352  13.685   7.291   1.294  0.2822  0.1526 -0.0381
27149W        W45353   1.790  15.593   2.354  0.0741  0.3303 -0.4372
27150W        W45354   4.244   7.121  14.782  0.0241 -0.1216  0.4013
27151W        W45355   5.167  18.080  12.718  0.1033 -0.1097 -0.1708
27152W        W45356   5.489   3.076   0.001 -0.2496  0.0429 -0.0313
27153W        W45357  14.599   9.468  10.778 -0.0081  0.1556  0.0767
27154W        W45358  11.980  14.146  13.734 -0.2179 -0.0044  0.0248
27155W        W45359   8.420   7.855  14.937 -0.1835  0.1488  0.1065
27156W        W45360   4.281   4.088   1.132 -0.0777  0.1044 -0.2930
27157W        W45361   8.311  17.222  13.873 -0.1201 -0.0922  0.0526
27158W        W45362   0.687   3.205  12.382 -0.2504 -0.3627  0.1008
27159W        W45363   4.670   7.506   9.805 -0.1891  0.3317  0.2207
27160W        W45364   7.434  17.993   4.332  0.0565  0.1438 -0.1425
27161W        W45365   1.967   1.211   0.567  0.0060 -0.3386  0.4358
27162W        W45366   8.973   0.555  14.855 -0.0410 -0.0437 -0.0584
27163W        W45367   9.214   7.797  14.436 -0.0512 -0.1085 -0.1096
27164W        W45368   1.880   6.327  12.613 -0.4406  0.3172  0.1953
27165W        W45369  14.928   6.221  14.404 -0.1862  0.0093  0.0812
27166W        W45370  17.847   9.980  13.557 -0.4275  0.2381  0.2476
27167W        W45371   4.908  18.003   3.461 -0.1249  0.4296  0.1877
27168W        W45372   6.743   9.009   2.930  0.0409 -0.1805 -0.1100
27169W        W45373  11.495   7.722  15.185 -0.2487  0.0563  0.1401
27170W        W45374  13.855   8.387   3.881  0.0991 -0.2209  0.1819
27171W        W45375   9.064   6.871   1.891 -0.1615 -0.1352 -0.0277
27172W        W45376   8.876   4.679  14.846  0.0813  0.2329 -0.1130
27173W        W45377  10.440   0.497   0.628 -0.2418  0.3637 -0.0147
27174W        W45378   0.495  14.067   4.595  0.0077  0.0315 -0.1793
27175W        W45379  16.102   7.529   2.827  0.1923 -0.0160 -0.1662
27176W        W45380  12.492  18.136  13.948 -0.2342  0.1548  0.0163
27177W        W45381  16.315  16.398   2.283 -0.2610 -0.2798 -0.1704
27178W        W45382   6.708  16.996   3.703  0.2267 -0.0292  0.0198
27179W        W45383   9.403   5.620  14.013  0.2311  0.0797 -0.0721
27180W        W45384  15.960  10.809  13.671  0.1547  0.1990 -0.0625
27181W        W45385   7.277   0.442   2.837  0.1156 -0.0360 -0.0341
27182W        W45386   2.255   0.916  13.736 -0.0537  0.4355 -0.1972
27183W        W45387   4.572   1.582  14.588 -0.0125 -0.2063  0.0842
27184W        W45388  16.919   6.850  14.763  0.2280  0.0814  0.1915
27185W        W45389  10.852  16.498   3.950  0.2469  0.2741 -0.0373
27186W        W45390  12.288   8.507  15.168  0.1178 -0.0066  0.1317
27187W        W45391   3.620  17.085  11.689 -0.2535 -0.2130  0.2948
27188W        W45392   2.728  10.637   0.400  0.1406 -0.1473  0.0015
27189W        W45393   4.308  13.730   2.534  0.0549  0.0781  0.0307
27190W        W45394  18.112   5.792   4.012  0.0791 -0.1420  0.1666
27191W        W45395   8.733  14.603  11.042  0.2204 -0.2987  0.0473
27192W        W45396   8.292   0.510   0.159  0.3397 -0.0839 -0.3688
27193W        W45397   9.155  14.186  14.482 -0.0382  0.1330 -0.3637
27194W        W45398  14.434   7.587   0.520 -0.2647 -0.0188 -0.0811
27195W        W45399  18.171   5.139  12.168 -0.1035  0.0185 -0.2869
27196W        W45400   8.317   7.061   0.431  0.2145  0.2510 -0.1796
27197W        W45401  17.048   3.163  13.230  0.3875 -0.1436  0.2348
27198W        W45402   2.835  16.185  12.206  0.2758 -0.0179 -0.0083
27199W        W45403  11.582   5.985   3.564  0.1369  0.2077 -0.5360
27200W        W45404  17.825  11.637   1.509 -0.0110 -0.1926  0.0766
27201W        W45405  13.884   1.195  11.476 -0.0970 -0.1355 -0.3444
27202W        W45406   0.161   5.538   1.629  0.3052 -0.3117  0.2670
27203W        W45407   0.321   7.722  10.993 -0.0982 -0.1937  0.3184
27204W        W45408   0.131   9.106  12.682 -0.0621 -0.1508  0.1562
27205W        W45409   9.109  16.285   4.607 -0.2035  0.0803  0.0685
27206W        W45410  16.334   7.248   1.092  0.4019 -0.0296 -0.0087
27207W        W45411   8.794  14.042   1.633 -0.1501 -0.1049 -0.0641
27208W        W45412  10.017   5.755   3.793  0.1373  0.1258  0.1915
27209W        W45413   2.900  14.063   4.147  0.0443 -0.1124  0.0868
27210W        W45414   6.595   6.422  15.421  0.0326 -0.1161  0.0325
27211W        W45415   8.440  13.274   1.334  0.0687 -0.1930  0.2370
27212W        W45416  10.558   1.254  14.714  0.1584  0.1735  0.2288
27213W        W45417  12.594   6.348   4.144  0.0807 -0.2455 -0.2723
27214W        W45418   9.499   6.404  13.554 -0.1103  0.0823 -0.2375
27215W        W45419   0.611  17.234   3.598  0.0908  0.2584  0.0841
27216W        W45420   9.728   6.195  15.445 -0.1934  0.1544  0.0464
27217W        W45421  13.461   3.891   3.290  0.2462 -0.0959 -0.0753
27218W        W45422  14.863  11.383  15.652  0.1532  0.0089  0.1575
27219W        W45423   2.462  13.556   2.455  0.2979 -0.1478 -0.0532
27220W        W45424   3.829   1.741  11.777 -0.0632  0.0837 -0.0214
27221W        W45425   1.511   5.070   0.384 -0.0828  0.0382 -0.0589
27222W        W45426   3.403  15.885   0.984 -0.0843  0.1603  0.1173
27223W        W45427  18.173  17.733  11.022 -0.0857  0.1081 -0.0679
27224W        W45428  15.478  12.112  15.507 -0.1374 -0.2961 -0.0265
27225W        W45429   7.835   0.809  14.107 -0.2055 -0.1487  0.1780
27226W        W45430   1.149  15.498   3.751 -0.1360 -0.0878  0.1584
27227W        W45431  12.302   7.639  14.081  0.4092  0.0072  0.0443
27228W        W45432   9.837   1.699  12.845  0.0589  0.0288 -0.1695
27229W        W45433  10.771   4.678   1.237  0.1244 -0.2045  0.2113
27230W        W45434  14.544   7.123  15.414 -0.0451  0.3211  0.0125
27231W        W45435   2.841  12.086  11.476  0.1299  0.2885  0.1296
27232W        W45436   3.495  11.765   0.756  0.1331 -0.1066  0.3659
27233W        W45437  15.550   4.348  14.076  0.0288 -0.0984  0.2112
27234W        W45438   0.509   4.282   1.484 -0.2740  0.4044  0.2136
27235W        W45439   2.228   9.531   2.513  0.2578 -0.0953 -0.0848
27236W        W45440   9.030   5.700   2.159  0.0260 -0.1439 -0.3879
27237W        W45441   6.930   2.881  14.168 -0.0841 -0.3136  0.1359
27238W        W45442  12.599   6.901  14.541  0.1842 -0.1683 -0.2495
27239W        W45443   5.303   1.167  15.620  0.1866 -0.0394  0.0240
27240W        W45444  17.917   8.892   0.977  0.0012 -0.0480 -0.0255
27241W        W45445  17.436   2.564  15.024  0.2414  0.1404 -0.0388
27242W        W45446   8.411   0.578   3.152  0.0101 -0.1031 -0.1846
27243W        W45447  17.005   3.842   3.940 -0.1913  0.1302  0.0017
27244W        W45448  12.483   9.764  14.660  0.0731  0.1814  0.1133
27245W        W45449   7.586  13.219  13.468 -0.3950  0.0331 -0.2351
27246W        W45450   7.253  14.266   9.862 -0.0707  0.1453 -0.0570
27247W        W45451   4.803   2.380   1.207 -0.3475  0.4077  0.4337
27248W        W45452   8.248   3.123   1.590  0.3809  0.3695  0.3198
27249W        W45453  13.108  10.969   4.711  0.2627 -0.0379 -0.0530
27250W        W45454   5.902  10.122  10.542  0.0370  0.0507  0.1796
27251W        W45455  14.712  13.975   0.001 -0.2482  0.1453 -0.0149
27252W        W45456   8.153   9.685  13.606  0.1333 -0.1490 -0.4250
27253W        W45457   5.454  10.027   3.452 -0.1236 -0.3950 -0.3942
27254W        W45458  10.280   6.102   4.291  0.1317 -0.0552 -0.0442
27255W        W45459   6.418  17.807  11.437  0.0897  0.1369 -0.0558
27256W        W45460  12.619   6.019  15.490  0.1605 -0.1205  0.1770
27257W        W45461  16.334   4.041   0.230 -0.0378 -0.3100  0.1303
27258W        W45462   6.340   1.630  11.370  0.0710 -0.1223  0.0817
27259W        W45463   9.319  10.623  13.852 -0.1501 -0.2884 -0.0425
27260W        W45464  17.389  15.029   1.917 -0.1764  0.2461 -0.1117
27261W        W45465   3.574   4.206   2.546  0.0408 -0.1601  0.2035
27262W        W45466   3.098   6.425   1.378 -0.1322 -0.2751 -0.0309
27263W        W45467  11.124  12.098  14.995  0.3297 -0.0379  0.0283
27264W        W45468   9.152  10.261   1.308  0.0351 -0.0539  0.2170
27265W        W45469   1.466   6.155   0.498 -0.1755  0.1714  0.1622
27266W        W45470  16.940  11.565   2.992  0.1616  0.1235  0.1463
27267W        W45471  13.457   3.688  13.588  0.1495 -0.1107 -0.3371
27268W        W45472  18.101  13.695   3.513 -0.0464  0.0368 -0.0631
27269W        W45473   2.031  15.261   1.108 -0.1077 -0.0971  0.0310
27270W        W45474   0.041  17.717  13.208 -0.0497 -0.2875  0.0479
27271W        W45475  10.392   5.716  11.352  0.1770  0.0509  0.2729
27272W        W45476   8.309   3.888  10.123 -0.0419 -0.0258  0.1762
27273W        W45477   4.830   5.151  11.891  0.0801 -0.1403  0.1346
27274W        W45478  10.228   2.980  11.134 -0.2243 -0.4082  0.3857
27275W        W45479   7.594  18.317  14.843  0.2466  0.0845 -0.0836
27276W        W45480   3.835  13.479  15.331  0.0178  0.1723  0.3749
27277W        W45481   2.450   3.232   2.563  0.1118 -0.0490  0.1116
27278W        W45482   1.977   9.308  14.010 -0.2526  0.1208 -0.2220
27279W        W45483  13.050  10.891  10.295 -0.0597 -0.0267 -0.3051
27280W        W45484   1.843  17.874  14.230 -0.1479 -0.0337 -0.0133
27281W        W45485  18.322   7.834   3.047 -0.1247  0.0337 -0.1297
27282W        W45486  13.621   9.305  12.629  0.1465  0.2115 -0.3186
27283W        W45487   9.700   2.403   3.018  0.3190  0.0301  0.0880
27284W        W45488  15.675   5.699   5.209 -0.0643 -0.0155 -0.3701
27285W        W45489  16.538  16.501  12.816  0.1597 -0.0262 -0.1046
27286W        W45490   8.174   3.330   5.051 -0.0291  0.0419  0.2304
27287W        W45491  16.121  14.393  14.795  0.0649  0.1136  0.1243
27288W        W45492  11.459   3.658  13.932 -0.0143  0.1702 -0.3066
27289W        W45493   0.080   5.941   1.209 -0.0009  0.0200 -0.1604
27290W        W45494  13.174  11.853  15.175  0.2056  0.3273 -0.0867
27291W        W45495   9.790   2.946  14.172 -0.0039  0.1162 -0.0237
27292W        W45496   1.637  10.952   1.364 -0.1629 -0.0222 -0.0291
27293W        W45497  12.701   6.448   2.237  0.2725  0.0038  0.0659
27294W        W45498   7.326  10.504  12.367  0.2265  0.0024  0.2285
27295W        W45499   6.328  14.438   3.374  0.0761  0.0961  0.0196
27296W        W45500  17.606   0.159   3.120 -0.2186  0.4188 -0.1514
27297W        W45501   0.339   2.320   4.885  0.0599  0.1014 -0.1075
27298W        W45502  10.271  11.982   4.456 -0.0515 -0.1751  0.0786
27299W        W45503   4.048   2.649   3.494  0.0481 -0.1365  0.1488
27300W        W45504   5.933  14.312   3.027  0.1878 -0.1893  0.0903
27301W        W45505   5.833   2.012  12.889 -0.2403  0.1338  0.1189
27302W        W45506  14.122  10.402   4.142  0.2768 -0.2804 -0.1629
27303W        W45507  16.775  14.011   2.303 -0.1121  0.2775  0.6514
27304W        W45508   0.620   0.233   0.068 -0.0279  0.0634 -0.2380
27305W        W45509  11.394   2.068   4.390 -0.0932 -0.0830 -0.2866
27306W        W45510  10.986   1.628   0.269  0.1025  0.0181 -0.2526
27307W        W45511   5.186  12.106   2.247  0.1186 -0.0150 -0.2058
27308W        W45512   1.536   7.994  12.885  0.1813 -0.3419 -0.0120
27309W        W45513  12.414   2.407  14.689  0.1924 -0.1035  0.0019
27310W        W45514  14.353   8.200   2.937  0.0674  0.3193 -0.0476
27311W        W45515  18.273   9.129   3.517 -0.0595  0.2226 -0.1419
27312W        W45516   8.851  15.777  11.936 -0.1304 -0.3108 -0.0510
27313W        W45517  11.100  15.665   2.727 -0.2111 -0.1451  0.4041
27314W        W45518   0.319   0.828   3.073 -0.1524  0.0852  0.0292
27315W        W45519  13.288   0.304  15.031 -0.0659 -0.0331 -0.2385
27316W        W45520   8.960  11.500  13.470 -0.0999  0.0216 -0.0034
27317W        W45521   7.185   0.811  13.560 -0.0861 -0.1425 -0.0284
27318W        W45522  11.576   5.381  14.185 -0.0512 -0.1884  0.1996
27319W        W45523   6.097   1.485   0.085  0.1057  0.1104 -0.1714
27320W        W45524   3.299   3.694   2.690  0.2296  0.0489 -0.0016
27321W        W45525   7.825  16.657   4.322  0.2007 -0.1312 -0.0142
27322W        W45526   3.748   3.346  11.832 -0.2475 -0.1093 -0.0577
27323W        W45527   0.699   3.193  13.725 -0.1643  0.0348  0.1371
27324W        W45528  11.048   0.186  12.697 -0.1460 -0.3234 -0.1336
27325W        W45529   3.855   4.868   1.610  0.1533  0.1061 -0.1696
27326W        W45530   2.483   3.934  11.719  0.1255  0.1238 -0.0834
27327W        W45531  15.783   6.568  10.360  0.0912  0.1181 -0.0699
27328W        W45532   6.564   1.248  12.408  0.0525  0.0631 -0.2364
27329W        W45533  16.969  16.831   2.858 -0.2309  0.3567 -0.1143
27330W        W45534  15.572  12.433  12.937  0.0038 -0.3335  0.1946
27331W        W45535  12.726  17.622  14.025 -0.0257  0.0378  0.0123
27332W        W45536  10.430  15.045  15.691  0.2125  0.0358 -0.1262
27333W        W45537   8.737   7.453  15.416  0.3173  0.2488  0.1305
27334W        W45538  10.384  11.779  13.958  0.1067 -0.0157  0.2117
27335W        W45539   2.351   9.592   1.586  0.2257  0.0145 -0.0935
27336W        W45540   1.373  18.031   3.500  0.2605  0.1144 -0.2261
27337W        W45541  12.454   0.158  14.284  0.3380 -0.1536 -0.0002
27338W        W45542  17.841   7.084  13.128 -0.0942 -0.3798 -0.1097
27339W        W45543   0.999   3.624   3.596 -0.1658  0.0952  0.2108
27340W        W45544   3.569  17.351   2.859 -0.0326  0.3330 -0.0207
27341W        W45545  16.267  11.141   4.776 -0.0220  0.3542 -0.0223
27342W        W45546  12.853   5.743  15.066  0.0343  0.1200 -0.1192
27343W        W45547   6.058  11.272  14.528  0.1835 -0.0094  0.1305
27344W        W45548   1.144  13.007  14.163  0.1116 -0.1960  0.0756
27345W        W45549  11.367   5.673   1.718  0.1309  0.0210  0.2012
27346W        W45550  13.646   5.047  11.256  0.2520  0.2064 -0.0349
27347W        W45551   5.589   6.265   1.035 -0.0543  0.0893 -0.2060
27348W        W45552  14.860   1.980   4.696 -0.0816 -0.0188  0.1162
27349W        W45553  17.420  11.859   2.365 -0.1631 -0.1357  0.0479
27350W        W45554   7.321   1.449  15.638 -0.1466  0.3394  0.3284
27351W        W45555   8.831  14.743   2.873 -0.0245 -0.3783 -0.1771
27352W        W45556   5.020  15.830   0.392 -0.0473 -0.1314 -0.0789
27353W        W45557   9.407   3.771   2.193  0.2421 -0.0217 -0.0265
27354W        W45558   9.460   9.691  13.612  0.1875  0.1736 -0.0431
27355W        W45559   6.806  13.951   4.443 -0.0942 -0.0839 -0.3380
27356W        W45560   1.666   0.664  13.288  0.1212 -0.0928  0.2509
27357W        W45561  15.722  10.260  12.442  0.0996  0.2180  0.0365
27358W        W45562   7.335   9.542  13.665 -0.0770 -0.0354  0.0639
27359W        W45563   7.595   7.942   2.324 -0.2528  0.0295  0.2310
27360W        W45564   6.539  11.252  11.542 -0.0572  0.2995 -0.2225
27361W        W45565  15.509   6.269   3.861 -0.0305 -0.3416  0.1387
27362W        W45566  12.257  15.211   0.050 -0.2294 -0.2790 -0.2153
27363W        W45567  13.225   4.658   1.808  0.1599 -0.0712  0.3345
27364W        W45568  14.631   8.441   2.481 -0.2844  0.0693  0.2822
27365W        W45569   0.489   8.909   0.155 -0.0016 -0.1789  0.1206
27366W        W45570   8.557  15.044   3.748  0.1958 -0.0619 -0.1096
27367W        W45571   3.304  17.518  14.379  0.1123  0.0602 -0.0251
27368W        W45572  13.262  12.344  15.050 -0.0375  0.0860  0.1356
27369W        W45573   7.206   8.961  12.851 -0.1835 -0.1971  0.0029
27370W        W45574  10.388   6.039   2.903 -0.0841  0.0699 -0.0866
27371W        W45575  12.605  11.250  15.263 -0.0767 -0.0401  0.1765
27372W        W45576  14.071   8.940   4.269 -0.0835  0.1907 -0.3087
27373W        W45577  11.639  17.146   2.465 -0.1016 -0.2998 -0.3232
27374W        W45578  11.827   8.753  15.159 -0.0682  0.3324  0.0463
27375W        W45579   1.809   2.138  13.933 -0.0093  0.1977  0.0140
27376W        W45580   2.228   3.598  13.135 -0.1543 -0.4485 -0.1231
27377W        W45581   2.883   6.746  11.019 -0.1404 -0.2700 -0.4119
27378W        W45582   9.505  12.188  13.910 -0.2013  0.1251  0.0742
27379W        W45583  15.577  11.727  12.921 -0.0982  0.2043  0.1552
27380W        W45584   5.076   9.268  12.734 -0.1931 -0.1428  0.3209
27381W        W45585   7.858   9.017  11.888 -0.2143  0.0772 -0.1393
27382W        W45586  11.865   7.855  11.446 -0.4749  0.1768 -0.1175
27383W        W45587  14.206  14.462   2.615 -0.0651  0.0028  0.1036
27384W        W45588  17.801  12.682   4.753 -0.1220  0.0715 -0.0986
27385W        W45589  10.783   2.081   1.188 -0.1212  0.1033 -0.0130
27386W        W45590  14.294  17.891   0.587 -0.0281  0.0591  0.2254
27387W        W45591   5.195  17.569  12.069 -0.1041 -0.1916 -0.3931
27388W        W45592  17.420   2.576  12.391 -0.2031  0.1518  0.2711
27389W        W45593   6.069  11.611  13.185  0.0934  0.0844  0.4996
27390W        W45594  11.187   4.390   0.489 -0.4324  0.3772  0.1902
27391W        W45595  10.478  11.287   0.983 -0.0672  0.1423  0.1761
27392W        W45596  14.219  13.537   4.404  0.0727 -0.4279  0.0780
27393W        W45597  11.171   7.646   2.773  0.0016  0.1985 -0.1534
27394W        W45598   7.319   7.176  12.258  0.1291 -0.0392  0.2158
27395W        W45599   5.449  15.885  14.700  0.1368 -0.0114  0.2665
27396W        W45600   7.625  12.824   1.301 -0.2945  0.0712 -0.1171
27397W        W45601  11.788   6.775  12.034 -0.2186  0.1201 -0.0511
27398W        W45602  14.221   3.237   0.345  0.1249  0.0991  0.1945
27399W        W45603   0.082   0.106  12.591 -0.2111 -0.1455  0.3299
27400W        W45604  14.168   6.571   1.190 -0.2209 -0.0639  0.0016
27401W        W45605  13.279  14.160   1.205 -0.2731 -0.0300 -0.1021
27402W        W45606  13.234   8.084  12.065 -0.1117 -0.0780 -0.1392
27403W        W45607   8.205   1.102   1.997 -0.2821 -0.0210  0.2245
27404W        W45608  15.822   4.318   3.479  0.0054  0.0323 -0.0043
27405W        W45609   7.293  14.645  12.547  0.0720 -0.0090 -0.0005
27406W        W45610  11.896   0.015  13.300  0.1582  0.0016 -0.2029
27407W        W45611   5.300   8.388  13.733 -0.1736  0.4697 -0.0788
27408W        W45612   3.972  17.866  15.348 -0.1350  0.1035  0.1971
27409W        W45613  12.695  13.329   2.727 -0.2052  0.1022 -0.1714
27410W        W45614   7.815   8.847   3.567 -0.0229  0.1444 -0.1438
27411W        W45615  18.115   9.848   2.444 -0.1694 -0.1400 -0.0814
27412W        W45616  13.039  17.650  14.935 -0.1674  0.1277 -0.2115
27413W        W45617   5.393   0.354   3.489  0.1504 -0.0769 -0.0522
27414W        W45618  16.055  14.661  11.510 -0.2890  0.1616 -0.1028
27415W        W45619   6.785  15.686  13.041  0.0676 -0.2372 -0.0535
27416W        W45620  10.840  11.325   4.229  0.2107 -0.0650 -0.0027
27417W        W45621  16.538   5.601   3.197 -0.0695 -0.0400  0.2775
27418W        W45622   1.350   5.608   1.610 -0.1722  0.3880  0.0006
27419W        W45623   9.042   9.172  11.437  0.0464  0.2713 -0.0252
27420W        W45624   9.324   9.937   4.637  0.2931 -0.1262 -0.0992
27421W        W45625  10.999  13.118   3.699 -0.0482  0.1903  0.3080
27422W        W45626  12.558   1.608  13.023 -0.1657  0.0671  0.0520
27423W        W45627   5.463   0.964  11.923 -0.1952  0.2517  0.1524
27424W        W45628   1.868   6.313   1.331  0.1158 -0.0308 -0.0100
27425W        W45629   7.250  18.293   3.024 -0.3775 -0.2069  0.1739
27426W        W45630   9.674  14.050  15.205 -0.1440 -0.0347 -0.0714
27427W        W45631   1.971   7.698   2.858  0.1509 -0.3460 -0.2533
27428W        W45632  16.704  17.931  11.901  0.0588  0.0718  0.0612
27429W        W45633   7.622  12.012   4.375  0.1704  0.0116 -0.1548
27430W        W45634   4.656  18.115  13.670  0.0689 -0.0399  0.3025
27431W        W45635  15.840   0.013   2.962  0.1467  0.0731  0.2394
27432W        W45636  12.700   1.030   4.163  0.0420 -0.0577  0.3106
27433W        W45637   3.366  11.735  15.539  0.2416 -0.0056  0.0877
27434W        W45638   1.795   7.881  14.258  0.0901  0.1370  0.1071
27435W        W45639   7.773   8.391   2.212 -0.2691 -0.2909  0.1195
27436W        W45640   7.706  14.450   4.497 -0.2376  0.0095  0.3560
27437W        W45641   4.562   5.122   3.229 -0.1822 -0.2107 -0.2361
27438W        W45642  17.162   8.033  14.077  0.0271  0.0017 -0.3010
27439W        W45643   9.615   3.742   1.692  0.0968 -0.2030 -0.3254
27440W        W45644   8.747  11.567   1.050 -0.0599 -0.1645 -0.0054
27441W        W45645   2.898   3.703  12.553  0.3371  0.0922 -0.1306
27442W        W45646   8.736   7.860  14.471  0.0798  0.2087  0.0480
27443W        W45647   6.282  14.312  10.260 -0.1088 -0.1689 -0.1899
27444W        W45648  17.638  14.679   3.868  0.0955 -0.1810 -0.1675
27445W        W45649  15.002   8.774   1.060  0.3036  0.0141  0.2083
27446W        W45650  18.024  11.196  14.015  0.0073 -0.5284  0.3472
27447W        W45651  12.273   9.143   3.882  0.0927 -0.0972  0.3915
27448W        W45652   5.797   0.377  11.936 -0.0541 -0.3683 -0.0261
27449W        W45653   6.180   1.596  12.238  0.0650  0.2051  0.0503
27450W        W45654   4.393   4.869  12.038  0.1797  0.4532 -0.0945
27451W        W45655   2.307   7.853  13.389 -0.2665 -0.1018  0.0605
27452W        W45656  10.715   9.213   2.582  0.0319 -0.2378  0.0476
27453W        W45657   9.063   2.115  13.240  0.0536  0.0593  0.0934
27454W        W45658   5.396  10.289  15.639  0.0928 -0.1144  0.4822
27455W        W45659  16.439   7.849  12.720  0.1293 -0.0280  0.0255
27456W        W45660   1.705   2.515   0.991 -0.0183 -0.2790  0.0598
27457W        W45661  10.841  15.822   4.443 -0.1518  0.1614 -0.2980
27458W        W45662   4.987  15.964   1.966  0.0452 -0.1334 -0.3775
27459W        W45663  16.112   1.697  10.740 -0.2110 -0.2019  0.0475
27460W        W45664   7.988  15.179   3.833 -0.1152  0.2355  0.0242
27461W        W45665   4.537   7.267  14.365 -0.3130  0.3711 -0.0434
27462W        W45666   4.806  11.024  11.632 -0.1312 -0.1521 -0.1008
27463W        W45667   8.343   6.519   5.432 -0.0871  0.1210  0.1702
27464W        W45668  13.484  13.686  12.278  0.1117 -0.1189  0.0416
27465W        W45669   7.997   7.783   0.146 -0.0156  0.0161 -0.1465
27466W        W45670   3.880  13.943   1.402 -0.3493 -0.1732  0.0584
27467W        W45671  12.091   6.114   3.629 -0.2196 -0.0861 -0.0247
27468W        W45672  15.170  15.365   2.654  0.0132  0.1338 -0.0308
27469W        W45673  10.760   2.971   1.376 -0.0426 -0.0757 -0.0654
27470W        W45674   5.095  14.422  10.781 -0.0233 -0.2600  0.2240
27471W        W45675   9.375   2.586  14.818 -0.1241  0.2685 -0.2321
27472W        W45676   7.150  17.823   3.175 -0.0740 -0.0735 -0.2248
27473W        W45677  13.459   2.978  14.292 -0.1347  0.1534  0.2048
27474W        W45678  14.438   3.227   0.834  0.1554  0.1472 -0.3037
27475W        W45679   0.350   7.425   0.403  0.0438  0.1152 -0.1553
27476W        W45680   2.286   1.346  13.561  0.1577 -0.2067 -0.0419
27477W        W45681   9.074  17.070  12.543  0.1923 -0.0168 -0.1029
27478W        W45682   6.197   5.100   2.292  0.2356  0.0417  0.0914
27479W        W45683  18.194  12.915  13.793  0.3895  0.0020 -0.1924
27480W        W45684   8.203  11.980  14.653  0.0817  0.1282  0.1545
27481W        W45685  17.165   6.429   3.428  0.0154 -0.2248  0.0178
27482W        W45686   4.639   9.817   4.445 -0.1946 -0.2697 -0.0611
27483W        W45687   6.880  16.794  14.135 -0.2290  0.0572 -0.2021
27484W        W45688  17.045   0.215  12.792  0.0601  0.1237  0.2980
27485W        W45689   7.924  17.199   2.809  0.0854  0.1324  0.0328
27486W        W45690  13.006  13.192  15.690 -0.1775  0.1739  0.1057
27487W        W45691  17.108   9.604  10.686  0.1026 -0.2187  0.0549
27488W        W45692  14.499   9.627   4.428  0.0121 -0.1495  0.1514
27489W        W45693  11.707   4.777   3.415 -0.1039  0.2469  0.0869
27490W        W45694   2.053   9.305  12.210 -0.0735 -0.0351  0.1822
27491W        W45695  16.554   7.334  15.577 -0.0319 -0.0520  0.0719
27492W        W45696   5.864   2.596  15.101 -0.1118 -0.0802 -0.1211
27493W        W45697   1.916   1.621   4.790 -0.1999 -0.0748 -0.3678
27494W        W45698   5.006  18.052  12.196 -0.1755 -0.0883  0.0708
27495W        W45699  17.951  15.391   5.526  0.0329 -0.0328  0.0174
27496W        W45700   2.449   4.697  12.034 -0.0978 -0.2487  0.0565
27497W        W45701  12.187  12.071   1.414  0.1250  0.0970 -0.1678
27498W        W45702  14.604   6.260   3.251 -0.0979 -0.1749 -0.1982
27499W        W45703   4.365  17.644   0.434 -0.0573 -0.1145 -0.2217
27500W        W45704  10.674   3.457   1.813 -0.0871 -0.1218  0.0153
27501W        W45705  16.489  16.596   2.827 -0.1824  0.3775  0.1048
27502W        W45706   4.956   1.640   1.592  0.2476 -0.1455 -0.3539
27503W        W45707   4.849  12.864   1.570  0.2608 -0.0539 -0.3514
27504W        W45708  10.287   8.467   2.664 -0.0118 -0.1470  0.2509
27505W        W45709   0.291   5.452   4.791 -0.0864  0.1178 -0.1062
27506W        W45710   9.330  16.794   1.319  0.2822  0.1203 -0.1613
27507W        W45711   1.913  14.731   0.898 -0.0226  0.0232 -0.3383
27508W        W45712   7.523  18.356  13.113 -0.0493  0.3209 -0.0170
27509W        W45713   5.958   6.970   1.878 -0.1140  0.0361 -0.2289
27510W        W45714   4.812   4.451  13.231 -0.2447  0.0584  0.0254
27511W        W45715   2.532   0.450  13.531  0.1381 -0.0359 -0.3771
27512W        W45716   2.233  12.187  15.317  0.0888  0.0620 -0.3547
27513W        W45717   9.609   1.145  14.439  0.0406 -0.2226 -0.0462
27514W        W45718  11.714  16.370   4.689 -0.2465 -0.0184 -0.0543
27515W        W45719   5.043  12.679  11.737 -0.2479 -0.0913  0.0139
27516W        W45720   0.555   7.554   2.291 -0.5016 -0.0191 -0.0570
27517W        W45721   6.135   8.454   1.155  0.4556  0.0696  0.0701
27518W        W45722   3.995  13.805  15.717 -0.0137  0.1350  0.2374
27519W        W45723   4.100   9.227  14.848 -0.2492  0.0292 -0.1114
27520W        W45724   5.754   6.670  11.057  0.2242  0.1366 -0.0747
27521W        W45725   7.504   4.335  12.127 -0.5742  0.0608  0.1808
27522W        W45726   9.300  12.358  13.121 -0.0225  0.2943 -0.1376
27523W        W45727   6.662   1.845   2.182  0.1511  0.1099  0.1506
27524W        W45728   7.809  17.648  10.772 -0.1686 -0.3724  0.1013
27525W        W45729   2.507   3.601   1.074 -0.1121  0.1506  0.1355
27526W        W45730  11.024   9.964   1.556 -0.1487 -0.2359 -0.3743
27527W        W45731   5.531   4.059  14.013  0.1903 -0.1154  0.0838
27528W        W45732   8.198  12.595  11.508 -0.2402 -0.3333  0.1994
27529W        W45733  12.210   3.362   1.918  0.0261 -0.0138 -0.2553
27530W        W45734  13.567  14.558   2.431 -0.2005 -0.2758  0.2766
27531W        W45735  12.860  17.966  13.592  0.0651 -0.2162 -0.0588
27532W        W45736   4.438  15.963  11.778  0.0006  0.0364  0.3231
27533W        W45737  17.693   1.429  12.235 -0.1537 -0.1055 -0.5564
27534W        W45738  13.130   0.131  11.270 -0.0790 -0.1618 -0.0409
27535W        W45739   1.862   3.505  13.975 -0.0853  0.0300 -0.2266
27536W        W45740  11.465   3.220  11.660 -0.1766  0.0095 -0.0670
27537W        W45741  11.357   6.728   3.196  0.0357  0.1390  0.0469
27538W        W45742  16.703   0.805  11.870  0.0946 -0.1182  0.1886
27539W        W45743   8.536  17.556   3.135 -0.1840 -0.1506  0.0938
27540W        W45744   2.956   1.290  15.569 -0.0029 -0.0576 -0.0603
27541W        W45745  12.710   0.559   0.405 -0.1236  0.2714  0.0257
27542W        W45746   6.529   4.597   1.709 -0.1552 -0.0798 -0.0068
27543W        W45747  17.039  12.972   1.512 -0.0857 -0.2268  0.2712
27544W        W45748   1.391  11.360   3.072 -0.0222  0.0937  0.1365
27545W        W45749   3.772  13.353   4.260  0.0707 -0.0946 -0.1052
27546W        W45750  13.053  14.295  11.209 -0.2652  0.3507  0.1174
27547W        W45751  12.814   9.136  15.352  0.1916  0.0567  0.2306
27548W        W45752   8.144  10.726  12.404 -0.1073 -0.2542  0.1490
27549W        W45753   3.711   2.167   3.030  0.2377 -0.2348  0.0544
27550W        W45754   0.266  13.207   2.748  0.0721 -0.0480  0.0391
27551W        W45755   7.770   6.590   2.249  0.0818 -0.0736  0.1173
27552W        W45756   3.552   2.590   3.437  0.1184  0.1578 -0.2386
27553W        W45757  10.492   0.260   2.889  0.2558 -0.1259 -0.1738
27554W        W45758   7.490  17.419   1.037  0.1543  0.2048  0.1944
27555W        W45759   3.473   4.607  12.735 -0.1712  0.0203 -0.3331
27556W        W45760  14.126  16.838   3.496  0.1433 -0.2658  0.2225
27557W        W45761  11.874   8.542   1.523 -0.2267 -0.0806  0.0181
27558W        W45762  16.149   0.664   1.689  0.1222  0.1516  0.2265
27559W        W45763   7.732   4.649  12.454 -0.0711  0.0424  0.1961
27560W        W45764  14.824  12.068  14.566 -0.0875  0.0422 -0.3916
27561W        W45765  15.506   7.395  15.298 -0.0759  0.1515 -0.2158
27562W        W45766   1.453  14.041  10.987 -0.0931  0.4745 -0.2810
27563W        W45767  11.412   3.055   2.355  0.1541  0.0788 -0.0177
27564W        W45768   2.550  12.025   4.331  0.1994 -0.1899  0.0627
27565W        W45769  14.652  15.256   0.346 -0.0962 -0.0089 -0.2716
27566W        W45770   8.144   1.418   0.071 -0.0865  0.0994  0.0672
27567W        W45771   3.316  10.680   1.424 -0.1943 -0.1172 -0.1016
27568W        W45772   9.433  13.129   0.949  0.1575  0.0829 -0.3251
27569W        W45773   0.777  11.116   1.037  0.0735  0.1008 -0.2681
27570W        W45774  16.308   3.766  11.301 -0.1657 -0.0182 -0.2098
27571W        W45775   6.555   9.620  12.081 -0.2447 -0.1796  0.1999
27572W        W45776   0.918   5.247  12.438 -0.2321 -0.1018 -0.1220
27573W        W45777   5.550  11.506  13.422 -0.3406 -0.1015  0.0813
27574W        W45778   9.650   5.832   0.861  0.0375 -0.1038 -0.1237
27575W        W45779  14.122  14.728  12.560  0.0068 -0.1549  0.0175
27576W        W45780  14.791  15.942  14.599  0.1783 -0.1978  0.0540
27577W        W45781  11.213   5.062   0.375 -0.1010 -0.0573  0.0758
27578W        W45782   6.833   1.645   3.859  0.2779  0.5041  0.1156
27579W        W45783  11.734  11.368   1.749 -0.1150 -0.2177 -0.1588
27580W        W45784   1.767   2.813  11.471  0.1616 -0.1324 -0.0593
27581W        W45785   0.426   0.733  13.907  0.1233  0.2672  0.2262
27582W        W45786   9.980   5.150   1.724 -0.0502 -0.0216 -0.0541
27583W        W45787   4.674  12.584  10.866  0.1480  0.0204  0.2108
27584W        W45788  14.389  13.018  13.007  0.0180 -0.1114  0.0039
27585W        W45789  13.070  11.630  12.539 -0.0368 -0.1733 -0.2373
27586W        W45790  17.304  13.187   1.121  0.1089  0.2576 -0.0860
27587W        W45791  18.234   0.440   1.542 -0.0215  0.0526  0.0917
27588W        W45792   7.806   5.117   1.248 -0.2130 -0.3328 -0.2846
27589W        W45793   0.051   4.332   1.236 -0.1471 -0.0734  0.2669
27590W        W45794  13.054  12.920  12.490  0.2319 -0.0132  0.1219
27591W        W45795  14.008   2.804   0.787  0.1466  0.0704 -0.2391
27592W        W45796  13.401   7.833   2.745  0.2144  0.2810  0.1518
27593W        W45797   8.326   0.473  13.075 -0.0358 -0.1731  0.0895
27594W        W45798   4.446   8.119   4.870 -0.1856 -0.4477  0.0514
27595W        W45799   7.697  14.938   0.686 -0.1056 -0.0577  0.0549
27596W        W45800   1.123  11.418   4.551 -0.0163 -0.0261 -0.1286
27597W        W45801  17.402  17.374   2.214 -0.0297  0.0139  0.1702
27598W        W45802  12.391  10.130  10.406  0.1512  0.0119  0.0542
27599W        W45803  14.307  13.993   3.578 -0.0480  0.1088  0.0743
27600W        W45804  10.788  10.440   4.690 -0.4229 -0.0680 -0.1759
27601W        W45805  10.677   9.250  13.662  0.3396 -0.0075 -0.2135
27602W        W45806   3.616  16.048   4.042  0.1790 -0.3387  0.2539
27603W        W45807  10.185  17.326   2.389  0.1169  0.3420 -0.0334
27604W        W45808   1.702  14.151  14.057  0.1918 -0.2643  0.0182
27605W        W45809  13.584   4.494  13.782 -0.0949  0.1099  0.0338
27606W        W45810  16.951   8.338  13.608  0.1661  0.0528  0.0944
27607W        W45811   9.796   9.506  11.867 -0.2106  0.1046  0.1889
27608W        W45812   4.491   9.476   4.873 -0.0331  0.2200 -0.2171
27609W        W45813   3.437   0.839  12.526  0.0630  0.0143 -0.2120
27610W        W45814  10.020  17.010   3.249  0.1590 -0.2601 -0.1042
27611W        W45815  16.014   0.000  11.256 -0.0701 -0.1600  0.0653
27612W        W45816   0.365  10.877   4.200 -0.2331 -0.1639 -0.1215
27613W        W45817  12.188   9.863  13.837  0.1379  0.0787  0.1089
27614W        W45818   1.960  15.328  13.088  0.3016 -0.1834 -0.2518
27615W        W45819  10.890   1.517   1.985 -0.1236 -0.0052 -0.0109
27616W        W45820   3.266   0.883  15.352  0.3094 -0.0656 -0.0995
27617W        W45821  16.399  12.171  10.516  0.0130 -0.3135  0.2522
27618W        W45822  14.764  11.242  14.625  0.0468  0.0465 -0.2832
27619W        W45823   9.028   2.625  14.491 -0.0586 -0.0187 -0.0037
27620W        W45824   7.510   1.822   4.050 -0.1998  0.1726  0.1077
27621W        W45825   7.965   3.861   4.164  0.0744  0.1592 -0.2858
27622W        W45826  13.368   7.845  15.548 -0.2952 -0.3128  0.1912
27623W        W45827  18.068  12.368   2.711  0.0980  0.1905 -0.2188
27624W        W45828   3.503  10.285   3.386  0.1776 -0.0526  0.1110
27625W        W45829   9.768  16.266  14.558 -0.1079  0.1466  0.0086
27626W        W45830  17.911  12.814   0.256 -0.0580  0.1760  0.1732
27627W        W45831   8.034   8.546  11.687  0.0078 -0.1000  0.1663
27628W        W45832   0.499   8.429  11.936  0.0655 -0.0475 -0.1175
27629W        W45833  10.132  17.085   4.755  0.0968 -0.1652 -0.2120
27630W        W45834   8.914  11.926  13.180  0.1535 -0.3889  0.0597
27631W        W45835   0.099   4.382   4.742 -0.0510 -0.1380 -0.0909
27632W        W45836  11.030   4.783   0.763 -0.0134  0.0183  0.0311
27633W        W45837   9.853   2.546  12.322 -0.0772 -0.0453  0.1065
27634W        W45838   7.160   5.283  11.730  0.5184 -0.3141  0.0300
27635W        W45839  10.893   0.630  12.535  0.1584  0.1617 -0.1856
27636W        W45840  10.481   5.639  14.433 -0.2470 -0.2169  0.0592
27637W        W45841  16.659   9.799   3.462  0.1573 -0.0728 -0.2299
27638W        W45842  16.250   6.061   0.458 -0.1383  0.1907  0.2143
27639W        W45843  11.160   6.862   2.013 -0.3434 -0.2381 -0.3250
27640W        W45844   2.912   4.128   3.263  0.0221  0.0528  0.0691
27641W        W45845   7.009   6.807   2.168  0.2077  0.2892 -0.1330
27642W        W45846  10.489  11.191   4.572  0.0898  0.1204 -0.3065
27643W        W45847   7.841   4.231   1.587  0.1830 -0.4963 -0.0496
27644W        W45848   6.790   3.994  10.755 -0.2734 -0.3148  0.3220
27645W        W45849  17.522   4.520   1.562 -0.0117 -0.0835 -0.1365
27646W        W45850   5.077   5.231   0.524 -0.3777  0.0723  0.0623
27647W        W45851   2.316  14.207  11.360 -0.0316 -0.0059 -0.1513
27648W        W45852   7.441   1.896  15.247 -0.1558 -0.1489  0.2700
27649W        W45853   0.529   6.614   1.580  0.0788 -0.0854 -0.1886
27650W        W45854  14.648  12.369  15.066 -0.1030 -0.3012  0.3628
27651W        W45855  16.542   2.663   4.262  0.0717 -0.1261  0.2326
27652W        W45856   2.248   0.055   2.597 -0.1538 -0.0463  0.2099
27653W        W45857   5.712   6.942   3.094 -0.2426  0.2035 -0.1763
27654W        W45858  17.822   9.570   3.489 -0.3783 -0.2658  0.0382
27655W        W45859   5.279   8.751   3.975  0.2731 -0.0255 -0.2082
27656W        W45860  13.530   4.135  13.456 -0.1267  0.2185  0.1875
27657W        W45861   6.636   4.348   0.567 -0.2584 -0.1429 -0.0079
27658W        W45862   1.899   4.952   1.845 -0.0306 -0.2056  0.1158
27659W        W45863   5.037   5.175  13.789  0.2147  0.1171 -0.2221
27660W        W45864   2.982   2.402   0.567 -0.3910  0.3790  0.2211
27661W        W45865  11.685   9.603   2.158  0.0891 -0.0642  0.1161
27662W        W45866   9.850  17.574   5.080  0.0332  0.0207 -0.1409
27663W        W45867   0.421  12.462   3.196  0.1582  0.0405  0.0050
27664W        W45868   5.298   8.622   0.935  0.0013 -0.1406 -0.0192
27665W        W45869  13.576   2.285   1.376 -0.2019  0.2176  0.0362
27666W        W45870   3.764   4.022   2.965  0.2865  0.3025 -0.1313
27667W        W45871  16.518  10.757   3.905  0.1968  0.0052 -0.0993
27668W        W45872  11.777   0.313  10.077  0.0978  0.1231 -0.0746
27669W        W45873   6.668  11.107   1.209  0.1916  0.2113 -0.0846
27670W        W45874  14.084  10.177   0.408  0.2267  0.3156 -0.3403
27671W        W45875   8.108  17.601  15.102 -0.2202 -0.1041  0.0024
27672W        W45876  13.243  15.577   5.224 -0.0453 -0.2387  0.0383
27673W        W45877  13.389  13.883   2.663  0.1044  0.1429 -0.0553
27674W        W45878   8.829  13.176  12.315  0.0603  0.1128 -0.3580
27675W        W45879   3.074   2.911   1.364  0.3553 -0.1733 -0.2743
27676W        W45880   7.410  12.075   3.324  0.1073 -0.2022 -0.1086
27677W        W45881   5.759  16.603  15.216  0.2432 -0.1128 -0.0619
27678W        W45882   9.486  10.266  15.571 -0.0005 -0.0986 -0.2031
27679W        W45883   3.196  14.100   3.708 -0.2979 -0.0848 -0.1218
27680W        W45884   0.074   4.275  14.800 -0.2177 -0.0483 -0.0399
27681W        W45885  13.559   3.181  11.075  0.0587 -0.2639 -0.1792
27682W        W45886  16.124  17.090   2.937  0.3828  0.1822  0.1747
27683W        W45887  10.753   2.234  11.884  0.2703  0.0049  0.2158
27684W        W45888  16.528   4.565   2.321 -0.3570  0.1579 -0.0882
27685W        W45889   5.388   8.496   5.546  0.2741  0.2597  0.0953
27686W        W45890  14.566   8.852   1.333 -0.0710  0.0492  0.1031
27687W        W45891   9.329  17.629   4.350  0.0474  0.0370  0.0398
27688W        W45892   1.555   5.942  12.708  0.0474  0.1351 -0.1992
27689W        W45893   4.461   2.286   2.213 -0.1243  0.0427  0.1254
27690W        W45894  10.689  16.901  14.914 -0.3758  0.1589 -0.3065
27691W        W45895   3.466  14.910   2.089  0.0209  0.1276 -0.2925
27692W        W45896   6.801   9.433  15.550 -0.2351 -0.1339 -0.2703
27693W        W45897   7.703  14.794  11.360  0.1403 -0.0612  0.1326
27694W        W45898   1.008  15.553   0.513  0.0201 -0.2265  0.1261
27695W        W45899  16.367  12.243  13.291  0.0355 -0.3236  0.1380
27696W        W45900   4.723   8.272   9.953  0.0380  0.0681  0.0768
27697W        W45901  16.819   5.790   4.481 -0.2861 -0.2477 -0.2066
27698W        W45902   2.062   5.893  14.493  0.0275  0.0016 -0.0637
27699W        W45903   2.918   0.257   2.998 -0.0469  0.1237 -0.0633
27700W        W45904   2.354   0.359  12.450  0.2628 -0.2521  0.0397
27701W        W45905  13.790   4.773   2.988 -0.1879  0.0561 -0.1617
27702W        W45906   5.988  11.311   0.963  0.2192  0.3755 -0.4952
27703W        W45907   9.045   0.875  12.596 -0.0779 -0.3416  0.3188
27704W        W45908  14.733  17.207   1.837 -0.2716 -0.1826 -0.0623
27705W        W45909  16.972   7.487   2.906  0.1704  0.0210 -0.2498
27706W        W45910   9.217   2.813   0.527 -0.0144 -0.1100 -0.0597
27707W        W45911   2.718  11.467   2.624 -0.3194  0.1094  0.0078
27708W        W45912   2.743   6.566  13.657 -0.0925  0.2338  0.3194
27709W        W45913   1.150   4.490  14.052 -0.2803 -0.0591 -0.1146
27710W        W45914  16.933   8.492  12.389 -0.1569  0.0011 -0.0230
27711W        W45915   2.675   3.300   4.857  0.0278 -0.1873  0.1112
27712W        W45916  11.879   8.649  12.142 -0.0814 -0.1860 -0.2246
27713W        W45917  11.077  12.795   3.261  0.3110  0.1141 -0.1401
27714W        W45918   1.490   8.736   4.320 -0.0035 -0.0567  0.2502
27715W        W45919   1.914   3.078   2.054  0.3878 -0.1847 -0.0447
27716W        W45920  17.036  10.000  10.454 -0.1510 -0.3737  0.0121
27717W        W45921  12.032   2.588  11.434  0.2461 -0.2403 -0.0380
27718W        W45922  15.286   8.254   5.274  0.0935  0.0344  0.2054
27719W        W45923   4.785  13.072  12.071 -0.1775 -0.1330 -0.0739
27720W        W45924  13.253   7.029  13.528 -0.0281  0.3342 -0.0181
27721W        W45925  16.260   1.730   0.086 -0.3277  0.1025 -0.3350
27722W        W45926   6.450  11.895   1.626 -0.1910 -0.0960  0.0107
27723W        W45927  17.478  16.256  13.741 -0.2655 -0.1687  0.1521
27724W        W45928  16.249  14.055   4.274 -0.2285 -0.0759 -0.0961
27725W        W45929   1.374  11.049   2.677 -0.2634  0.4184  0.2178
27726W        W45930   4.990  10.475   2.276 -0.1796  0.1032  0.0245
27727W        W45931   7.032   6.645  15.433 -0.1572 -0.3974 -0.1593
27728W        W45932   9.779   6.278   0.759  0.1678  0.1974 -0.0147
27729W        W45933   8.490  13.945   4.513  0.1155 -0.1210  0.3184
27730W        W45934  12.518  14.794   1.767 -0.0336  0.1398  0.1860
27731W        W45935   5.613  18.364  15.044  0.3388  0.0474  0.1483
27732W        W45936  13.808  10.488  13.521  0.2085  0.1592 -0.0317
27733W        W45937  10.642   2.488   2.820  0.0653  0.2477  0.1655
27734W        W45938   6.258  15.822  11.749 -0.0112  0.2383 -0.0466
27735W        W45939  16.856   7.533   0.180 -0.0322  0.1217  0.3118
27736W        W45940   2.675   3.920   0.743 -0.0390 -0.0170 -0.2055
27737W        W45941   9.267   8.491  12.090  0.0559 -0.1751 -0.1278
27738W        W45942  11.903   5.604  14.991 -0.2677 -0.3463  0.3629
27739W        W45943   8.406  12.277  15.375 -0.0939 -0.2540  0.3148
27740W        W45944   8.090   8.229   1.228  0.1183 -0.2872 -0.0424
27741W        W45945   5.693   3.772  14.653 -0.2738  0.1553 -0.2131
27742W        W45946  15.267   4.191   2.376  0.0280  0.1827 -0.1179
27743W        W45947   5.398   1.492  12.081  0.4715 -0.3611  0.0020
27744W        W45948  15.024   7.530   1.393 -0.1995  0.0936 -0.1766
27745W        W45949   0.734  16.726   0.247 -0.1920 -0.5547 -0.1619
27746W        W45950  12.120  11.693  14.164  0.1447  0.1009 -0.0114
27747W        W45951  15.309   8.334  15.142  0.3863 -0.0819 -0.2969
27748W        W45952   5.378  16.043   0.047 -0.1719 -0.2680  0.3856
27749W        W45953  14.024  16.536  12.159 -0.4115 -0.0583  0.0224
27750W        W45954   8.647  15.929   1.575  0.1823  0.0379  0.0950
27751W        W45955  12.205  16.116  15.267  0.1674  0.2055  0.2343
27752W        W45956  15.545   9.617  13.704  0.0614  0.0140 -0.1764
27753W        W45957   0.607  14.956   4.338 -0.1890 -0.3862  0.0714
27754W        W45958   0.688   5.063   0.845  0.1610  0.0074  0.0824
27755W        W45959   6.299   4.929  15.107  0.1004 -0.1423  0.1364
27756W        W45960  12.276  14.473   3.625 -0.1119 -0.0141  0.1143
27757W        W45961   5.257   2.883  11.650 -0.2588 -0.0392  0.3154
27758W        W45962   6.186  10.537  13.388 -0.2572 -0.1014 -0.2059
27759W        W45963  14.332   7.117  12.218  0.1896  0.0289  0.5858
27760W        W45964  14.507  16.890   2.172  0.1479 -0.1439  0.0955
27761W        W45965   8.372   2.528  12.866  0.0048 -0.0277 -0.1955
27762W        W45966   4.998  18.329  11.500 -0.1018 -0.0616 -0.0493
27763W        W45967   3.621   2.874   3.845 -0.2335 -0.0436 -0.1358
27764W        W45968  15.497  18.256   0.170 -0.1253 -0.2463 -0.0658
27765W        W45969  15.821  12.060   3.276  0.0342  0.2335 -0.0875
27766W        W45970   8.023  12.186  13.818 -0.2154  0.0295  0.2490
27767W        W45971   0.040   2.226   3.165  0.1390  0.1724  0.0590
27768W        W45972  14.149   0.351   4.566 -0.0696  0.2143  0.2458
27769W        W45973   5.296  11.882   3.206  0.0495 -0.0505 -0.0474
27770W        W45974  11.444  13.180  11.809 -0.1341 -0.1767 -0.2401
27771W        W45975   8.986   8.804  11.753 -0.1613  0.2751 -0.0425
27772W        W45976   5.912  14.250  13.477  0.1970  0.3346  0.5385
27773W        W45977  12.444   7.287   3.456  0.1353  0.0445 -0.0585
27774W        W45978   7.288   2.491   2.504  0.1774 -0.0214 -0.0678
27775W        W45979   7.925  13.784   1.242 -0.0862 -0.0442 -0.2497
27776W        W45980  14.147  12.448  11.533 -0.1112 -0.2804  0.3468
27777W        W45981   5.248   4.407  12.111  0.0288 -0.2884 -0.0016
27778W        W45982  15.064  16.920   1.035  0.0067  0.1368 -0.0607
27779W        W45983   6.394  15.363  15.005  0.2357 -0.0001  0.1184
27780W        W45984   8.900   7.482   4.898  0.0590  0.0487 -0.0753
27781W        W45985  17.727  12.351  10.576  0.1010 -0.0703 -0.2699
27782W        W45986   9.259   0.139  14.885  0.3994  0.0812  0.2323
27783W        W45987   4.397   6.170   0.580  0.0668  0.1398 -0.0641
27784W        W45988   0.090   4.931   3.065 -0.1469 -0.0455 -0.1668
27785W        W45989  11.019  11.522  12.676  0.0952 -0.1346 -0.1767
27786W        W45990   2.896  11.603  15.680 -0.3066  0.1491  0.2975
27787W        W45991   9.950  16.785  11.509  0.1527 -0.1702 -0.2420
27788W        W45992   4.819   4.881  14.843 -0.0074  0.0225  0.1166
27789W        W45993  13.309  11.351   2.348  0.1910 -0.0539 -0.0160
27790W        W45994  10.011   5.638   4.314  0.2009  0.0429 -0.0035
27791W        W45995   2.342  16.647  15.549 -0.4839 -0.0440 -0.2242
27792W        W45996  15.465  17.427  15.642 -0.2140  0.0503  0.3096
27793W        W45997  11.993   5.435   2.923  0.2122  0.0621  0.3814
27794W        W45998  14.519   9.160   4.486  0.3300 -0.0919 -0.0117
27795W        W45999  11.975   9.741   2.572  0.1619  0.3927  0.0130
27796W        W46000   7.333   4.520   2.115  0.0502 -0.1455 -0.1078
27797W        W46001   8.018   5.827   4.700  0.0619  0.0415  0.0774
27798W        W46002   8.051   5.876  13.493 -0.0982  0.1804  0.1154
27799W        W46003   5.581  10.904  12.288  0.0897  0.2064 -0.0897
27800W        W46004  12.630   2.323   3.667 -0.1115  0.1095  0.2415
27801W        W46005   0.590  10.744  15.644 -0.0246 -0.2337  0.2450
27802W        W46006   7.216   4.004  11.894  0.1103  0.2974 -0.1646
27803W        W46007  13.575   7.864  12.461 -0.0002  0.2089 -0.0860
27804W        W46008  14.853  15.731   2.336  0.1578  0.2785  0.0955
27805W        W46009  12.690  18.095  15.516  0.2835  0.1818 -0.0057
27806W        W46010   2.518  16.374  13.547 -0.0489 -0.3740  0.1706
27807W        W46011  10.703  15.384  14.917 -0.0828 -0.2611  0.2916
27808W        W46012   2.848  13.813  13.428  0.2241 -0.0144 -0.0298
27809W        W46013   9.229   5.717  11.780 -0.0326 -0.3942  0.1676
27810W        W46014  16.025   5.807   4.918  0.0799 -0.0796 -0.0850
27811W        W46015   6.976   1.534  12.259  0.1056  0.1146 -0.1372
27812W        W46016   7.655   9.094  10.572  0.0261 -0.2250  0.0680
27813W        W46017   9.481   5.474   0.464 -0.0867 -0.1521  0.1928
27814W        W46018   9.310  13.346  13.211 -0.0654  0.4052  0.0750
27815W        W46019  15.583  14.391  11.327  0.0699  0.1972 -0.0903
27816W        W46020  15.448   0.206  11.527 -0.0452  0.1290  0.2518
27817W        W46021  10.712   7.492   5.100 -0.3708 -0.0380  0.2949
27818W        W46022   4.346  14.317  12.283  0.2547  0.0793  0.1290
27819W        W46023   5.417   6.147   4.718 -0.1067 -0.2169  0.2838
27820W        W46024   3.721   9.697  12.569  0.0479 -0.2073 -0.1224
27821W        W46025  17.409  10.900  12.485 -0.1611 -0.1347 -0.1730
27822W        W46026   3.556  13.823  11.729 -0.0176 -0.0050 -0.0650
27823W        W46027  14.927  17.065  14.344 -0.1463 -0.2667 -0.0006
27824W        W46028  15.761   5.711   4.173 -0.1536  0.0145  0.0379
27825W        W46029   7.701  15.643  14.172  0.0292  0.4742  0.2004
27826W        W46030   0.980  16.284  14.197 -0.1289 -0.0407 -0.2522
27827W        W46031  14.738   2.186  15.390  0.1913 -0.0611 -0.1017
27828W        W46032   3.947   5.659  15.688 -0.0522  0.2181  0.3219
27829W        W46033   7.031  17.462  11.375  0.3322  0.0972 -0.1269
27830W        W46034  13.006   7.208   0.872 -0.0891 -0.1298  0.2976
27831W        W46035  13.574   9.554  14.033 -0.0242 -0.3700  0.0760
27832W        W46036  12.310  16.667  12.176  0.2189 -0.2369 -0.2940
27833W        W46037  17.114   2.651  11.179 -0.0069 -0.2999  0.0534
27834W        W46038   9.987  11.481  12.528 -0.2745 -0.0072 -0.1695
27835W        W46039   7.878   6.952   1.687  0.0166  0.0734  0.1221
27836W        W46040   4.324  14.486   4.706 -0.2435  0.1822 -0.1088
27837W        W46041   8.242  15.726   4.610 -0.2341  0.0011 -0.1213
27838W        W46042   8.538   6.175  12.734 -0.0914  0.0056 -0.0153
27839W        W46043   6.444  12.918   1.697  0.1194 -0.0333  0.4562
27840W        W46044  12.236  16.987  12.615  0.1264 -0.1150  0.2578
27841W        W46045  16.349   2.757  13.273  0.1398 -0.1164  0.2512
27842W        W46046  16.641  13.189  13.564  0.2645 -0.0753 -0.1519
27843W        W46047   8.510   6.837   3.252  0.0945 -0.0126  0.1636
27844W        W46048   9.715   4.740   3.322 -0.3585  0.0638  0.1942
27845W        W46049  12.440   5.043   0.677 -0.0412 -0.1971  0.0517
27846W        W46050   6.821  16.106  13.450  0.2298 -0.2302  0.1773
27847W        W46051   4.037   5.797   3.982  0.0789 -0.1606  0.2352
27848W        W46052  11.106  16.524  14.865  0.0285  0.0065 -0.0114
27849W        W46053   4.141  17.727  10.696 -0.1115  0.0432 -0.2189
27850W        W46054   0.169   1.672  12.202  0.1356  0.1994  0.2238
27851W        W46055   5.924  10.316  14.357  0.1731 -0.1053 -0.1101
27852W        W46056  17.968   9.719   1.881  0.3083  0.1544 -0.1535
27853W        W46057  12.436   0.838   0.707  0.1192  0.1674 -0.1580
27854W        W46058  17.957   9.636  11.019 -0.4814 -0.1300 -0.0588
27855W        W46059   4.519   0.526  11.072  0.1301 -0.1035  0.1081
27856W        W46060  18.239   5.351   1.285 -0.0368 -0.2019  0.1245
27857W        W46061  13.274  14.264  14.824 -0.1344  0.1119  0.0256
27858W        W46062  18.135   3.190  11.004  0.1757  0.2182  0.1622
27859W        W46063   1.618  11.655   0.058 -0.2851  0.1480 -0.0677
27860W        W46064   1.340   2.352   0.076  0.1368 -0.0221  0.1316
27861W        W46065  10.424   9.572  13.256 -0.0006 -0.1828 -0.0567
27862W        W46066   4.356   0.332  12.724  0.1047 -0.0908 -0.0244
27863W        W46067  10.728   6.855  12.214 -0.3428 -0.0378  0.2125
27864W        W46068   5.981   1.447   5.696  0.0790  0.1736  0.1981
27865W        W46069  15.134  11.097  12.196 -0.4010 -0.1439 -0.3372
27866W        W46070  17.355   7.832   2.667  0.0256  0.1035 -0.0907
27867W        W46071   6.558  16.703  14.559 -0.0282 -0.2233 -0.1463
27868W        W46072   5.906   0.881  11.803 -0.3031 -0.1293  0.0132
27869W        W46073   9.994  18.373   4.519  0.2513  0.0993  0.2774
27870W        W46074   3.171  17.128   0.349 -0.2272 -0.0713  0.3710
27871W        W46075  10.366  15.705  13.505  0.0536  0.0914  0.4607
27872W        W46076  11.254  16.442  15.382 -0.0218  0.0848 -0.1381
27873W        W46077  16.819  13.915   3.484  0.0804  0.0582 -0.1115
27874W        W46078  15.522  18.179  13.078  0.8531  0.4279  0.0736
27875W        W46079   4.370   0.889   1.495 -0.0812 -0.0780  0.0681
27876W        W46080   4.009  12.897   4.242  0.2774 -0.2082  0.2252
27877W        W46081   4.444  18.142  15.388  0.0204 -0.4012 -0.2915
27878W        W46082  11.109   5.407   4.651  0.0638 -0.2044 -0.0882
27879W        W46083  12.676   2.772  13.177 -0.3492  0.2456  0.0287
27880W        W46084  15.624   0.394   0.176  0.0441  0.1095  0.0561
27881W        W46085   8.096   2.518   4.577 -0.0763 -0.1768  0.0707
27882W        W46086   7.819   2.394   2.669  0.0243  0.0059  0.0488
27883W        W46087   8.951  14.957  12.477 -0.0054 -0.0361 -0.0902
27884W        W46088   8.296   7.751   3.616 -0.0426 -0.1419  0.0094
27885W        W46089   8.533   5.991  13.471  0.0254 -0.1589  0.1815
27886W        W46090  12.918   7.240   1.729 -0.0553 -0.2060  0.2884
27887W        W46091  15.449   0.438   4.322  0.0701  0.1267  0.0826
27888W        W46092  10.061  13.238  15.372  0.1200 -0.0371 -0.3119
27889W        W46093  15.352  13.187   1.128  0.2276 -0.0524 -0.3152
27890W        W46094  10.400  16.225   3.133 -0.2400  0.1485 -0.0288
27891W        W46095   0.887  10.717   5.582  0.0430 -0.2248 -0.1445
27892W        W46096  13.909  12.686  11.938 -0.3819 -0.4545 -0.1825
27893W        W46097  17.819   3.727  14.260 -0.2652 -0.1140  0.0064
27894W        W46098  12.345   8.077  15.602  0.0308  0.1985 -0.1093
27895W        W46099  17.826   0.953   2.771 -0.0732  0.3173  0.3413
27896W        W46100  11.795   1.861  14.837  0.0626 -0.1542  0.3188
27897W        W46101  13.704   7.761   1.426  0.0408  0.0535 -0.1003
27898W        W46102   7.130  16.050  13.037  0.0167  0.3459 -0.1718
27899W        W46103   7.498  17.802  14.873 -0.1762 -0.2274  0.0511
27900W        W46104  18.360  12.678   5.486  0.0922 -0.1995  0.1976
27901W        W46105   8.446  12.120   3.243 -0.0046 -0.0035 -0.0480
27902W        W46106  11.098   4.091  13.292  0.0519  0.1014  0.0320
27903W        W46107  11.135   4.932   2.734 -0.0223 -0.0142 -0.0828
27904W        W46108  12.150  11.393   5.374  0.3734 -0.0664  0.3847
27905W        W46109  13.637  11.477   2.989  0.0864  0.0015  0.1971
27906W        W46110  17.834   1.190   4.924 -0.1853 -0.0933  0.0162
27907W        W46111  14.913  12.825   1.205 -0.3266  0.1307 -0.4005
27908W        W46112   6.889   0.859   0.341  0.0020  0.0652 -0.0088
27909W        W46113   3.465   6.410   2.607  0.0467 -0.0124  0.0919
27910W        W46114   4.325   2.533  13.912  0.1286 -0.1767  0.1572
27911W        W46115   5.911   9.532  12.477 -0.2162  0.1556 -0.1473
27912W        W46116   1.748  13.644  14.216  0.2809  0.1678 -0.2621
27913W        W46117  11.422  17.406  12.277 -0.2801  0.0761 -0.0681
27914W        W46118   9.206  18.264   3.163  0.0978  0.0201 -0.0360
27915W        W46119   6.978   1.879   0.211  0.2493 -0.1755 -0.1068
27916W        W46120   3.072  10.054  15.691 -0.2290  0.2733  0.0980
27917W        W46121  16.874  17.037  12.347 -0.0641 -0.1504 -0.0725
27918W        W46122   3.949   2.218  12.579 -0.2222 -0.1832 -0.0124
27919W        W46123  10.165   1.197   0.795 -0.0735 -0.2008  0.2750
27920W        W46124  14.124   7.116   1.089  0.1602  0.1282  0.1463
27921W        W46125  10.193  13.767  13.554 -0.2798 -0.1436  0.0481
27922W        W46126  15.371   3.427  10.759 -0.0264  0.0898  0.1494
27923W        W46127   2.296   2.918  12.558  0.0486 -0.2190  0.1632
27924W        W46128   0.358   3.636  10.231 -0.1127  0.2298  0.0122
27925W        W46129   4.416  14.161   0.312  0.1433  0.0359  0.0041
27926W        W46130   1.920   2.732  13.396 -0.0137 -0.1533 -0.0347
27927W        W46131   9.591  15.375  14.178 -0.0673 -0.2539 -0.3646
27928W        W46132  16.902   2.752   4.663  0.1467 -0.0337 -0.0722
27929W        W46133   7.291  10.606   0.810 -0.3882 -0.2868  0.2075
27930W        W46134   7.504   5.369   0.929 -0.0218  0.3351 -0.1124
27931W        W46135   6.344   9.167  12.718  0.1061  0.1736 -0.2395
27932W        W46136  14.302  13.581   1.407 -0.1674 -0.1588  0.0885
27933W        W46137   6.820  14.729   2.860  0.1588 -0.0975 -0.0369
27934W        W46138   1.432   1.346   0.458  0.0047 -0.0810 -0.2412
27935W        W46139  17.716  16.656  14.276  0.0987  0.0151 -0.1385
27936W        W46140   8.740  14.281  10.119 -0.1321  0.1495  0.1370
27937W        W46141   8.627  10.576  12.102  0.1648  0.3841  0.1506
27938W        W46142   7.742  14.476   9.922  0.1264 -0.1778  0.2848
27939W        W46143  13.605  13.441  13.121  0.2078  0.1381 -0.1081
27940W        W46144   4.340   2.007   4.500  0.4330  0.3932  0.2410
27941W        W46145   1.654   5.727  13.231  0.3179  0.1496  0.0288
27942W        W46146   6.543   4.988   2.650  0.0283  0.1154 -0.1744
27943W        W46147  15.524   0.370   2.826  0.1059  0.0290  0.0058
27944W        W46148   6.887   4.120  13.696 -0.2736  0.0371  0.1354
27945W        W46149  15.320   5.949  14.170 -0.0068  0.1887 -0.1196
27946W        W46150   2.452   1.760  10.994  0.1028 -0.2060 -0.2324
27947W        W46151  11.005  11.607  15.121 -0.0122 -0.0676  0.0309
27948W        W46152   2.971  11.867  12.235 -0.0940 -0.0575  0.0454
27949W        W46153   2.006   9.496   0.547  0.0283  0.2723 -0.2757
27950W        W46154  10.856   5.799  12.278  0.1834 -0.1782  0.0151
27951W        W46155   1.155   1.134  12.575 -0.1261  0.2981 -0.2878
27952W        W46156  15.625  18.105  15.340 -0.1825  0.1328 -0.3054
27953W        W46157  10.722  14.504   4.909 -0.1222 -0.0214  0.0552
27954W        W46158   8.777  12.946  14.965 -0.1315  0.3308  0.1365
27955W        W46159   2.724   3.455  14.853  0.1214 -0.4824  0.0924
27956W        W46160   6.922  16.636   3.995 -0.0676  0.0701 -0.1127
27957W        W46161  13.989   9.830  12.130 -0.0602  0.1485 -0.1355
27958W        W46162   2.443  17.036   1.671  0.1394 -0.1529  0.0022
27959W        W46163   2.031   4.155  13.031 -0.0912 -0.0226  0.3248
27960W        W46164  14.949  16.241  12.453 -0.0657  0.0359  0.0860
27961W        W46165  13.488  10.660  13.139 -0.0413  0.1906  0.0681
27962W        W46166  13.935   9.788   2.227  0.1565  0.1206  0.0147
27963W        W46167   1.735   3.210  14.919  0.0426  0.0288 -0.0904
27964W        W46168   0.024   5.593  14.815 -0.0939 -0.0309 -0.0936
27965W        W46169  12.569  13.162  14.631 -0.3034 -0.0844  0.1475
27966W        W46170  14.038   4.617  11.678  0.1629  0.0805  0.1543
27967W        W46171   7.842   5.445   3.478  0.0061 -0.1710 -0.1261
27968W        W46172   7.736  14.830   4.185 -0.0691  0.0663  0.4705
27969W        W46173   8.594  18.005  14.643  0.1332  0.0275 -0.2038
27970W        W46174   1.376  11.544   0.724  0.1053 -0.0431  0.4587
27971W        W46175   8.818  12.428  15.096  0.0610  0.0989 -0.0625
27972W        W46176  10.669   1.970   1.916 -0.0752 -0.0634 -0.3216
27973W        W46177  18.347  16.547   2.983 -0.1399 -0.2063  0.0514
27974W        W46178   0.333   3.183  11.202  0.1399  0.0136  0.1157
27975W        W46179  16.447  17.288  12.646 -0.1986 -0.0788  0.1235
27976W        W46180   8.840   7.127   3.058  0.0509  0.1881  0.0288
27977W        W46181  13.434   9.656   3.169  0.1549  0.1667 -0.2308
27978W        W46182  17.308  14.787  11.518  0.0283 -0.0727 -0.2622
27979W        W46183  15.156   0.182   1.099 -0.2889  0.2235 -0.0474
27980W        W46184   5.937   7.507   2.775 -0.0250 -0.0306  0.2446
27981W        W46185   3.653   3.484   1.051 -0.3954  0.1462  0.0009
27982W        W46186   4.940  17.585  11.208 -0.2214 -0.2359  0.2541
27983W        W46187   5.419  15.845   2.295  0.1440 -0.0189  0.0058
27984W        W46188   2.178   3.188   1.609 -0.1560  0.3941 -0.0880
27985W        W46189   9.812   6.962  14.103 -0.2064  0.0497 -0.0726
27986W        W46190  11.461   6.060   0.245  0.3625 -0.0370 -0.0140
27987W        W46191   6.762   4.464  15.032  0.2835 -0.4490 -0.4995
27988W        W46192   4.771   8.882   3.812  0.0008  0.0890  0.0908
27989W        W46193  11.547  11.191  13.618  0.2244  0.1472 -0.2135
27990W        W46194  17.486   6.357  12.725  0.1286  0.1567  0.1073
27991W        W46195  17.231  10.390   5.634  0.0977  0.1003 -0.0772
27992W        W46196  17.719  16.924  13.188 -0.2867  0.0974 -0.0372
27993W        W46197   2.581  10.482   3.866 -0.2290  0.0256 -0.1350
27994W        W46198   8.842  17.453   2.301  0.0147  0.0433 -0.0074
27995W        W46199   6.383   1.469   2.361  0.1896  0.4684 -0.0394
27996W        W46200  10.659  10.244  14.365 -0.0316  0.0420  0.0715
27997W        W46201  12.600   3.668   0.263  0.0014 -0.0125  0.1303
27998W        W46202  14.965  11.276   2.874  0.4135  0.1410  0.2533
27999W        W46203   3.927  12.070   1.799 -0.3880  0.0624  0.1098
28000W        W46204  18.224  16.295  12.576 -0.0741  0.1027  0.0507
28001W        W46205   2.013  13.416  13.345  0.0596  0.0669 -0.0343
28002W        W46206   9.362  11.438   2.325 -0.2706  0.0288  0.2550
28003W        W46207   6.836  12.778   3.115 -0.1031  0.2060  0.2106
28004W        W46208   3.670  10.782   1.016  0.4205  0.0113 -0.0972
28005W        W46209   7.140   5.733   5.204  0.0335 -0.0573  0.1727
28006W        W46210   9.989   4.892   4.334  0.0802  0.1613 -0.2795
28007W        W46211  12.641   3.451  10.672 -0.1502  0.0669 -0.0578
28008W        W46212   5.748  14.818  15.214  0.1550  0.1742  0.0665
28009W        W46213   9.363   7.318   4.311 -0.0419  0.2565 -0.0394
28010W        W46214   2.497   7.190  15.238  0.1044 -0.1476  0.2223
28011W        W46215   2.463   4.421  11.615  0.2335 -0.1493 -0.0343
28012W        W46216   9.646  10.151   4.190  0.3175  0.2049 -0.1167
28013W        W46217  15.642   6.979  11.729 -0.1590 -0.4771 -0.0473
28014W        W46218   9.004  14.443  15.482  0.1783 -0.2171  0.1239
28015W        W46219   1.596   9.284   2.826 -0.0675  0.0519 -0.2286
28016W        W46220  10.278  13.736  14.540  0.0628  0.0922 -0.0887
28017W        W46221   5.004  11.260  13.437 -0.0512  0.1397 -0.2616
28018W        W46222  10.624   3.191  12.245  0.4535 -0.1347  0.1057
28019W        W46223   9.810  15.174  15.189  0.2101  0.0903 -0.1429
28020W        W46224   3.506   3.746  15.180 -0.4185  0.2570 -0.0501
28021W        W46225   5.627  13.043   3.473 -0.0090 -0.0495  0.0767
28022W        W46226  16.701  15.087  12.894 -0.0127  0.0407  0.1935
28023W        W46227   2.346   8.606  13.361 -0.0767  0.0602 -0.0204
28024W        W46228   2.848   7.935  12.904  0.1274 -0.3621  0.1421
28025W        W46229   3.800  12.269  15.646  0.0950  0.1559 -0.0305
28026W        W46230  15.954   9.346  13.551 -0.2717 -0.1033 -0.1918
28027W        W46231   3.884   5.838   3.325 -0.2822  0.0800  0.2948
28028W        W46232   5.394   8.281  13.143 -0.1930  0.0082  0.1025
28029W        W46233   3.096  11.900   3.705 -0.0763 -0.1889  0.3972
28030W        W46234   5.815  13.181  10.887 -0.3058  0.0608 -0.4020
28031W        W46235   5.900  12.913  13.958  0.1087 -0.0726 -0.0158
28032W        W46236   1.156   1.591  15.376  0.0102 -0.0816  0.0777
28033W        W46237  18.231  16.550   4.937  0.1348 -0.0165 -0.1315
28034W        W46238  13.440   4.002   0.491  0.2311  0.0451  0.1290
28035W        W46239   4.589   8.871  14.875 -0.3040 -0.2802 -0.0480
28036W        W46240   9.004   8.815  15.709 -0.0918 -0.2033  0.1728
28037W        W46241  11.978   5.944   3.150  0.1296  0.1043  0.0942
28038W        W46242  14.273   0.921  11.947 -0.4182  0.1483  0.1972
28039W        W46243   9.915  11.183   3.955 -0.1371  0.1219 -0.0501
28040W        W46244   2.653   9.463   0.516  0.0047  0.2075  0.0170
28041W        W46245   3.681   2.340  15.545  0.0821  0.1448  0.1368
28042W        W46246  16.602  10.507   2.074 -0.0625  0.2610  0.0520
28043W        W46247   4.605   1.553  10.705 -0.4921 -0.3662  0.0395
28044W        W46248  11.091  11.434  13.991 -0.2699 -0.0733  0.1067
28045W        W46249   7.752   4.548   2.606  0.0366  0.0803  0.0555
28046W        W46250  12.456   9.607  12.001  0.1589  0.2815 -0.0940
28047W        W46251  17.226   5.691  12.158 -0.3490 -0.0873  0.1830
28048W        W46252  11.461  14.364   2.961  0.1636 -0.1456  0.1136
28049W        W46253   2.035   1.398  14.039 -0.0320  0.0279  0.1676
28050W        W46254   2.935   2.819   0.930 -0.0217 -0.0375  0.1322
28051W        W46255   2.900  11.654   4.486 -0.0161  0.0786 -0.2710
28052W        W46256  13.624   7.979   3.650  0.1373  0.2374 -0.1556
28053W        W46257   8.890   4.267   4.302 -0.2425  0.2311 -0.0527
28054W        W46258   7.751   7.145  13.286  0.2294 -0.1566 -0.0242
28055W        W46259   5.770  14.165  12.013  0.0037 -0.2273 -0.1085
28056W        W46260  17.970   5.603   0.121 -0.1407 -0.1002  0.3746
28057W        W46261  16.415   4.898  15.328  0.1030  0.1131  0.0984
28058W        W46262  17.046  13.605   2.644 -0.1399  0.1756 -0.1910
28059W        W46263  11.166   4.974   1.196  0.0609 -0.3553 -0.3396
28060W        W46264   1.901   7.258   4.184  0.0751 -0.2286  0.0627
28061W        W46265  12.356  14.274   2.794 -0.0620  0.0703 -0.1256
28062W        W46266  16.474   1.601  14.741 -0.0311 -0.1727 -0.3193
28063W        W46267   0.331   3.997   4.273 -0.3217 -0.3014 -0.2614
28064W        W46268   0.361   0.253   5.121 -0.0752 -0.1451  0.2496
28065W        W46269  15.362  10.458  14.888  0.1553  0.2505  0.0552
28066W        W46270   6.810  14.871  12.602  0.0943 -0.3618 -0.1950
28067W        W46271   8.830  17.670   0.623  0.0748 -0.2116  0.0770
28068W        W46272   1.163  13.820  14.506  0.0498  0.1039  0.0714
28069W        W46273   5.293   2.276  14.021 -0.0446  0.1591  0.1034
28070W        W46274  16.539   5.946   4.890 -0.1209  0.0386  0.2715
28071W        W46275   7.109   7.152  15.618 -0.0184 -0.1846  0.0280
28072W        W46276  15.930   3.770  14.891 -0.3706 -0.0280 -0.0640
28073W        W46277  12.592   2.431   3.098 -0.0462 -0.2428 -0.2403
28074W        W46278   5.619   6.427  14.529 -0.3066 -0.2048 -0.0560
28075W        W46279   9.244   5.698  13.020 -0.1104 -0.1174 -0.0896
28076W        W46280  16.602   9.966   3.955 -0.2785  0.2049  0.0436
28077W        W46281   0.930  14.053   0.186 -0.1451 -0.0696 -0.1069
28078W        W46282   1.683  12.266  11.071 -0.0423 -0.0091 -0.3430
28079W        W46283   0.889  13.138  11.868  0.0098  0.0003  0.1959
28080W        W46284  12.058  13.590   3.193 -0.1326  0.1668 -0.2558
28081W        W46285  10.900  15.437  14.056 -0.0332 -0.1810 -0.0574
28082W        W46286  13.892  18.360  13.102  0.2375  0.0895 -0.1670
28083W        W46287   2.525   4.771   1.897 -0.2082 -0.1939 -0.3218
28084W        W46288  16.599   9.243  13.529 -0.0810 -0.1536 -0.0868
28085W        W46289   5.073   7.088   3.651  0.2828  0.2575  0.2501
28086W        W46290  11.970   8.779  14.470 -0.0881 -0.3001  0.0248
28087W        W46291   4.798   8.411  14.013  0.0038  0.1605  0.2563
28088W        W46292  15.502   0.129  12.110 -0.2425 -0.5433  0.0902
28089W        W46293   0.925   2.094  13.798  0.2413  0.4283 -0.3363
28090W        W46294  11.686   0.412   1.659 -0.0650  0.0214  0.3434
28091W        W46295   1.718  11.514  11.853  0.0140  0.3508  0.2924
28092W        W46296  11.470   7.795   2.449 -0.3269  0.1792  0.1154
28093W        W46297  10.534   7.748  13.100  0.1753 -0.1153 -0.0100
28094W        W46298  11.994  15.121  12.984 -0.4230  0.0856 -0.0253
28095W        W46299   7.429   7.909   1.851 -0.1016 -0.3086 -0.1519
28096W        W46300  14.830  17.450  11.899 -0.1020 -0.0239 -0.0008
28097W        W46301   6.680  15.126   1.905 -0.2649 -0.1706 -0.0429
28098W        W46302   0.979  13.603  14.964 -0.2462 -0.2789 -0.1581
28099W        W46303   8.841  13.713   2.160 -0.0788  0.1739 -0.3935
28100W        W46304  14.981   2.624   1.045  0.0623  0.3954  0.2788
28101W        W46305   2.268  17.190   0.867 -0.0660 -0.2848  0.0264
28102W        W46306  14.274   0.357  13.007  0.3977 -0.0293 -0.0480
28103W        W46307  18.279   9.796   1.083  0.1136 -0.0681 -0.0826
28104W        W46308   9.056   7.278  14.669  0.1681 -0.1040  0.1153
28105W        W46309   2.426  12.148   1.314  0.0278 -0.0821 -0.0486
28106W        W46310  14.525   0.300  10.996  0.0748  0.0077  0.2297
28107W        W46311   6.889  15.137  13.109 -0.3493  0.0958  0.0610
28108W        W46312  16.744   8.733   4.647 -0.1784  0.2591 -0.0836
28109W        W46313   7.003   7.388  13.898  0.3424  0.1516 -0.0377
28110W        W46314  15.280  10.556   1.462 -0.1749 -0.0205  0.2010
28111W        W46315   0.182  11.190  14.815 -0.1959  0.2221  0.2471
28112W        W46316   9.540   8.423   3.284  0.0720  0.0923  0.0022
28113W        W46317   0.844  14.770   4.774 -0.2040  0.2391  0.0073
28114W        W46318   2.799   7.196  15.638 -0.1340 -0.1284 -0.1625
28115W        W46319  18.190   8.085   1.689  0.0497  0.1019 -0.0110
28116W        W46320   8.054   0.500   3.446  0.0828  0.2329 -0.2172
28117W        W46321   5.758   3.414   1.044  0.1168  0.0544 -0.1788
28118W        W46322   6.334   8.742  15.385  0.0862 -0.0107  0.2140
28119W        W46323   1.538  18.256  12.760 -0.0388  0.0179 -0.3639
28120W        W46324   9.226  14.598   3.721  0.0698  0.0371 -0.2876
28121W        W46325   7.618   0.954   1.525 -0.1591 -0.4685  0.0995
28122W        W46326   6.465   9.503  13.189  0.0321  0.0263  0.0816
28123W        W46327   8.461   5.623   5.875  0.1945  0.3755 -0.1466
28124W        W46328   0.539   4.918  12.693  0.0961 -0.1541  0.2821
28125W        W46329   2.413  10.040   2.567  0.1243  0.0900  0.0538
28126W        W46330  13.911  12.852  15.512  0.0428  0.1923  0.3122
28127W        W46331   2.223   3.144  14.923  0.0194  0.1171 -0.0011
28128W        W46332  17.733   2.680  14.552 -0.1695 -0.5436 -0.0233
28129W        W46333   1.243  10.915   0.761 -0.2280 -0.1630  0.0710
28130W        W46334  11.392   6.097   4.157  0.1402 -0.0044 -0.0504
28131W        W46335  11.747   3.853  11.855  0.2644  0.1312  0.0076
28132W        W46336  12.391  16.098  11.039  0.2136 -0.0602  0.1590
28133W        W46337   6.890   3.573   0.953 -0.0409  0.0054  0.4375
28134W        W46338   9.925   5.422   2.213 -0.0647 -0.0730 -0.1693
28135W        W46339   6.077  15.765  13.741  0.0257  0.1264  0.1027
28136W        W46340   8.698  14.756   2.129  0.0777 -0.0275  0.0343
28137W        W46341  15.818  11.679   2.082  0.2290 -0.3156  0.1664
28138W        W46342   9.664   3.459   2.544  0.1231 -0.0624  0.2006
28139W        W46343   8.330  16.318  13.401 -0.2020  0.0339  0.0720
28140W        W46344   4.679  14.875   3.513 -0.2049 -0.2013 -0.1679
28141W        W46345  15.212   7.174   0.477 -0.0876 -0.0680 -0.0199
28142W        W46346  12.142   0.397  12.444 -0.0767 -0.2433 -0.2288
28143W        W46347  17.890   9.391   1.180 -0.1570 -0.0675  0.0912
28144W        W46348   2.241  16.843  11.673  0.1733  0.2551  0.0227
28145W        W46349   0.436  13.413   0.600  0.1280  0.1295  0.1527
28146W        W46350  16.200   3.862   3.888 -0.2967  0.1092 -0.1707
28147W        W46351   7.055   5.879  12.444  0.2813 -0.0428 -0.0840
28148W        W46352  14.214   2.639  12.999  0.2032  0.1546  0.1038
28149W        W46353  12.338   0.161  13.024 -0.1471  0.1329  0.2228
28150W        W46354   4.579  14.903   4.423  0.4768  0.0727 -0.0105
28151W        W46355  17.772  10.062  11.249  0.1800  0.2171  0.2080
28152W        W46356   2.211  17.624  13.934  0.1334  0.1064  0.2559
28153W        W46357  14.645   3.784  13.195  0.0323 -0.0673  0.2760
28154W        W46358   1.754  14.161  11.454 -0.0282  0.2799  0.1616
28155W        W46359   1.474  17.780  12.930 -0.1018  0.3048 -0.0075
28156W        W46360   8.811   0.122  14.642  0.1496 -0.2883 -0.0956
28157W        W46361   7.889   9.297  14.414 -0.0485 -0.2302 -0.3790
28158W        W46362   4.646   3.054  14.514 -0.0117  0.1143 -0.0539
28159W        W46363  16.897   2.095   2.288  0.2295 -0.3397  0.0612
28160W        W46364  12.626  11.802  14.146 -0.0718  0.0714  0.0528
28161W        W46365  10.091  10.939   0.169  0.2175  0.0623  0.0522
28162W        W46366   1.946   9.410  11.718 -0.3326  0.0977  0.2283
28163W        W46367   5.977   7.603   1.377  0.0790 -0.0809 -0.1565
28164W        W46368  17.190   2.846   3.925 -0.2069  0.0875  0.2934
28165W        W46369   3.497  12.795   3.430 -0.0614  0.1184 -0.3862
28166W        W46370  15.799   8.759  10.927  0.5502  0.2093 -0.1971
28167W        W46371  15.839  13.275   2.814  0.1351  0.2174  0.0058
28168W        W46372  11.237   0.908  12.146  0.1246  0.3760 -0.1125
28169W        W46373  13.542  10.299  12.817  0.1413 -0.0208  0.0792
28170W        W46374   9.271  10.466   3.899 -0.1802  0.0196 -0.0587
28171W        W46375   3.047  18.048   0.329 -0.1908  0.0561  0.0819
28172W        W46376   5.503  11.797  12.381 -0.3323  0.3205 -0.3259
28173W        W46377  12.258  16.254   3.869 -0.1609 -0.0961 -0.0059
28174W        W46378  10.431  14.453   3.844 -0.0900  0.4145  0.0093
28175W        W46379  16.073   3.576   0.468 -0.0032 -0.0643  0.4572
28176W        W46380  15.010   9.272   0.191 -0.0641 -0.0001  0.0603
28177W        W46381   0.680   4.530  11.647  0.2921  0.0230 -0.3258
28178W        W46382  11.172  10.450   4.978  0.1949 -0.0357 -0.0442
28179W        W46383  16.929   6.059  12.338  0.1921 -0.0344 -0.1719
28180W        W46384  18.289   7.578   3.540 -0.0567  0.0524 -0.1223
28181W        W46385  11.526   5.210   5.700 -0.0057 -0.1204  0.2233
28182W        W46386   9.406  17.041  11.527  0.1842 -0.0892  0.1171
28183W        W46387  17.617   9.336  13.027  0.2436 -0.3053  0.1211
28184W        W46388   9.191   5.229  11.800  0.3999 -0.0243  0.0291
28185W        W46389  12.023  17.417   3.047  0.2452 -0.1704 -0.0765
28186W        W46390  10.973   4.297   0.932 -0.1390 -0.0001 -0.2440
28187W        W46391   0.783   3.279  14.981  0.2314 -0.2378 -0.0264
28188W        W46392  13.518   5.956  14.411  0.3365  0.1413  0.2106
28189W        W46393  13.544   9.574   0.084  0.1651 -0.1216 -0.2202
28190W        W46394  15.167  15.883   2.669 -0.1124 -0.2543 -0.2857
28191W        W46395  12.778   4.220   1.934  0.2741  0.0112  0.3256
28192W        W46396  10.952   4.468   2.898 -0.0488  0.1757  0.0785
28193W        W46397   9.683   8.759  15.114 -0.2688  0.0511  0.0107
28194W        W46398   7.843   6.166   4.094 -0.0742  0.3073 -0.3024
28195W        W46399  13.421   6.978   1.650  0.0501 -0.2883 -0.3387
28196W        W46400  12.609   0.090  14.741  0.2288  0.0027  0.1232
28197W        W46401  16.096  14.698   1.767  0.0050  0.1095 -0.1259
28198W        W46402   9.650   3.979   4.370  0.2270  0.0041 -0.3619
28199W        W46403  10.263  12.387  15.397  0.0691  0.1614 -0.0942
28200W        W46404   5.160  11.454  14.115 -0.3566  0.3023 -0.3505
28201W        W46405  14.891   4.714   0.336 -0.1315  0.0709  0.2883
28202W        W46406   5.209   7.235  14.880  0.1623 -0.1217  0.0109
28203W        W46407   5.521  15.375   2.039  0.0307 -0.0977 -0.1180
28204W        W46408  12.208   3.076   3.876  0.0850 -0.0397  0.1034
28205W        W46409   2.901   5.850  15.568  0.2516 -0.1448  0.2371
28206W        W46410  17.006  13.296  14.045 -0.0227 -0.0546 -0.1048
28207W        W46411   7.646   4.046   4.512 -0.1501 -0.2125  0.2066
28208W        W46412  17.932   1.648  14.321 -0.3272  0.0872  0.0262
28209W        W46413  16.998  15.145  13.743 -0.2031 -0.0201 -0.1424
28210W        W46414   7.763   7.359   0.254  0.0007  0.0054 -0.1064
28211W        W46415  11.530   8.701  13.413 -0.2076 -0.1887 -0.1622
28212W        W46416   3.352  16.971  13.545  0.0209  0.1872  0.0601
28213W        W46417   4.269   3.878   2.704  0.0061 -0.1198  0.0032
28214W        W46418   8.521   9.832   2.318  0.1649  0.0069 -0.2226
28215W        W46419   9.859   9.254  13.594 -0.1674  0.1074  0.2534
28216W        W46420   1.423  17.216  13.021  0.1693 -0.1484 -0.3233
28217W        W46421  13.319  17.160  13.418  0.0899 -0.0110  0.0239
28218W        W46422   6.556   2.514  12.927 -0.0523 -0.0900  0.0074
28219W        W46423  16.120   2.549   0.496  0.0174  0.2243  0.3302
28220W        W46424  16.308   4.280  11.547  0.1197 -0.0845  0.0505
28221W        W46425  16.526   3.225   2.308  0.2206 -0.0321  0.1798
28222W        W46426  16.002   2.442   2.327 -0.1155  0.0007  0.0963
28223W        W46427  14.991  12.005   0.862  0.1836  0.1813 -0.1010
28224W        W46428   4.607   1.366   2.268 -0.0825 -0.1135 -0.0556
28225W        W46429   4.581   9.851  13.674 -0.0122 -0.0993 -0.3834
28226W        W46430  16.776  13.372   3.679 -0.2216 -0.0314  0.0752
28227W        W46431   5.144  10.992  15.678 -0.2389  0.0254  0.0618
28228W        W46432   7.102   0.829  14.470  0.0844  0.0287  0.1644
28229W        W46433  11.994   4.761   0.906 -0.2587 -0.2681 -0.1390
28230W        W46434   4.233   3.425   1.716  0.0644  0.1325 -0.0814
28231W        W46435  13.755  11.862  13.786  0.0057 -0.0092  0.0515
28232W        W46436   6.671  16.860  15.001  0.1279  0.2131 -0.2278
28233W        W46437   3.964  10.259   0.248 -0.0548  0.0877 -0.0390
28234W        W46438  15.801  13.972  14.920 -0.0143 -0.1977 -0.2965
28235W        W46439  15.309  13.672  12.741 -0.2478 -0.2634 -0.0184
28236W        W46440  17.827   9.742   0.845 -0.1963 -0.1015  0.2807
28237W        W46441   0.091  15.434  11.544 -0.0421  0.0929  0.1747
28238W        W46442   9.012  10.295  14.556 -0.2422  0.1532 -0.1176
28239W        W46443  14.447   5.943   3.602  0.2849  0.0710  0.0090
28240W        W46444  14.691  14.870  13.576 -0.2751  0.1627  0.0384
28241W        W46445   5.475   4.826  11.713  0.0475  0.0110 -0.2272
28242W        W46446   4.076  11.760  12.050 -0.2479 -0.0342 -0.0377
28243W        W46447  17.350   1.485  14.235  0.0440  0.1004 -0.1200
28244W        W46448  18.172   2.905   1.043  0.0592 -0.1035  0.0871
28245W        W46449  17.467  18.081  10.402 -0.0156 -0.0587 -0.0478
28246W        W46450  10.944  15.026  14.561  0.1610  0.0053  0.2052
28247W        W46451   5.917  16.098  12.665 -0.1891 -0.1535 -0.5416
28248W        W46452   3.017   9.944  11.459  0.1453  0.0129 -0.0366
28249W        W46453   1.849  12.876   3.632  0.3018  0.1614 -0.1327
28250W        W46454   8.631  17.628  11.840  0.1595  0.1744 -0.2067
28251W        W46455   1.524  17.236   3.719 -0.0509 -0.3998  0.0482
28252W        W46456   0.127   1.274  13.111  0.2603 -0.0271 -0.3623
28253W        W46457   5.724   1.313  15.320 -0.2418 -0.1671  0.2550
28254W        W46458  12.387  15.772   5.650  0.0601  0.1813  0.2725
28255W        W46459  11.496   4.319  11.832  0.2313  0.0070 -0.2487
28256W        W46460  10.675   4.854   3.093  0.0168 -0.0051  0.0094
28257W        W46461   3.644  10.838  15.190 -0.0809  0.0439  0.0189
28258W        W46462  17.888  17.672   5.287 -0.1326 -0.1499 -0.1206
28259W        W46463  16.786  11.907  13.183 -0.2506 -0.2526  0.2435
28260W        W46464   3.825   0.571   0.602 -0.1529  0.0840  0.0391
28261W        W46465  16.677   4.017   3.540  0.0874  0.0670  0.0152
28262W        W46466   3.628   3.163  14.937 -0.1026 -0.0438  0.2793
28263W        W46467  10.213   2.246   2.995  0.1525 -0.1556  0.1484
28264W        W46468   5.085  14.779   4.549  0.0266 -0.0270 -0.0712
28265W        W46469  14.963  16.111  14.097  0.0779 -0.0127 -0.1387
28266W        W46470   0.098  17.987  15.440 -0.1012 -0.1501 -0.1854
28267W        W46471   4.493  14.761   1.177 -0.1487 -0.0465  0.0064
28268W        W46472   3.160   6.805   2.511 -0.1238  0.0849 -0.2904
28269W        W46473   0.914   0.022   1.954  0.0306 -0.2545 -0.1048
28270W        W46474  17.482   7.695  13.681 -0.0733 -0.1907 -0.1754
28271W        W46475   3.301   7.046   3.068  0.1417  0.0367  0.0405
28272W        W46476  16.699   1.158  14.588  0.1086 -0.1908  0.0161
28273W        W46477   5.417   1.183  13.548 -0.2175 -0.4381 -0.3353
28274W        W46478  15.715  10.469  13.886  0.0657  0.2465 -0.1808
28275W        W46479   8.939  14.201   4.581  0.0880  0.3360 -0.2219
28276W        W46480   7.486   7.438   1.721  0.0462 -0.2613  0.0917
28277W        W46481  13.846   8.548   4.717  0.2920  0.0173  0.0735
28278W        W46482  15.815   6.286  11.155 -0.0439  0.0296 -0.0042
28279W        W46483   6.098   5.052   2.929  0.2537  0.0110 -0.1218
28280W        W46484   0.584  14.310   0.486  0.2582  0.1169  0.0090
28281W        W46485   4.441   6.235  15.011 -0.0049 -0.0227  0.1986
28282W        W46486   1.879  16.677  14.805 -0.1912  0.1139  0.1745
28283W        W46487   5.070  16.727  14.899 -0.0365 -0.1104  0.0643
28284W        W46488  15.100  12.387  14.327  0.0487  0.4740 -0.0245
28285W        W46489   7.353   8.229   1.449  0.1241 -0.0188 -0.0425
28286W        W46490   5.653   8.892   2.616 -0.0211  0.1003  0.1673
28287W        W46491   4.132  15.928  12.173  0.2271  0.1792 -0.2092
28288W        W46492  14.523   7.132  10.966  0.0170  0.0158 -0.1197
28289W        W46493   6.577  10.738   3.777  0.0598  0.1580  0.3944
28290W        W46494   2.330   1.055  10.583  0.2177  0.0385  0.1774
28291W        W46495  15.611   3.146  11.523 -0.1147  0.2235 -0.1342
28292W        W46496  17.456  18.315  12.620 -0.1968  0.1338 -0.1110
28293W        W46497   9.178   8.984  15.046 -0.0721 -0.0089 -0.1228
28294W        W46498   1.981  11.373  11.369 -0.2223  0.2915  0.1726
28295W        W46499  17.635   7.677  15.527  0.3254  0.1404 -0.0491
28296W        W46500   2.609   8.399  11.373 -0.0913  0.1883 -0.2187
28297W        W46501  12.764   8.193  15.223 -0.2391 -0.1992 -0.1718
28298W        W46502  18.316  13.687  11.248 -0.2046 -0.0440 -0.3245
28299W        W46503   4.681   4.030   3.574 -0.4164 -0.2838  0.2708
28300W        W46504  10.925   5.038   2.266  0.1357  0.0067 -0.0419
28301W        W46505  17.573  18.320   1.108  0.2870 -0.0710  0.0824
28302W        W46506   4.640  11.314   3.628 -0.0040 -0.4778 -0.2829
28303W        W46507  18.262   9.463  11.899  0.3875  0.1160 -0.1228
28304W        W46508   5.437   8.851  13.549 -0.2330 -0.0787  0.1508
28305W        W46509  11.107   3.874   1.765 -0.2030 -0.1409  0.0116
28306W        W46510  14.261  16.298  11.000  0.5067  0.1556  0.1260
28307W        W46511   4.990   0.875   3.749 -0.0653 -0.0705  0.1677
28308W        W46512   3.352   2.596   0.074  0.0120 -0.3838  0.0250
28309W        W46513   0.975  14.393  15.208  0.1483 -0.1337 -0.0864
28310W        W46514   8.493   1.877  12.440  0.2218  0.0009  0.0201
28311W        W46515  10.941   7.582   0.597 -0.2794 -0.4227 -0.0035
28312W        W46516  11.971   6.936  11.621  0.2369  0.1533  0.2162
28313W        W46517   5.673  14.064   1.317  0.3425  0.2202  0.1904
28314W        W46518   0.502  17.553  11.671 -0.1674  0.1563 -0.0606
28315W        W46519   2.403   9.618  13.939 -0.1875  0.1979  0.0964
28316W        W46520   8.274  11.936   0.992  0.0987  0.1559  0.1729
28317W        W46521   3.990  14.661  12.326  0.2328 -0.1685 -0.1462
28318W        W46522  12.912   4.760   2.699 -0.0694  0.1467 -0.1645
28319W        W46523  13.461   5.772  15.711  0.0345 -0.2425  0.1369
28320W        W46524   3.876  12.966   1.529 -0.1684 -0.0281  0.0884
28321W        W46525   3.011   2.564   1.800 -0.5215  0.1372 -0.1200
28322W        W46526   1.266  17.549  14.768  0.0391  0.0277  0.0571
28323W        W46527   4.945  13.466   2.368  0.0853  0.0273  0.1112
28324W        W46528   3.291  10.314   4.596  0.0389 -0.2120 -0.1857
28325W        W46529   6.591   8.870  11.759  0.0104  0.1458  0.1206
28326W        W46530   0.998  16.964   3.716 -0.0383 -0.0509 -0.1155
28327W        W46531   6.358  15.767   3.864 -0.0593 -0.0689  0.0384
28328W        W46532  11.233   8.364  14.390 -0.1085  0.2609 -0.1180
28329W        W46533   8.820   1.844   0.430 -0.1102 -0.1149  0.0225
28330W        W46534   4.492   0.962   2.494  0.2686 -0.1769 -0.1328
28331W        W46535  13.208   9.344  12.338  0.0471 -0.3037 -0.0300
28332W        W46536  12.155   5.605   3.638 -0.1828 -0.0904  0.0076
28333W        W46537   0.533  14.974  13.689  0.1850  0.0822  0.3528
28334W        W46538  10.347  11.648  11.285 -0.4275 -0.1606  0.1770
28335W        W46539   0.638  14.401   4.275  0.0545 -0.2782 -0.3161
28336W        W46540  16.278   3.377  14.225 -0.0705  0.1444  0.3612
28337W        W46541  11.669   3.376   2.015  0.0688 -0.3721  0.2230
28338W        W46542   4.126  16.583  14.141 -0.3017  0.0716  0.1531
28339W        W46543   1.746  18.049  11.339  0.0197  0.2350  0.0205
28340W        W46544   7.479  18.336   1.741 -0.1829  0.0654 -0.0771
28341W        W46545  11.930   3.005  14.993  0.0913 -0.0533  0.1088
28342W        W46546   4.749   1.943   2.453 -0.1847  0.0102 -0.2209
28343W        W46547   6.455   6.343   2.649 -0.2660 -0.2487  0.0881
28344W        W46548   6.366   5.320   0.958 -0.0918  0.1800  0.3501
28345W        W46549   0.969  14.859  12.308  0.0359 -0.2053  0.1343
28346W        W46550   8.857   1.276  13.010  0.2653  0.1470  0.1594
28347W        W46551  18.337   7.203   5.859 -0.2634 -0.2604  0.2513
28348W        W46552   8.642  13.880   3.992 -0.3190 -0.0250 -0.2159
28349W        W46553  10.375  12.369   3.875 -0.0819  0.4503 -0.1315
28350W        W46554   5.126  13.452   1.613 -0.3526  0.2421 -0.0249
28351W        W46555   5.620  13.028   0.850 -0.2945 -0.4117  0.1286
28352W        W46556   6.404   5.089  13.006  0.0011  0.0771  0.1567
28353W        W46557   0.018   3.195   4.369 -0.1522 -0.0816 -0.1951
28354W        W46558  16.256  15.234  13.333 -0.0167 -0.0071 -0.1457
28355W        W46559  12.216   7.220  13.631  0.0669 -0.2079 -0.3268
28356W        W46560   2.692   8.915   2.279 -0.0970 -0.1299 -0.2589
28357W        W46561   7.950  11.468  14.080 -0.0122  0.2014 -0.0560
28358W        W46562  16.312   8.171  11.248 -0.1507  0.2298  0.0890
28359W        W46563   2.564   1.882   2.880  0.0221 -0.0239 -0.1973
28360W        W46564   4.834   6.434   2.169  0.2593 -0.1804 -0.0054
28361W        W46565  16.005  12.183  15.162 -0.0334  0.2683  0.1174
28362W        W46566   5.368   6.074   4.210  0.0449 -0.0701  0.3907
28363W        W46567   5.803  10.630   4.377 -0.1574  0.0906  0.0157
28364W        W46568  17.499  14.337   5.825 -0.0254 -0.0457  0.0341
28365W        W46569  11.658   1.113   2.937 -0.0932  0.0644 -0.1792
28366W        W46570   8.884   3.954   3.856  0.0268  0.1097  0.0469
28367W        W46571  11.547  13.916   4.534  0.0889 -0.1567  0.1066
28368W        W46572  10.790  10.172   1.152  0.1475 -0.0749 -0.0580
28369W        W46573   6.069   0.508  15.559 -0.3217 -0.0628  0.1704
28370W        W46574   2.029   0.257  15.466 -0.1825 -0.2671 -0.0169
28371W        W46575  12.194  14.216   4.649  0.2203 -0.0302 -0.1090
28372W        W46576   2.574  17.835  13.613 -0.4087 -0.0992  0.1570
28373W        W46577  17.175   5.776   1.945  0.0061 -0.0562 -0.0100
28374W        W46578  16.550   9.142   2.267  0.1052  0.2210 -0.1455
28375W        W46579  17.077  11.947   1.847  0.3318 -0.2255 -0.4337
28376W        W46580   7.071   4.918   4.972 -0.1981  0.3192  0.0318
28377W        W46581  11.658   6.021  12.876 -0.3325 -0.0731  0.1917
28378W        W46582  10.147   4.893  14.278 -0.3170  0.0666 -0.3645
28379W        W46583  11.287   6.303  12.882  0.0978  0.0080 -0.1757
28380W        W46584   2.733   2.555  13.778 -0.1628 -0.1897 -0.0425
28381W        W46585  10.786   8.718   4.419 -0.3294  0.2137  0.0558
28382W        W46586   7.483  13.039  13.966  0.0815 -0.3658  0.1418
28383W        W46587   8.275   7.080  13.335  0.2592  0.4457 -0.0296
28384W        W46588   1.426   1.396  11.718  0.0780  0.0957 -0.0662
28385W        W46589   0.598  17.262  13.118  0.0712  0.0532  0.0498
28386W        W46590  14.625  10.058   0.549  0.4246  0.2969 -0.1689
28387W        W46591   8.269   9.452   2.662  0.1267 -0.3007  0.0064
28388W        W46592  13.245   1.516   1.035  0.0809 -0.2619 -0.0089
28389W        W46593  17.343  11.441  15.136 -0.1754  0.0361  0.2077
28390W        W46594  13.437  11.976  14.760  0.2336  0.0026 -0.0518
28391W        W46595  11.334  15.595  14.249 -0.1426 -0.0792 -0.2591
28392W        W46596   4.493   6.016  13.912 -0.1727 -0.0039  0.2075
28393W        W46597   6.375  14.989   0.230  0.0794  0.1119  0.0728
28394W        W46598   5.723   2.311  12.453 -0.0628 -0.0305 -0.0833
28395W        W46599   8.760  13.860  12.083  0.0976 -0.1067 -0.0248
28396W        W46600  14.304   2.576  10.911 -0.0236 -0.1237  0.0507
28397W        W46601  12.869  16.139   3.835 -0.1886  0.0756  0.0543
28398W        W46602  13.499   6.514  13.175 -0.2394  0.5338  0.0152
28399W        W46603   0.883  17.753  13.552 -0.3557 -0.1404  0.0246
28400W        W46604  16.498   4.452  13.908 -0.0146 -0.1714  0.0029
28401W        W46605   8.690  17.024  15.717 -0.0784 -0.2959 -0.2472
28402W        W46606   5.109  11.018   2.093  0.1277  0.0335  0.0294
28403W        W46607   0.204   8.542  10.949  0.1223  0.1831  0.0064
28404W        W46608   8.239   1.423  13.316  0.0888  0.2787 -0.1704
28405W        W46609   4.744  10.456  14.708  0.0911 -0.1080 -0.0192
28406W        W46610   3.113  12.403  13.586  0.0041  0.0457 -0.2295
28407W        W46611  10.430  13.775   1.594  0.0584 -0.0760  0.3461
28408W        W46612   0.007   1.209   0.351  0.0835 -0.0414  0.0212
28409W        W46613   4.838  10.424   0.541 -0.0049 -0.0526 -0.0514
28410W        W46614   0.523  10.135   3.530  0.0389 -0.1009  0.2986
28411W        W46615   3.335  14.079  14.738 -0.3366  0.1515 -0.0484
28412W        W46616   9.552  16.715  13.780  0.2726  0.0537  0.1025
28413W        W46617   5.466   4.187  10.182 -0.0975  0.1187 -0.3000
28414W        W46618   0.485  16.924  10.918  0.0193 -0.6101  0.1461
28415W        W46619  10.913   9.283   5.210  0.3968  0.0545 -0.2816
28416W        W46620  17.094  12.200   0.220  0.2054  0.0992 -0.1052
28417W        W46621  12.664   6.800   4.520 -0.1030  0.0879 -0.1785
28418W        W46622  12.310  10.661   2.266  0.0012  0.1564 -0.2923
28419W        W46623   0.210  13.270   2.133 -0.2175  0.2090 -0.2222
28420W        W46624   7.508   3.984   3.495  0.1301  0.0946 -0.2482
28421W        W46625   4.253  16.208   2.558 -0.0432 -0.2129 -0.0647
28422W        W46626   0.859  17.324  14.215 -0.2347 -0.1586 -0.3116
28423W        W46627   5.607  16.019   3.947  0.0950 -0.1662  0.2383
28424W        W46628   4.615   9.456   3.246  0.3619  0.0649  0.1239
28425W        W46629  15.274   9.549  15.579 -0.0430 -0.2696 -0.1890
28426W        W46630  14.099  15.726  12.357 -0.2846  0.2397 -0.1011
28427W        W46631   8.717   4.526   0.894 -0.1041 -0.0827 -0.0251
28428W        W46632  11.515   1.907   0.985 -0.1608 -0.5584  0.2956
28429W        W46633   5.209  14.788  13.848 -0.2835  0.0129  0.5192
28430W        W46634   8.882  14.690   1.429  0.1820  0.0166 -0.0352
28431W        W46635   7.501   6.583  13.995 -0.0606  0.1512 -0.0927
28432W        W46636   1.833   0.527  13.802  0.0376 -0.1873 -0.2508
28433W        W46637  14.557   2.714  12.218 -0.0638  0.1540  0.2511
28434W        W46638  13.999  15.698  13.328 -0.2926  0.1248 -0.2990
28435W        W46639  16.078   9.712   2.304 -0.2184  0.1605  0.2255
28436W        W46640  16.021  10.459   3.306 -0.0141  0.1034 -0.0328
28437W        W46641  14.052  16.450  13.140 -0.1833  0.2019  0.0404
28438W        W46642  12.182   1.508  13.781 -0.0283  0.0331 -0.2102
28439W        W46643  15.947   6.039  13.899  0.3809 -0.0318 -0.4707
28440W        W46644  10.376  10.313   0.261  0.0150  0.1974 -0.1957
28441W        W46645   3.464   1.751  12.225 -0.0148  0.1815 -0.0541
28442W        W46646  14.350  14.864  11.641  0.0854  0.0711 -0.3135
28443W        W46647  12.528  11.620   1.304  0.0360 -0.1039 -0.2404
28444W        W46648  15.405   9.208  12.920 -0.3117  0.3805  0.1319
28445W        W46649   2.786  11.214  15.216  0.0523  0.0638 -0.1145
28446W        W46650  10.209  16.692  12.031 -0.1649  0.0467 -0.0316
28447W        W46651   6.184  18.059  13.793  0.0747 -0.1227 -0.1609
28448W        W46652  14.619   9.205  14.598  0.0167 -0.1434 -0.0466
28449W        W46653   1.600  15.390   4.612 -0.0007  0.0334  0.1109
28450W        W46654   2.192   0.639   1.366  0.0601  0.2178 -0.1873
28451W        W46655   7.919  16.639   1.602 -0.1131 -0.0528 -0.1147
28452W        W46656   7.734   5.078   5.876  0.1050 -0.1115 -0.0481
28453W        W46657   4.563  15.665  13.721  0.0905 -0.1136  0.2551
28454W        W46658  17.855  14.345   4.165 -0.0978 -0.2082 -0.2059
28455W        W46659   8.420   6.720  12.815  0.0445  0.0463 -0.2421
28456W        W46660   8.055  14.598   0.845  0.1201  0.1596  0.0534
28457W        W46661  18.016   1.832   2.420 -0.1367  0.1178  0.1188
28458W        W46662   4.379   2.658   0.705  0.0207  0.0511  0.1608
28459W        W46663   2.312   1.542   3.132  0.1240 -0.3420 -0.0937
28460W        W46664   2.364  18.186  15.340 -0.2089  0.0632  0.0559
28461W        W46665  14.117  13.255  14.431  0.2121  0.1669  0.0767
28462W        W46666  15.867   9.289   3.876 -0.1033  0.0840 -0.4304
28463W        W46667   2.442  15.567  11.134 -0.4890  0.1514  0.0559
28464W        W46668  15.931  18.211  12.141  0.1456  0.0643 -0.1640
28465W        W46669  11.979   5.433  11.680  0.2277 -0.1006  0.2406
28466W        W46670   7.507   1.082  15.367  0.0011  0.0351 -0.1279
28467W        W46671  16.361   9.175  13.973  0.3645  0.1779 -0.0784
28468W        W46672  10.736  13.771   0.101  0.4157  0.0092  0.2293
28469W        W46673  10.167   5.110  11.731 -0.3336 -0.1562  0.0977
28470W        W46674   7.512   4.871  12.969 -0.0522  0.0480  0.2344
28471W        W46675  17.167   1.919  15.655 -0.0353  0.2607  0.0649
28472W        W46676   7.633  10.134  12.977 -0.0355  0.0525 -0.2346
28473W        W46677  13.724  16.921   2.685  0.1118  0.1860  0.0764
28474W        W46678  14.190  15.389  11.839 -0.1729  0.2452  0.1675
28475W        W46679   8.743   7.039   0.019 -0.0182 -0.3483 -0.0615
28476W        W46680   8.592  10.171   0.940 -0.0928  0.0913  0.0336
28477W        W46681  11.448  18.036  10.526  0.3607  0.1973  0.4006
28478W        W46682   2.895  16.676   0.979 -0.2701  0.1756 -0.0174
28479W        W46683   6.908  12.626   0.141  0.2892 -0.0890  0.0594
28480W        W46684  12.142   5.252  13.164 -0.0747  0.1472 -0.0853
28481W        W46685  12.754  16.147   4.326 -0.0119  0.2288  0.2656
28482W        W46686   3.858   5.222  12.006 -0.2313 -0.3061 -0.2499
28483W        W46687   7.220  11.619   2.441  0.0185  0.1337  0.1435
28484W        W46688  18.050   8.964  12.852  0.2251 -0.0647  0.0052
28485W        W46689   2.935   3.103  11.784 -0.3325 -0.2271  0.0013
28486W        W46690   2.334  13.921  15.609 -0.1505 -0.0521  0.1701
28487W        W46691   5.147  13.984  14.245  0.0756 -0.1856  0.1014
28488W        W46692  10.834   4.224   1.458 -0.1012  0.3317 -0.0108
28489W        W46693   0.279   7.145   4.140  0.0577 -0.0031  0.2417
28490W        W46694  12.586  17.527  14.500  0.2427  0.1784 -0.2602
28491W        W46695   6.459   7.232  12.107  0.1541 -0.1726 -0.3475
28492W        W46696  16.521   8.974  15.059  0.1263  0.1633  0.1993
28493W        W46697   8.686  12.015  14.508 -0.1162 -0.2088  0.1346
28494W        W46698  16.878   5.861   3.492 -0.0717  0.1067  0.0933
28495W        W46699  14.294  17.455   0.827  0.1023  0.1923 -0.0557
28496W        W46700   2.002  10.912  13.119  0.1696 -0.2012 -0.1389
28497W        W46701  17.476   8.563  14.021  0.1101 -0.2227 -0.0674
28498W        W46702   2.362   8.509   4.377  0.2012 -0.0180 -0.2428
28499W        W46703   3.836  15.647   2.878 -0.0206  0.1517  0.0185
28500W        W46704   6.189  12.376   2.407  0.1089 -0.1449 -0.0017
28501W        W46705   8.447  15.600  15.666 -0.1451 -0.1345 -0.0155
28502W        W46706  16.307   6.970   0.716 -0.2263  0.2031  0.0515
28503W        W46707   9.018  17.912  12.607 -0.0929 -0.1187 -0.2452
28504W        W46708   8.183   7.853   2.811  0.2913 -0.0904  0.0308
28505W        W46709   3.913  12.153  13.334  0.0221  0.0560  0.1124
28506W        W46710   4.256   0.509  13.869 -0.0700 -0.0437  0.1619
28507W        W46711   4.274  12.135   4.183 -0.0022  0.0092  0.1426
28508W        W46712  15.238  16.165  13.649  0.3034  0.1242 -0.3634
28509W        W46713  14.417  17.655  15.718 -0.1203  0.2364 -0.0343
28510W        W46714   6.827  18.064  15.398  0.0680  0.1106 -0.1194
28511W        W46715  12.511   0.736   1.383 -0.3192  0.3163 -0.1999
28512W        W46716   3.089   6.937  11.434  0.1014  0.1984  0.3250
28513W        W46717   7.048   8.976  14.302 -0.3498  0.0253  0.0142
28514W        W46718  16.867   8.797  13.323 -0.2650  0.2485 -0.0439
28515W        W46719   6.531  11.193   4.988  0.1038 -0.1832 -0.4615
28516W        W46720  17.145  12.234  13.206  0.0625 -0.0410  0.0912
28517W        W46721   5.827  10.159  12.012  0.0800  0.1209  0.0111
28518W        W46722   0.670   0.799   2.234  0.3447 -0.1562 -0.1897
28519W        W46723   5.433   1.293   4.402 -0.1912 -0.4295  0.0801
28520W        W46724  12.817   2.687  14.925 -0.1356  0.1377  0.0321
28521W        W46725   2.924   8.571  11.697 -0.1307  0.1419 -0.0696
28522W        W46726   1.211  12.884  11.589 -0.0468 -0.1868 -0.1153
28523W        W46727   9.586  18.240   1.406 -0.1084  0.0399 -0.2076
28524W        W46728  11.681   0.188  13.705  0.1726 -0.0591 -0.1124
28525W        W46729   9.524  18.240   3.629 -0.2115  0.0735 -0.0277
28526W        W46730  17.510   4.131  13.930 -0.0388  0.1891  0.2282
28527W        W46731  10.466  12.416   1.445 -0.0536 -0.2303  0.2034
28528W        W46732  10.057   1.828  13.816  0.1855  0.3558  0.0171
28529W        W46733  12.727   8.508   0.549 -0.0872 -0.0794  0.2428
28530W        W46734  11.859   6.323   0.670  0.1243  0.0909 -0.1049
28531W        W46735   2.283  17.117  14.102  0.3618  0.2626  0.2683
28532W        W46736  18.129  14.725   0.912 -0.1719 -0.1488 -0.0053
28533W        W46737   9.657  16.327   2.232 -0.3953 -0.0811 -0.2136
28534W        W46738  16.044   1.531   3.438  0.1262 -0.1776  0.0991
28535W        W46739   5.219  12.824  15.484 -0.3327 -0.0315 -0.0169
28536W        W46740  16.772  10.557   2.583 -0.1791  0.1899 -0.2181
28537W        W46741   2.846  15.885   1.070 -0.2659  0.0298 -0.0849
28538W        W46742   2.124  12.252   4.418 -0.1469 -0.1610 -0.0431
28539W        W46743   9.548   0.505  13.278 -0.0805  0.2547 -0.0015
28540W        W46744  13.733   7.020   4.110 -0.0648 -0.3052  0.1396
28541W        W46745  13.569  13.993   0.788 -0.2397  0.0827 -0.0371
28542W        W46746  13.752  14.647   0.181  0.1627  0.0560  0.2784
28543W        W46747   9.450   2.200   2.633 -0.3647  0.1087 -0.2227
28544W        W46748   2.100  15.990   3.448  0.0798  0.0102 -0.2525
28545W        W46749  11.683   6.330  13.234  0.0406 -0.0135  0.1431
28546W        W46750  14.742   0.345  13.740  0.2043  0.2151 -0.1573
28547W        W46751   1.516   7.788  11.496  0.0338  0.0975 -0.0057
28548W        W46752  12.973  17.850  12.348  0.1908 -0.0897  0.3313
28549W        W46753  14.649   3.561   1.156  0.1291 -0.0934 -0.0573
28550W        W46754   7.425   6.418   4.227  0.1890  0.3211 -0.1691
28551W        W46755   6.076   3.121   0.851 -0.0020  0.1100 -0.2645
28552W        W46756  13.038   9.219   1.070  0.0192 -0.0557 -0.1768
28553W        W46757  14.077   8.253   0.201  0.0455  0.0630  0.0451
28554W        W46758   0.898  12.110  11.618 -0.0064 -0.1584  0.0003
28555W        W46759  17.149  16.657   0.908 -0.3599 -0.0347 -0.1334
28556W        W46760  14.500  10.100   4.247  0.0203  0.0321  0.1621
28557W        W46761  12.185  10.266  11.324 -0.0656 -0.2742 -0.1376
28558W        W46762   1.224  16.763  13.294 -0.0274  0.0835  0.0661
28559W        W46763   1.626  12.123   1.979 -0.1468  0.5027  0.0713
28560W        W46764   3.119   6.352  14.542  0.1507 -0.1390  0.1399
28561W        W46765   2.521  12.220  14.388  0.2108 -0.0905 -0.1959
28562W        W46766  15.754   6.791   4.407  0.0561 -0.0557 -0.0182
28563W        W46767  11.938   3.834   0.787  0.0769  0.0285 -0.1240
28564W        W46768  12.499   7.431  11.772  0.2359  0.1193 -0.0056
28565W        W46769   0.921   7.272   2.868 -0.1215  0.0240 -0.1420
28566W        W46770  14.504   3.018   4.122 -0.0328  0.0988 -0.3332
28567W        W46771   3.773   8.093  10.997 -0.0779  0.0146  0.0483
28568W        W46772  13.601   3.338   4.339  0.0501 -0.0502 -0.1215
28569W        W46773  13.901  14.399   2.120 -0.4243 -0.0005 -0.1833
28570W        W46774  15.473   7.997  10.829  0.0659  0.0608 -0.3457
28571W        W46775  10.597  14.450  11.591  0.1047 -0.1592 -0.2802
28572W        W46776   3.458   5.862   2.731  0.1219 -0.0194  0.0792
28573W        W46777   7.603  16.831  15.666  0.0981 -0.1771 -0.0329
28574W        W46778  13.278   6.538  13.768 -0.0189 -0.2349  0.0243
28575W        W46779  13.235  15.075   3.459  0.0564 -0.2960  0.0912
28576W        W46780  10.738   7.116   1.895 -0.2325  0.2892  0.0993
28577W        W46781   1.662   7.376  14.249  0.0892  0.2690 -0.4531
28578W        W46782  13.679  10.802   3.838 -0.1840 -0.0954  0.2276
28579W        W46783  10.592  17.872   3.520  0.0124 -0.0777  0.2201
28580W        W46784   1.045   4.712   0.910 -0.1244  0.0812  0.0575
28581W        W46785   6.855  16.450   0.518  0.1753  0.1565  0.2304
28582W        W46786  11.720  10.036   2.882  0.1422  0.1803 -0.0126
28583W        W46787   6.465  10.020  14.816 -0.0505 -0.2882 -0.1934
28584W        W46788  12.286   6.250  11.303  0.0090  0.0743  0.0688
28585W        W46789   1.616   3.696   5.435  0.1348  0.0110  0.0570
28586W        W46790  11.645  13.286   3.754 -0.3821  0.0603 -0.1724
28587W        W46791   7.803   6.407   5.821  0.0029 -0.0090  0.0577
28588W        W46792  11.974  12.364  13.762  0.0422 -0.0337 -0.3477
28589W        W46793   9.983   6.288   0.160 -0.1126 -0.0904  0.0480
28590W        W46794  12.525   2.830   0.498 -0.1030  0.1559  0.0905
28591W        W46795  14.704  10.250   3.067 -0.2466  0.0294 -0.3349
28592W        W46796  18.124  16.768   2.037  0.2102 -0.0928  0.1409
28593W        W46797  17.189   0.717  13.044 -0.0195  0.1440 -0.0289
28594W        W46798   7.365  11.123  12.035  0.4931 -0.0136  0.1016
28595W        W46799  13.797   7.238   3.421  0.0443 -0.4660 -0.1606
28596W        W46800   8.975   6.200  13.024 -0.1535  0.0703 -0.2416
28597W        W46801   0.765   2.938  14.159  0.1557  0.2658  0.0403
28598W        W46802  12.198  17.889   3.069  0.1220 -0.0645  0.1260
28599W        W46803  18.042  17.575   0.528 -0.0431  0.2997 -0.1215
28600W        W46804  12.277   4.405  13.878 -0.0131 -0.1502 -0.1206
28601W        W46805   9.074   8.226   2.693  0.0236 -0.0835 -0.1630
28602W        W46806   0.052   2.170   1.517 -0.0273 -0.1207  0.1991
28603W        W46807   2.352   9.388  11.367  0.1704 -0.0925 -0.0754
28604W        W46808   1.432   3.522  14.287 -0.0526  0.0311 -0.0740
28605W        W46809  14.161   3.644   0.592  0.1341 -0.3436  0.2796
28606W        W46810   7.794   0.513   2.599  0.0063  0.0738 -0.1719
28607W        W46811   1.107   6.119  12.603 -0.1850  0.0092  0.0663
28608W        W46812   5.792   0.793  12.292  0.0758  0.1582  0.1729
28609W        W46813  15.565  13.449  13.613 -0.4673  0.1275 -0.0712
28610W        W46814  10.024   5.835   0.510 -0.0366  0.0958 -0.0445
28611W        W46815   9.259  14.323  14.986  0.1328 -0.1392  0.2161
28612W        W46816   5.039   9.262  11.283  0.1756  0.2143 -0.1797
28613W        W46817  14.670   5.141  13.692  0.1199  0.0953  0.0784
28614W        W46818   4.142  10.535  11.975 -0.1872 -0.0637  0.3013
28615W        W46819   8.968  17.257  11.632  0.1580 -0.0509  0.5798
28616W        W46820   4.363   7.592   3.095 -0.0593  0.0385 -0.2329
28617W        W46821   0.015   8.904   0.329  0.4405 -0.2939  0.0293
28618W        W46822   5.955   9.884   1.694 -0.1699 -0.0105 -0.0985
28619W        W46823   6.520   8.133   3.423  0.0120  0.2377  0.1760
28620W        W46824   0.712   0.287  12.458 -0.1381  0.1289 -0.1668
28621W        W46825  11.732  14.110  13.240 -0.3889  0.1046  0.0546
28622W        W46826  18.376   8.791   0.804  0.2829 -0.0996 -0.2647
28623W        W46827   2.296  13.416  15.176 -0.0055 -0.3321  0.2001
28624W        W46828   9.280  12.657   2.883 -0.0712  0.1206 -0.0540
28625W        W46829  11.162  16.152  13.284  0.2230  0.0272 -0.1594
28626W        W46830  12.640  17.290   1.377  0.0022 -0.1086  0.0600
28627W        W46831   3.389   0.315  13.526  0.0736  0.1208  0.0207
28628W        W46832   7.885   2.489  14.153  0.0668  0.1078 -0.0235
28629W        W46833   7.012  15.021   4.838  0.1196 -0.1837  0.0356
28630W        W46834   9.631  17.139   2.292 -0.0068 -0.2677  0.2081
28631W        W46835   9.754  12.934  15.154  0.0026  0.1829  0.0718
28632W        W46836  16.900   0.949  13.427 -0.1379  0.1985  0.2375
28633W        W46837  16.583  10.009  11.607  0.3724 -0.2325  0.1697
28634W        W46838   5.204  12.111  10.631  0.3808 -0.4384 -0.1257
28635W        W46839   9.375   4.992   3.725 -0.0458  0.1065  0.2637
28636W        W46840  13.574   1.845  12.585 -0.0506  0.4775 -0.0459
28637W        W46841  11.853  15.026   3.018  0.2515  0.2044 -0.2106
28638W        W46842  17.687   3.228  14.457 -0.0783 -0.4223  0.1480
28639W        W46843  14.424   4.033   1.048 -0.1566  0.0656  0.0269
28640W        W46844   6.733   7.708   0.314  0.0734 -0.0112 -0.1302
28641W        W46845   4.727  12.583  13.693 -0.1143 -0.0501  0.0862
28642W        W46846   5.618   4.451  15.342  0.0783  0.1601  0.2093
28643W        W46847  10.172  13.605  11.491  0.2298 -0.2285 -0.0821
28644W        W46848   3.734  10.814   3.295 -0.1349 -0.0612  0.0455
28645W        W46849   8.996   2.197   0.807 -0.0802 -0.0160 -0.0183
28646W        W46850   6.594  18.018   3.799 -0.0196  0.1703  0.0699
28647W        W46851   2.097   4.003   2.724  0.1685 -0.0941 -0.3271
28648W        W46852  12.436  17.255  13.954  0.0284  0.1073  0.0224
28649W        W46853  10.507  11.682   2.466 -0.0364 -0.0095 -0.2224
28650W        W46854   5.767  15.089  11.834  0.0985  0.0037  0.1202
28651W        W46855   9.754  17.449  15.584 -0.1090 -0.5156  0.1639
28652W        W46856  15.811  12.515   4.563 -0.0891  0.0108 -0.1647
28653W        W46857   5.723  15.118  13.228 -0.0155 -0.0543  0.1065
28654W        W46858   0.741   0.411   4.629  0.2780  0.1638  0.1402
28655W        W46859   8.607   4.275  13.242  0.0940  0.3253 -0.0095
28656W        W46860   0.765  16.677  12.269 -0.2338  0.1344 -0.0446
28657W        W46861   6.410   4.301  14.466 -0.0332 -0.0803  0.0996
28658W        W46862  16.238   6.051  15.179  0.0400  0.0091  0.0694
28659W        W46863  18.373  10.271  14.168 -0.0806  0.1156 -0.3201
28660W        W46864   4.453   2.911   1.657 -0.1240  0.1486  0.1304
28661W        W46865   9.537   7.091  14.801  0.2245  0.2505  0.0934
28662W        W46866   1.759   2.243  11.209  0.0825 -0.2439 -0.1128
28663W        W46867   3.026  14.390  13.389  0.1645  0.1932 -0.1832
28664W        W46868   4.126   9.168   3.342 -0.3542 -0.2240 -0.1242
28665W        W46869   3.688   4.101  14.076  0.4009  0.1180 -0.0763
28666W        W46870  10.780  14.860  10.790  0.0622 -0.0301 -0.0912
28667W        W46871  15.682   0.986   1.815 -0.2855 -0.1642 -0.1277
28668W        W46872  13.283  11.843  13.960 -0.3709 -0.6207  0.2566
28669W        W46873  15.031   3.962   4.003 -0.2280  0.2030  0.2595
28670W        W46874   4.983  13.534   3.925 -0.1766  0.2775  0.2196
28671W        W46875  17.875   1.925   4.025  0.1555 -0.4076 -0.0685
28672W        W46876  17.007  17.703   0.012  0.0101 -0.2435 -0.2360
28673W        W46877   7.319   2.226   4.303 -0.0875  0.0014 -0.1957
28674W        W46878   1.920   5.671   3.618 -0.2973  0.0755 -0.1116
28675W        W46879   6.999  12.297  12.396  0.0698  0.1426  0.1741
28676W        W46880  16.098   1.356   1.599 -0.0198  0.3168 -0.0654
28677W        W46881   6.424  13.691   0.961  0.0491 -0.0257 -0.1705
28678W        W46882   3.374  18.209  11.236  0.1046  0.0566 -0.0178
28679W        W46883   6.095  15.435   0.110 -0.0296 -0.0087 -0.2971
28680W        W46884  17.761  14.694   1.232  0.0136 -0.1226 -0.0942
28681W        W46885   8.303   9.100   1.043  0.2764 -0.2737  0.1408
28682W        W46886  12.944   4.489  11.157  0.0709 -0.0520 -0.0261
28683W        W46887   7.910  16.240   1.371 -0.0248  0.2956 -0.0698
28684W        W46888  17.312   0.217   3.950 -0.0220 -0.1632  0.0846
28685W        W46889   1.870  12.738   4.488 -0.1551 -0.0149  0.1442
28686W        W46890   8.621   1.345   1.190  0.0095  0.0327  0.2132
28687W        W46891   6.484  12.977  15.619  0.1516  0.1557 -0.1129
28688W        W46892   1.986  12.338  11.447  0.0783 -0.2921 -0.1257
28689W        W46893   6.775  15.032   0.627  0.1202  0.0519  0.2138
28690W        W46894  12.950   6.435   3.091  0.2593  0.0053  0.0953
28691W        W46895  17.247   6.113  11.793 -0.0339  0.2282  0.4051
28692W        W46896   2.606  12.895   4.938 -0.0199  0.1642 -0.0632
28693W        W46897  12.449   1.376   2.510  0.0727  0.0217  0.1587
28694W        W46898   4.281  12.681  11.326  0.1346 -0.2767 -0.1042
28695W        W46899   1.545  12.686   3.250 -0.1951  0.2251  0.0710
28696W        W46900   5.519   9.625  12.782  0.4023  0.0241  0.5217
28697W        W46901   1.406  17.385  14.307  0.0255 -0.0843  0.0214
28698W        W46902  15.742  17.499   1.887  0.0907 -0.0592  0.0546
28699W        W46903   0.008  10.709  14.652  0.1821 -0.1766 -0.4691
28700W        W46904  13.162  16.394   5.667 -0.1093  0.0200  0.4596
28701W        W46905   3.638  17.631  15.639  0.1398  0.2447  0.1289
28702W        W46906  14.111  11.819   4.541 -0.0898 -0.0577  0.2073
28703W        W46907   0.883  14.719   1.013  0.1644  0.0254 -0.0022
28704W        W46908  10.462   4.197  10.632 -0.2814  0.5300  0.3234
28705W        W46909   7.861   4.562   1.168 -0.0853  0.3005 -0.1968
28706W        W46910  18.101   7.068  12.141 -0.0802 -0.1084 -0.1789
28707W        W46911  15.455   1.254   4.538 -0.1105  0.1087 -0.2018
28708W        W46912  10.608  13.017   2.528 -0.0861 -0.0859 -0.3810
28709W        W46913  11.835  17.641   4.825 -0.0809 -0.0138  0.2690
28710W        W46914   5.925   6.264  15.019  0.1901 -0.0438 -0.0687
28711W        W46915  16.842  14.943   2.793 -0.1102  0.1606 -0.1656
28712W        W46916   4.091   1.566  13.727 -0.4435 -0.0962  0.2448
28713W        W46917   0.827   2.363   0.899  0.2504  0.1466  0.0363
28714W        W46918  12.628   8.835  13.335 -0.1985  0.2119  0.0536
28715W        W46919   6.233  14.707  12.524 -0.0915  0.2469  0.0472
28716W        W46920  15.499  18.251  14.875 -0.0602 -0.0209  0.0063
28717W        W46921   7.099  11.119  15.257 -0.2647  0.1703 -0.1121
28718W        W46922   6.871   9.222  11.927  0.1736  0.0853 -0.1582
28719W        W46923   8.678   5.721   0.566 -0.1098  0.1119 -0.2890
28720W        W46924   9.194  15.970   0.435 -0.0376  0.2641 -0.0468
28721W        W46925   2.469  14.101   2.702  0.0594 -0.0220  0.1663
28722W        W46926  10.756  14.248   3.492  0.0856 -0.0464  0.2224
28723W        W46927   0.100   9.758   2.835  0.0120  0.2934 -0.0559
28724W        W46928   5.839   2.904  13.063  0.0659  0.3879  0.1981
28725W        W46929   7.686   2.644   1.305 -0.1797  0.1367  0.1089
28726W        W46930   1.324  12.842  12.750 -0.1650 -0.0533 -0.1274
28727W        W46931  13.091   1.467  13.674  0.2016  0.0107 -0.1264
28728W        W46932   5.938  16.645  14.706 -0.1581  0.3172  0.2721
28729W        W46933  15.657  12.510   2.223  0.0092  0.3285 -0.2551
28730W        W46934  15.599   2.519   0.121  0.0476  0.2471  0.1659
28731W        W46935  14.898   6.084   5.357  0.1465 -0.0291 -0.0342
28732W        W46936   4.472   7.575  14.778  0.0400 -0.1120 -0.0444
28733W        W46937  10.117   3.962  10.908  0.3086 -0.0670  0.2699
28734W        W46938   6.428   6.191  11.593  0.0631 -0.0302 -0.0356
28735W        W46939   9.517  14.221   1.090  0.0038  0.0537 -0.3507
28736W        W46940  10.282   3.490  12.286  0.3025  0.0312  0.0157
28737W        W46941  13.805   5.214   1.309  0.1410 -0.1080  0.2801
28738W        W46942   1.680  12.596   0.995 -0.3093  0.3965  0.1002
28739W        W46943   5.174   0.590  14.876  0.1048 -0.5166  0.0772
28740W        W46944   1.234   3.536   1.343  0.1637  0.1335  0.0425
28741W        W46945   7.387   9.314  14.166 -0.0379 -0.2279 -0.1473
28742W        W46946   0.322  15.733   3.353 -0.0095  0.4739  0.0804
28743W        W46947   7.706   6.824  12.052 -0.0995  0.0870 -0.1420
28744W        W46948  13.037  17.466   4.084  0.1947  0.1883  0.1906
28745W        W46949   9.846   3.763  11.763  0.1623 -0.0998  0.2716
28746W        W46950  11.008   6.094  13.358  0.3149  0.1112 -0.0372
28747W        W46951   6.891   7.825  11.690 -0.0024 -0.1924  0.2083
28748W        W46952   0.250   1.265  14.043  0.2920 -0.1357 -0.3247
28749W        W46953   8.210  15.195  10.930 -0.0357 -0.2596  0.1851
28750W        W46954   0.405   8.810  12.349  0.3823  0.0341  0.1997
28751W        W46955   6.418   9.991   2.803  0.0029  0.2498  0.2186
28752W        W46956  12.576   9.869   3.848  0.2728 -0.2656 -0.2098
28753W        W46957   5.019  14.795   1.307  0.3721 -0.0650  0.2636
28754W        W46958  15.449   9.100   3.505  0.2217 -0.0514  0.0393
28755W        W46959  10.876   9.861   3.069 -0.0201  0.5930 -0.0945
28756W        W46960   1.017  15.629  14.152 -0.0220 -0.0932  0.2135
28757W        W46961  11.076  10.586  15.515  0.0005 -0.0397  0.2546
28758W        W46962   6.987   1.356  12.717  0.1318 -0.2066 -0.1304
28759W        W46963   3.430   4.808   1.350 -0.1893 -0.0527  0.1707
28760W        W46964   9.485  15.511   0.462  0.0224  0.0723 -0.0220
28761W        W46965  18.053  12.882  12.219  0.0744 -0.0390  0.1242
28762W        W46966   3.938   1.317  14.649 -0.1355 -0.2874 -0.0233
28763W        W46967   2.617   6.146   3.048  0.1520 -0.1304  0.0622
28764W        W46968  15.298   7.991   0.291  0.0958  0.2595 -0.1926
28765W        W46969   8.620   0.302   3.641 -0.1775 -0.0759 -0.2608
28766W        W46970  14.829  17.721  14.800  0.0946 -0.2755 -0.4479
28767W        W46971  12.693  16.895  13.734 -0.1071  0.0755 -0.2743
28768W        W46972   3.614  12.175  14.700  0.0028  0.1355  0.2218
28769W        W46973   6.439  16.802   3.343  0.0706  0.0725  0.0782
28770W        W46974  12.634   8.248   2.929 -0.2240 -0.1328 -0.1096
28771W        W46975   7.044   6.185   1.288  0.2893  0.0007 -0.3142
28772W        W46976   5.074  10.632  15.285 -0.0233  0.1468  0.0157
28773W        W46977  11.424   3.836  14.805 -0.1240 -0.0592  0.3605
28774W        W46978  16.681   6.031  11.850 -0.2908 -0.0018  0.0181
28775W        W46979   8.969  15.536  12.429  0.0736 -0.0215  0.2229
28776W        W46980   6.159  11.949   0.300  0.2515 -0.1401  0.2437
28777W        W46981   8.889   6.431  13.692 -0.2535 -0.1774 -0.2433
28778W        W46982  17.361  12.772  11.476  0.1820  0.3325  0.1896
28779W        W46983   3.513  12.631  14.934 -0.1299  0.0825  0.1494
28780W        W46984  17.373  12.057  10.782  0.0077 -0.1981 -0.1860
28781W        W46985  14.587   7.819  14.143 -0.0112  0.0325  0.0087
28782W        W46986   4.230   8.846   3.710  0.2606 -0.0707 -0.1701
28783W        W46987   6.298  10.079  13.316  0.0079  0.0577  0.2303
28784W        W46988  10.612   3.155  14.365  0.0270  0.0852  0.2227
28785W        W46989   1.892   0.636  11.651  0.0104  0.1168 -0.0069
28786W        W46990   4.249   9.683  14.663 -0.1184 -0.2111  0.1894
28787W        W46991  13.207   1.954   1.245  0.0395  0.1406  0.3721
28788W        W46992   4.275  15.840  15.631 -0.3142 -0.4882 -0.1943
28789W        W46993   0.638   4.421   1.985 -0.1435 -0.0243 -0.0963
28790W        W46994   6.660   2.681   1.136 -0.0080 -0.1640 -0.1308
28791W        W46995   6.094  15.810   0.450 -0.2904  0.1072 -0.5061
28792W        W46996  12.268  12.458   2.615 -0.0109 -0.0243 -0.1946
28793W        W46997   6.750  15.337   4.047  0.0373 -0.0825  0.0721
28794W        W46998  12.617  13.194   4.785  0.2869 -0.2425  0.2866
28795W        W46999  11.086   2.986   0.922 -0.2368 -0.2274 -0.5221
28796W        W47000  10.348   6.484  14.577  0.4096  0.0459  0.0585
28797W        W47001   7.165   5.111  14.542 -0.2650 -0.1110 -0.0696
28798W        W47002   9.925  16.242   1.345  0.1464  0.0336  0.2435
28799W        W47003   1.951   1.094  13.142  0.1242  0.0743  0.2260
28800W        W47004   9.572   4.119   2.577 -0.1893  0.0267  0.0491
28801W        W47005  12.578   5.958   3.809  0.0888 -0.2449  0.2653
28802W        W47006   3.203  14.102  15.422 -0.2637 -0.1058  0.4093
28803W        W47007   5.529   9.725   1.999 -0.1046 -0.2861  0.2671
28804W        W47008  10.036  13.129  13.707 -0.0395  0.0018 -0.0148
28805W        W47009   6.387  15.389  10.947 -0.0554  0.2864  0.3046
28806W        W47010   9.515   8.649   3.874 -0.1619  0.2249 -0.1443
28807W        W47011   4.668   2.543  12.000  0.0336  0.0260 -0.0468
28808W        W47012   6.722   3.159   3.011 -0.1457 -0.2397 -0.3352
28809W        W47013  10.154   2.227  13.032 -0.0473  0.0741 -0.1470
28810W        W47014   4.374   9.586  11.142 -0.0999 -0.0499 -0.1130
28811W        W47015  16.103   2.343   2.966 -0.1641  0.1686  0.0364
28812W        W47016   3.943  14.962   0.120  0.0013 -0.1046  0.0691
28813W        W47017   2.009  17.304   2.809  0.0825 -0.2085 -0.1503
28814W        W47018   5.414   2.198   3.436 -0.0671 -0.1316  0.1509
28815W        W47019   2.113  10.548   3.770  0.4863  0.2823 -0.3572
28816W        W47020   2.217  10.608  13.955 -0.0025  0.3873 -0.3582
28817W        W47021  17.155   6.598   4.747 -0.3947  0.0595  0.1065
28818W        W47022   3.953   0.336  14.785  0.0162  0.1224 -0.3079
28819W        W47023  13.982   9.407   1.857  0.2569 -0.0108 -0.2279
28820W        W47024   7.349   5.361   4.206 -0.2757 -0.2516 -0.2723
28821W        W47025  12.249  14.691   4.602  0.1529 -0.0126 -0.2288
28822W        W47026  14.620  13.273   4.665 -0.0955  0.1173 -0.2443
28823W        W47027   4.685  11.460  11.446 -0.1734 -0.1294  0.0617
28824W        W47028  17.897   4.543  12.299 -0.0991  0.3082 -0.0038
28825W        W47029   8.402  12.476  14.798 -0.1032 -0.0801 -0.0583
28826W        W47030  18.082   7.366   4.524 -0.0463 -0.0138 -0.2509
28827W        W47031  17.938   3.574   4.735 -0.0548  0.1512 -0.0705
28828W        W47032   0.560   2.163   3.277  0.2457  0.1498  0.2008
28829W        W47033  13.957   5.030  14.880 -0.0203 -0.1575  0.1853
28830W        W47034   2.959   1.846  15.399 -0.1347  0.2642  0.1284
28831W        W47035  16.167   1.561  13.033  0.0909 -0.0216 -0.0744
28832W        W47036  14.535   4.214  11.675  0.3746  0.0306  0.1511
28833W        W47037  12.539  15.150  10.967  0.0319 -0.2197  0.1784
28834W        W47038   9.601  13.305  10.004 -0.0100 -0.1860  0.0658
28835W        W47039   3.664  14.338   3.903  0.2308 -0.0748 -0.1100
28836W        W47040   9.625  16.900   4.554  0.1114 -0.3831  0.0161
28837W        W47041  13.140   7.710   0.793  0.3618 -0.3498 -0.0503
28838W        W47042   5.367  17.951   2.494 -0.1292  0.1877  0.0198
28839W        W47043  12.442   6.082   1.470 -0.1589  0.4034 -0.0849
28840W        W47044  18.102  12.352  11.877 -0.1339  0.1706 -0.0847
28841W        W47045  16.080   9.751  11.560 -0.0444 -0.0453  0.0133
28842W        W47046  17.869   7.698  14.072 -0.0632  0.1963 -0.1123
28843W        W47047   1.383   0.390  14.520 -0.0287  0.1029  0.0350
28844W        W47048  16.055  14.404  10.723 -0.2795  0.2310 -0.1909
28845W        W47049   5.934   5.192  13.295 -0.0122 -0.1039 -0.1463
28846W        W47050  10.432   5.983   0.288 -0.1536  0.1004  0.0939
28847W        W47051   4.836   9.908   0.774  0.1318 -0.0816  0.1392
28848W        W47052   0.763   3.845   5.607  0.2185  0.1341  0.0275
28849W        W47053  17.999  10.150   2.800  0.1374  0.0449  0.0561
28850W        W47054   8.177   0.437   4.672  0.2354 -0.1634 -0.2032
28851W        W47055  12.364   0.310  10.873  0.0173 -0.3368  0.0043
28852W        W47056  11.373  13.514  12.760 -0.2169 -0.2592 -0.1156
28853W        W47057  14.418   6.233   3.998 -0.2576  0.0168 -0.2391
28854W        W47058  15.407  15.566   4.631 -0.0474  0.0342 -0.1745
28855W        W47059  16.795   9.366  15.362  0.0319  0.1890  0.1434
28856W        W47060   9.621   8.292   5.329 -0.0612 -0.0303 -0.1497
28857W        W47061  17.667   1.752  13.856  0.1282  0.0144  0.0124
28858W        W47062   4.719  16.015   2.577  0.2383  0.1333  0.0878
28859W        W47063  15.670   6.994   2.976 -0.1751  0.1133  0.1075
28860W        W47064   2.449  15.778   3.100  0.3626  0.0787 -0.1096
28861W        W47065  13.013   4.097   0.243  0.1147  0.0488  0.0484
28862W        W47066  11.994  10.754  11.432 -0.0550  0.2221 -0.0154
28863W        W47067  11.701  11.638   0.747 -0.0582 -0.1580  0.0595
28864W        W47068   7.817  15.870  14.563  0.3051 -0.0310  0.1187
28865W        W47069  12.282   9.849  12.984  0.0298  0.1010  0.0497
28866W        W47070   5.181  12.770  14.365 -0.0496 -0.2731 -0.1266
28867W        W47071  14.927   2.257  13.828 -0.3686 -0.0593 -0.0593
28868W        W47072   3.046  13.766  11.646  0.0978 -0.1481 -0.0144
28869W        W47073  14.796  18.097   4.177 -0.3051  0.2271  0.1131
28870W        W47074  13.330   9.230   2.874 -0.0737 -0.0170 -0.0741
28871W        W47075   4.072   0.352  14.274 -0.1416 -0.1330  0.0805
28872W        W47076   5.346   3.580   0.700 -0.0398  0.1044  0.2224
28873W        W47077  16.373  11.829   3.000  0.0817  0.0286  0.2330
28874W        W47078  15.346   0.012   3.136 -0.1026 -0.0190  0.0978
28875W        W47079  14.298  14.913   0.968  0.1754 -0.0338 -0.1198
28876W        W47080  12.389   8.300  11.848 -0.1726  0.2292  0.0538
28877W        W47081   9.143   3.922  14.402 -0.2178 -0.1535 -0.0159
28878W        W47082  12.333  11.670   2.135  0.1926  0.0316  0.1060
28879W        W47083   0.594  16.176   0.422 -0.0464  0.4935  0.3502
28880W        W47084  12.795  16.786   1.600  0.2618 -0.2141 -0.0145
28881W        W47085  18.101   4.050   1.670  0.0086  0.0660  0.0994
28882W        W47086   2.946  16.616   4.158 -0.2159 -0.2064 -0.3694
28883W        W47087  14.818   7.294   4.085  0.1716 -0.2627  0.2102
28884W        W47088   9.291   9.507  11.735  0.1710  0.0991 -0.0838
28885W        W47089   7.176   8.697   5.058  0.1040  0.3794 -0.3102
28886W        W47090  16.970  12.926   4.327  0.0921  0.1418 -0.0984
28887W        W47091  17.491  15.666  14.072 -0.0626 -0.3809 -0.2048
28888W        W47092  14.102   7.257   3.875 -0.3664 -0.1618 -0.0465
28889W        W47093  12.888   0.552   4.242  0.1263 -0.1037 -0.1612
28890W        W47094  15.862   0.356  15.329 -0.0808 -0.1135  0.3803
28891W        W47095  15.125   1.594  12.095  0.1336 -0.0381  0.1167
28892W        W47096   6.431   6.642  13.629  0.3653 -0.2850 -0.0910
28893W        W47097   9.556   0.929  15.413  0.0127  0.2454 -0.1732
28894W        W47098  12.693  17.979   2.898 -0.2015 -0.0923  0.1661
28895W        W47099   3.864   6.825  12.435 -0.0798 -0.0233  0.0581
28896W        W47100   6.265  10.001  11.883  0.2612  0.3403  0.1547
28897W        W47101   5.319  13.435   3.485  0.0417 -0.2069 -0.3983
28898W        W47102  10.414  16.447  11.598 -0.1316  0.4451 -0.1841
28899W        W47103   8.681  15.483   4.482 -0.1091 -0.0077  0.2152
28900W        W47104  13.252   0.096   1.426  0.0092 -0.1387  0.3558
28901W        W47105   3.847   6.959  11.218  0.0156 -0.0942  0.0947
28902W        W47106  15.852  17.609   3.767  0.1259 -0.1801 -0.0558
28903W        W47107   5.155  18.233  13.764 -0.2452  0.2770 -0.1521
28904W        W47108  16.181  18.234  14.458 -0.3923 -0.1835  0.1421
28905W        W47109  11.146   0.378   1.325  0.0985  0.2067 -0.1379
28906W        W47110  10.734   4.504  12.645 -0.1864 -0.1205  0.0928
28907W        W47111   2.323  17.340   0.417  0.1798  0.3646  0.3446
28908W        W47112  15.892   6.105   5.490 -0.0138  0.3687 -0.1890
28909W        W47113  11.383  16.651  13.456  0.0500  0.0018  0.0728
28910W        W47114  18.146  15.063   1.377  0.2330  0.0038  0.0922
28911W        W47115   7.465  12.625   0.128  0.0229 -0.2218 -0.0780
28912W        W47116  17.734   4.845   4.322  0.2177 -0.4326  0.0897
28913W        W47117   1.151   7.080   3.755 -0.1856 -0.1188 -0.1101
28914W        W47118   4.457   1.505  15.554 -0.0798  0.0008  0.2280
28915W        W47119   2.063  17.159  15.715 -0.0495 -0.1295 -0.0962
28916W        W47120  16.142  13.246  11.532 -0.3610 -0.3193 -0.1083
28917W        W47121   1.645  10.055  15.462 -0.1021 -0.1085 -0.0312
28918W        W47122  17.665  17.113   1.337 -0.0369  0.1931  0.3725
28919W        W47123  13.790   7.963   4.534 -0.2501  0.0601  0.3049
28920W        W47124   2.825  17.088   3.978 -0.0063 -0.0353 -0.2072
28921W        W47125  18.170  12.935   1.851 -0.0077 -0.0864  0.0178
28922W        W47126  15.190   7.226  13.431  0.1653 -0.1394  0.0238
28923W        W47127  11.934  13.708   3.694  0.2059  0.0671  0.0165
28924W        W47128   8.221   1.757  11.963  0.1967  0.2522  0.1323
28925W        W47129   2.172   5.963  15.053 -0.2133  0.0686  0.1889
28926W        W47130  12.793   3.489  15.157 -0.1010 -0.0366 -0.2976
28927W        W47131   6.567   5.360  12.571 -0.1325  0.1469  0.2101
28928W        W47132  16.743   0.744  12.736  0.2161  0.2176 -0.0135
28929W        W47133  10.418  16.863   1.536  0.3135 -0.2749 -0.1498
28930W        W47134  12.455  16.619  14.499 -0.0606 -0.1192  0.1990
28931W        W47135   9.589  13.624  11.812 -0.0218 -0.1327  0.1665
28932W        W47136   5.661  17.176   2.258  0.0460  0.0559  0.2526
28933W        W47137  17.938   2.971  14.918  0.2697  0.0056 -0.0621
28934W        W47138  14.767   3.559   4.862  0.0770 -0.1974  0.3946
28935W        W47139   8.803  10.984  13.545 -0.1641  0.1794  0.0851
28936W        W47140  16.798  10.289  15.169 -0.1363  0.1979 -0.3669
28937W        W47141  15.253  17.100   4.384  0.4706 -0.2304 -0.3488
28938W        W47142  13.841  15.754   2.736  0.1005  0.2654  0.2069
28939W        W47143  10.463   9.720   3.419 -0.1280 -0.0204  0.1732
28940W        W47144   2.858  12.336   2.831 -0.1851 -0.1400 -0.0341
28941W        W47145   6.887   9.823  11.764 -0.3001  0.1280  0.0770
28942W        W47146  16.067  13.924   2.202  0.0400 -0.3007 -0.1826
28943W        W47147   2.552   3.906  14.882 -0.1988 -0.1751 -0.0700
28944W        W47148  11.855   7.388  11.699  0.0948 -0.1694 -0.0040
28945W        W47149   4.732  14.803  12.915  0.0067  0.0229  0.0746
28946W        W47150   8.242  10.716   4.810 -0.0584  0.0088  0.2003
28947W        W47151   6.339   9.430  14.200  0.0979  0.1759 -0.2286
28948W        W47152   3.696  10.580  11.673 -0.0148 -0.0062 -0.4009
28949W        W47153  18.058   4.004  13.915  0.2387  0.2571  0.1111
28950W        W47154   6.443   5.898   2.321 -0.0281 -0.0688  0.1529
28951W        W47155   3.534   2.467  12.823 -0.1824 -0.0023  0.2049
28952W        W47156   3.913   4.522   1.202 -0.2398 -0.0315 -0.0565
28953W        W47157   3.537   7.091  14.009 -0.0705  0.0916 -0.0510
28954W        W47158   2.753  12.039  13.492  0.1491 -0.1737 -0.0729
28955W        W47159   5.134   4.593  15.676 -0.3024  0.0751  0.0241
28956W        W47160   8.562  15.474   1.605 -0.0661  0.2216 -0.1396
28957W        W47161   6.780   9.326  12.409 -0.0114 -0.0876 -0.0147
28958W        W47162   1.716   8.802  12.042  0.1345 -0.0571 -0.2380
28959W        W47163  10.630   4.206   2.513  0.2518 -0.3675  0.4593
28960W        W47164  15.321   4.753  14.336 -0.3226  0.2623  0.0667
28961W        W47165  17.897  13.609  15.402 -0.0582 -0.0393  0.1067
28962W        W47166  16.256  10.319  13.736 -0.2959 -0.0709 -0.3175
28963W        W47167  13.899   3.603   3.111 -0.1912  0.3217  0.0108
28964W        W47168  13.687  14.683   4.124  0.0133 -0.0726 -0.1757
28965W        W47169  17.109  13.747  13.834  0.3171 -0.2068 -0.2399
28966W        W47170  16.207   1.259  11.101 -0.0840 -0.0783 -0.1100
28967W        W47171  13.438   6.151   2.491 -0.2319 -0.1461  0.1646
28968W        W47172  15.760   4.808  12.188 -0.0265  0.0861 -0.0682
28969W        W47173   6.357  13.483   0.052  0.1848  0.2677 -0.0639
28970W        W47174  11.650   8.658  11.650  0.1315  0.0604 -0.0160
28971W        W47175   1.903  12.337  13.220 -0.1385  0.2294 -0.1171
28972W        W47176   7.629  14.664  10.397  0.3850  0.1373 -0.2586
28973W        W47177   6.359  12.133   3.950  0.2376 -0.1192  0.4046
28974W        W47178   6.371   7.449  13.676 -0.0278  0.0248  0.0839
28975W        W47179  17.504  11.589  15.589 -0.0984 -0.0580 -0.1632
28976W        W47180  10.482   4.700   3.806  0.0355  0.1729  0.2644
28977W        W47181  14.219  17.556   2.762 -0.1953  0.3212  0.3004
28978W        W47182   9.107   6.760  14.993 -0.1261 -0.2540  0.3162
28979W        W47183  17.184   4.045   1.920 -0.1431 -0.3161 -0.1809
28980W        W47184   0.604   4.014  11.858  0.1104  0.0198  0.1168
28981W        W47185  16.683  18.066   2.200 -0.0466 -0.1174  0.0718
28982W        W47186   9.440   3.015  13.820  0.1057  0.2516 -0.1917
28983W        W47187   9.212  17.658  11.845  0.3252  0.2716 -0.0726
28984W        W47188   8.126   9.405   2.185  0.0431 -0.0112 -0.2741
28985W        W47189  17.708  16.691   4.368  0.4304 -0.1469 -0.0102
28986W        W47190   4.417  14.309  13.756  0.3297 -0.0221 -0.1382
28987W        W47191   2.067  16.090   0.654  0.2128 -0.1214  0.1476
28988W        W47192   1.410   1.096  15.284  0.0698  0.0229 -0.1632
28989W        W47193   0.712   8.980  13.894  0.0934  0.2027 -0.2404
28990W        W47194  11.008  17.745  14.681 -0.0483  0.0206  0.2659
28991W        W47195  16.571   6.541   3.439  0.0250  0.0034 -0.0326
28992W        W47196   1.831   7.083  12.606  0.1902 -0.2946 -0.0651
28993W        W47197  13.015   9.634  14.848 -0.0500 -0.0415  0.1172
28994W        W47198   4.401  15.520  15.221 -0.1760 -0.1532 -0.0521
28995W        W47199   0.986   7.054   1.505 -0.0362  0.2686  0.0068
28996W        W47200   2.997   5.811   2.649  0.4209  0.2003 -0.0888
28997W        W47201  11.345   2.104   0.540  0.0005 -0.0573  0.1792
28998W        W47202   1.239   4.322   2.728  0.2677 -0.0644  0.3737
28999W        W47203   4.877  15.430  14.247  0.3156 -0.1098  0.1702
29000W        W47204   4.321  15.426   3.605  0.0312  0.1878  0.0229
29001W        W47205   5.448   2.317   2.978 -0.0443 -0.0645 -0.0854
29002W        W47206   7.315  13.541  13.180  0.1670  0.2575  0.0609
29003W        W47207  17.207   5.556   3.281 -0.1038  0.0770 -0.3805
29004W        W47208   0.178  14.196  14.752  0.0252  0.1278  0.0906
29005W        W47209   9.487   5.548   3.361  0.2335  0.3787  0.0573
29006W        W47210   6.366  11.683  14.683 -0.2531 -0.0648 -0.0731
29007W        W47211   0.114  11.213  11.838 -0.3652  0.3081  0.3163
29008W        W47212   5.897   0.672   2.248 -0.3102 -0.0679  0.0882
29009W        W47213  12.612   3.952  10.829 -0.1571 -0.0361  0.2910
29010W        W47214   3.072   7.508  13.241 -0.1797 -0.0454  0.1325
29011W        W47215  14.843  14.536   2.010 -0.3359  0.0456 -0.2583
29012W        W47216   9.898   0.267   3.718 -0.2001 -0.1161 -0.0015
29013W        W47217  12.501   7.879   4.088  0.4091 -0.3055 -0.0835
29014W        W47218   9.100   0.875  14.496  0.1444 -0.0540  0.1514
29015W        W47219   8.567   2.309  14.521  0.0540  0.0660  0.0021
29016W        W47220   8.599  11.659  11.173  0.0648 -0.1195 -0.2665
29017W        W47221  12.499   3.425   4.617  0.2198  0.0202  0.0056
29018W        W47222   0.625   5.918  15.110  0.0215  0.0444  0.1571
29019W        W47223   2.017   0.728   2.624  0.1498 -0.2766 -0.0504
29020W        W47224   2.827  10.989   1.620  0.3157 -0.0303  0.1383
29021W        W47225  16.603   3.608   3.798 -0.1917 -0.3221 -0.1616
29022W        W47226   8.562  13.067   1.799 -0.0409 -0.0502  0.1642
29023W        W47227  14.982   2.465   2.569  0.0194  0.0651 -0.0150
29024W        W47228   4.821  18.244   2.602 -0.3489  0.0879 -0.0952
29025W        W47229  16.098   2.272  14.511  0.2441 -0.2356  0.0078
29026W        W47230   7.990   5.617  14.073 -0.0866  0.1466  0.1952
29027W        W47231  15.545   4.139   5.056  0.0205  0.0678  0.2275
29028W        W47232   6.680   5.457  12.047 -0.2260 -0.0918 -0.1588
29029W        W47233   4.845   9.483  15.677 -0.1610 -0.1382 -0.0347
29030W        W47234   6.158  13.676  10.971  0.0054 -0.0132  0.0372
29031W        W47235   8.842  15.544  13.202  0.2351 -0.0420 -0.0793
29032W        W47236   2.101  11.338  12.185  0.1228 -0.0667 -0.2373
29033W        W47237  11.294  16.209   2.604  0.1301  0.0268 -0.0349
29034W        W47238   0.446  15.400   2.020  0.1427  0.1241  0.0711
29035W        W47239   4.130   2.399  10.097 -0.1612  0.1412 -0.2608
29036W        W47240   6.778  14.969   3.283  0.0654  0.2482 -0.1243
29037W        W47241   7.635   5.400   2.116 -0.0495 -0.1343 -0.0694
29038W        W47242   1.724   4.658  13.311  0.1847  0.1131  0.0533
29039W        W47243   9.126  15.783   4.549  0.1029  0.2557 -0.1102
29040W        W47244  15.383   6.970  13.093 -0.2240 -0.2099  0.4275
29041W        W47245  16.882   5.860  14.097  0.1998  0.4823  0.1513
29042W        W47246   6.988  10.358  13.964 -0.2121  0.2709 -0.1467
29043W        W47247   4.174  14.752  14.836 -0.0834 -0.1499  0.0752
29044W        W47248   5.758  14.517   2.514 -0.0385 -0.0351  0.1385
29045W        W47249  17.840   8.083   1.359 -0.0885 -0.0381 -0.0764
29046W        W47250   3.294   1.377   2.967  0.0851  0.1696 -0.1341
29047W        W47251  12.115  12.411   0.993  0.0895  0.0831 -0.0726
29048W        W47252   0.363  16.332   3.189  0.1717  0.1567 -0.1382
29049W        W47253  16.991  11.136  13.593  0.3164 -0.1404 -0.3621
29050W        W47254   3.177  12.083  13.143 -0.2567 -0.0191 -0.2199
29051W        W47255  16.260  16.290  15.422  0.0405 -0.2143 -0.3620
29052W        W47256  15.477   5.384   0.937 -0.2740  0.0814 -0.0041
29053W        W47257  16.288   6.070   2.105 -0.0083  0.3145 -0.0663
29054W        W47258   9.209   5.788   1.247 -0.2995 -0.2684  0.2336
29055W        W47259   1.263   2.628  14.520  0.2265  0.2512 -0.3030
29056W        W47260   2.601  14.089   1.272 -0.1445  0.2361 -0.0661
29057W        W47261   5.329  17.691   1.983  0.1090  0.0525 -0.4119
29058W        W47262   4.118  18.345   1.856  0.0475  0.1101  0.1365
29059W        W47263   4.213   6.703  11.040 -0.0345 -0.2505 -0.2287
29060W        W47264   2.826  16.501  15.394  0.1863 -0.0437 -0.1859
29061W        W47265   3.049   7.710  11.053  0.1140 -0.0060 -0.2005
29062W        W47266  12.813  10.364  15.462  0.0778 -0.2345 -0.1071
29063W        W47267   9.822   0.519  15.611  0.0489  0.0350  0.0254
29064W        W47268  15.650   5.879  15.217 -0.5640  0.2802 -0.0227
29065W        W47269   0.859  16.677  11.157  0.1756  0.0093  0.2440
29066W        W47270   7.868   4.129  13.871 -0.0028  0.3183  0.1581
29067W        W47271   5.686  14.925  10.633 -0.3797  0.1227 -0.0099
29068W        W47272  15.765   8.969  14.654 -0.0287  0.1090  0.2439
29069W        W47273  14.990  14.700  14.595 -0.0634  0.0573 -0.1315
29070W        W47274   7.791   0.115  14.436  0.0591  0.0485 -0.1988
29071W        W47275  16.388   5.950  12.436  0.1158  0.0835  0.3002
29072W        W47276  11.405   9.435   1.380  0.0112 -0.2838 -0.1180
29073W        W47277   3.009  17.656   3.207  0.0894 -0.1726 -0.5291
29074W        W47278   0.080   0.483  11.716  0.4059 -0.0813 -0.3571
29075W        W47279   9.343   5.413  11.354 -0.0388  0.0759 -0.1296
29076W        W47280  13.783   0.745  14.693  0.0416 -0.0096 -0.0906
29077W        W47281   2.164  10.815  15.202  0.2208 -0.0913  0.3044
29078W        W47282   7.452   9.867   2.438 -0.0438  0.0488  0.0321
29079W        W47283   6.276   6.043   4.436  0.0643 -0.0625  0.1454
29080W        W47284   5.626   1.055   0.275 -0.0862  0.0268 -0.3590
29081W        W47285  14.745   9.468   1.970 -0.0672  0.1621  0.0209
29082W        W47286   2.271  10.366   2.943 -0.0811 -0.0145 -0.1821
29083W        W47287  15.469  12.945  13.023  0.0374  0.1196 -0.0808
29084W        W47288  11.606  15.487   2.976  0.2557 -0.1108  0.1771
29085W        W47289   3.466  12.369   3.064  0.1327 -0.0069 -0.0614
29086W        W47290   1.269  12.617  13.839 -0.2120 -0.1352 -0.1007
29087W        W47291   4.280   8.935  12.849  0.2971 -0.1309  0.1083
29088W        W47292   6.654   9.085   5.140 -0.1788  0.2040 -0.2312
29089W        W47293  11.660  15.623  12.859 -0.3077  0.0061  0.1809
29090W        W47294  13.145  11.999   4.532 -0.1378  0.1045 -0.0539
29091W        W47295  10.038   0.167   0.217 -0.4527 -0.0167  0.2064
29092W        W47296   5.938   5.284   0.663  0.0927  0.1608  0.1492
29093W        W47297   2.705   0.054  12.817  0.1258  0.2083 -0.0690
29094W        W47298  15.565   7.220  12.597 -0.0378 -0.0839  0.3389
29095W        W47299  11.509   2.458  11.939  0.2033  0.1906 -0.1224
29096W        W47300   5.209   3.570  15.514 -0.0632 -0.0202 -0.0755
29097W        W47301   3.591   4.385   0.617  0.1044 -0.2042 -0.1473
29098W        W47302  12.221   2.859   1.833  0.0281 -0.0834  0.0470
29099W        W47303  11.093   5.786   0.897  0.1567 -0.3507  0.0919
29100W        W47304   9.430  12.245   1.008  0.0125 -0.0584 -0.2882
29101W        W47305   6.674   8.828   4.261  0.2427  0.1442 -0.0121
29102W        W47306  17.249   2.222  11.440 -0.3837  0.0531  0.0009
29103W        W47307  10.332  15.403   3.826 -0.4937  0.3807  0.0401
29104W        W47308   7.887   6.596  12.643 -0.2609  0.0361 -0.2518
29105W        W47309   3.852  14.713   2.463 -0.2451  0.1041  0.2806
29106W        W47310   2.514   8.220  13.773 -0.1051  0.1735  0.0022
29107W        W47311   2.347   6.906   1.107 -0.1372 -0.2469  0.0265
29108W        W47312   7.119   6.253   0.305  0.0467  0.1807 -0.0296
29109W        W47313   4.561   5.065  13.891  0.1354  0.1509  0.1993
29110W        W47314  11.321  13.295   5.147  0.2231  0.3085 -0.1572
29111W        W47315  11.182  11.354   1.917  0.1025 -0.0225 -0.0121
29112W        W47316  16.224  11.981   2.260 -0.1931 -0.0067 -0.0505
29113W        W47317  17.268   9.970   4.324  0.1542 -0.2140 -0.1860
29114W        W47318   4.482  11.730   3.881  0.0695 -0.0543 -0.0729
29115W        W47319   2.296  11.302   3.379 -0.1227 -0.0267  0.1998
29116W        W47320  11.466  17.791  12.619 -0.3062 -0.3756 -0.0927
29117W        W47321  12.947   6.081   3.402  0.2579 -0.1198  0.0736
29118W        W47322  11.299   1.793  14.246 -0.3346 -0.1248  0.1917
29119W        W47323  11.797  17.673  15.092  0.1145  0.1770  0.3771
29120W        W47324  12.502   2.875  14.538 -0.0940  0.3086  0.0184
29121W        W47325  12.469  16.496  15.513  0.5514  0.1186  0.4935
29122W        W47326  14.233   0.885   4.318  0.0110  0.0776 -0.0503
29123W        W47327  17.879   5.500  14.803 -0.1940  0.3051 -0.0951
29124W        W47328   0.968  13.610   2.854  0.1227  0.4311 -0.3986
29125W        W47329   3.928  10.839   2.084  0.0199  0.0337  0.2374
29126W        W47330   5.659  17.887   0.883 -0.0008  0.0796  0.2408
29127W        W47331   3.603  10.168  15.627  0.0241  0.3107  0.0207
29128W        W47332   7.407  16.950   2.835  0.0739 -0.1386  0.0129
29129W        W47333   3.896  16.972  14.433  0.5057  0.0669  0.0127
29130W        W47334  13.007  17.165  15.207  0.2134 -0.0126 -0.0156
29131W        W47335  14.669  14.741  12.662 -0.0560 -0.2457  0.2294
29132W        W47336  14.932  17.394   1.263  0.2204 -0.2571 -0.3029
29133W        W47337  16.601  16.234  13.213  0.0421 -0.1541 -0.0481
29134W        W47338   8.378   1.072  13.659  0.0285 -0.3259  0.0081
29135W        W47339  18.319   7.036   1.291  0.1207 -0.0963  0.1833
29136W        W47340   0.866  17.890  14.601  0.2493 -0.4501  0.2398
29137W        W47341  13.010  11.291   1.424  0.2848  0.0107  0.0880
29138W        W47342  11.914   9.268   2.965  0.0073 -0.2112 -0.0545
29139W        W47343   7.283   5.715   2.012 -0.1888  0.2020 -0.1564
29140W        W47344   8.691   4.039  14.602  0.0556 -0.0604 -0.0834
29141W        W47345  16.167   6.895   3.270  0.1351  0.0553  0.0083
29142W        W47346   3.362  17.677   4.512 -0.2112  0.0491  0.1296
29143W        W47347   7.965   3.409   4.518 -0.0670 -0.2494  0.1019
29144W        W47348   7.670  16.948   1.004 -0.0856 -0.0486 -0.1024
29145W        W47349  12.195   9.146   1.542 -0.1936 -0.0899  0.0072
29146W        W47350   4.446  15.099  15.617 -0.0199 -0.2412  0.1815
29147W        W47351   8.630  17.504   1.162 -0.0269  0.2369 -0.2743
29148W        W47352   2.637   8.154  14.370 -0.2225  0.1486  0.0861
29149W        W47353  11.714   2.120  14.112 -0.0653 -0.1597 -0.1324
29150W        W47354   2.874  15.571   1.484  0.0758  0.1724 -0.0703
29151W        W47355  17.399   8.752  12.526 -0.2038 -0.1357 -0.1411
29152W        W47356   1.279   1.313   2.326 -0.0262  0.1677 -0.1653
29153W        W47357   0.446  18.285  15.249  0.0306  0.2555  0.1006
29154W        W47358   0.073  15.304   4.749 -0.0974 -0.0192  0.2071
29155W        W47359   1.667  12.098   1.010 -0.0094  0.0835  0.0747
29156W        W47360  18.287  18.361   0.442 -0.2217  0.0391 -0.1248
29157W        W47361   4.684   4.954  12.462 -0.1928 -0.1131  0.1318
29158W        W47362  17.867  15.877   4.973  0.0264 -0.0801  0.1495
29159W        W47363  13.637  17.400  13.055 -0.2360 -0.0250  0.0467
29160W        W47364   1.771  13.036   2.957 -0.0934  0.1539  0.2833
29161W        W47365   0.485   7.034   4.641  0.1255  0.0644  0.1017
29162W        W47366   2.926  14.768   2.177 -0.1699  0.2673 -0.0730
29163W        W47367  15.394   1.026  12.624  0.3517 -0.1501  0.0980
29164W        W47368   1.826  14.101   1.989 -0.1785 -0.1328  0.1721
29165W        W47369  12.711  12.543   3.013  0.0918 -0.1681 -0.0935
29166W        W47370   7.463   7.274  11.703 -0.0192  0.2656 -0.0971
29167W        W47371   5.155  12.952   3.368  0.2726 -0.2528  0.1061
29168W        W47372   7.333  13.836   0.593  0.0995 -0.0784  0.2248
29169W        W47373  11.178  13.972   1.932 -0.1737 -0.1770 -0.1460
29170W        W47374  12.592  10.108  14.999 -0.0100 -0.3079  0.0863
29171W        W47375  10.955   2.639   4.099  0.3848  0.2249  0.2121
29172W        W47376  13.249  11.138   3.738  0.4273 -0.1362 -0.1683
29173W        W47377  14.629  15.708  13.186  0.3553  0.0546 -0.1034
29174W        W47378   2.133   0.573  10.694  0.0120 -0.0586 -0.2351
29175W        W47379  13.654   6.970  14.499  0.3629  0.0144 -0.1158
29176W        W47380  16.258   4.420   4.534 -0.1550  0.2084 -0.0926
29177W        W47381   7.576  17.819  11.948 -0.1665  0.1733 -0.1005
29178W        W47382  14.945   3.580  14.102  0.0552  0.1377 -0.0838
29179W        W47383  10.912  10.799   4.336 -0.0717  0.0921  0.1693
29180W        W47384  10.905  11.450   5.946 -0.2789 -0.2114 -0.0080
29181W        W47385   0.106  14.300  12.056 -0.1365  0.2102 -0.0002
29182W        W47386  16.483   1.804   2.361  0.2729  0.2096 -0.2108
29183W        W47387   2.800  17.353  11.982 -0.0215  0.3993 -0.2945
29184W        W47388  17.845  10.678   3.749 -0.2325 -0.0884  0.0631
29185W        W47389   9.906   0.554  10.172  0.0757  0.2270 -0.5094
29186W        W47390   7.296  14.216  13.704 -0.0933  0.0799 -0.0254
29187W        W47391   7.868  14.704  10.834 -0.3595 -0.1191 -0.2167
29188W        W47392   9.064   2.976  13.521  0.2439  0.1765  0.0876
29189W        W47393   9.362   4.990  14.927 -0.0166  0.0847  0.1980
29190W        W47394   9.499   4.620  11.281  0.1673  0.2004  0.2060
29191W        W47395   5.180   0.062   2.263  0.2006 -0.1937  0.1253
29192W        W47396   8.214   8.108   3.222 -0.0460 -0.2691 -0.0905
29193W        W47397   7.965   3.288  14.767  0.1370  0.0029  0.0366
29194W        W47398   9.416  11.608  14.145 -0.1454 -0.0258 -0.0882
29195W        W47399  11.669   7.488  14.711 -0.1571 -0.0624 -0.1097
29196W        W47400  10.534   6.601   1.148  0.0208 -0.1286  0.0931
29197W        W47401  15.578  13.879  14.371  0.2704 -0.3325 -0.1781
29198W        W47402   2.400   5.559   3.988 -0.0954  0.2499  0.1878
29199W        W47403  13.588  13.549  11.596 -0.1700  0.2099 -0.0001
29200W        W47404   2.720  16.764   2.055 -0.0810 -0.0688  0.1821
29201W        W47405  17.440   8.717  15.300 -0.1744 -0.3184 -0.3473
29202W        W47406   5.939   1.788  15.385  0.1686  0.1875 -0.2480
29203W        W47407   3.713   7.896  14.430  0.0406  0.2375  0.0866
29204W        W47408   1.304   9.027   0.592 -0.0205 -0.1398  0.0387
29205W        W47409  17.428   6.534   1.454  0.1718 -0.0782 -0.0970
29206W        W47410   6.012   7.823  14.395 -0.2284  0.0236 -0.0303
29207W        W47411  13.730  11.148   5.154  0.0524  0.0046 -0.2969
29208W        W47412   8.274   7.904  12.513  0.0376 -0.1409 -0.1856
29209W        W47413  15.833  12.813  11.579  0.1261 -0.1574 -0.3138
29210W        W47414   7.053  12.983  11.173 -0.0254 -0.3931 -0.0878
29211W        W47415  13.412  13.798   5.889  0.0608  0.0239 -0.1593
29212W        W47416   6.534   1.709  12.633 -0.1225  0.3303  0.2459
29213W        W47417  18.034   9.952   5.526 -0.1521  0.0436 -0.1420
29214W        W47418  10.653  14.203  13.004  0.2189  0.1076  0.2482
29215W        W47419  13.682  16.536   2.125 -0.1034  0.1966 -0.6208
29216W        W47420  13.645  17.088  12.633  0.0831  0.0147  0.0468
29217W        W47421   2.288   4.638   2.797  0.0681  0.2418 -0.0584
29218W        W47422  18.053   6.819   4.396 -0.1609 -0.2724  0.1380
29219W        W47423   8.314   6.282   4.630 -0.0668 -0.1457 -0.1178
29220W        W47424   3.642   6.124  14.356  0.0111 -0.0870  0.0693
29221W        W47425   1.652   7.492   1.147 -0.1339  0.0051 -0.0972
29222W        W47426  14.030  14.678   3.601  0.0313 -0.0179  0.1952
29223W        W47427   9.493  16.343   0.606  0.0118 -0.6318 -0.2997
29224W        W47428   9.225  16.497  10.344  0.2627  0.0230 -0.2396
29225W        W47429  17.963   9.443   2.268 -0.0839  0.5861 -0.0706
29226W        W47430   4.968  14.883  14.298 -0.1756 -0.0196 -0.0645
29227W        W47431  12.669   3.060  10.276 -0.0969  0.1177  0.0733
29228W        W47432   4.602  17.023   4.076  0.0270  0.2272 -0.2665
29229W        W47433   3.628  15.004   1.590 -0.0796 -0.4074  0.0755
29230W        W47434   8.071   6.630   4.294 -0.1762  0.0103 -0.1532
29231W        W47435   9.923   5.734  12.216 -0.0265 -0.0714 -0.0573
29232W        W47436  18.375   3.886  15.556 -0.0833  0.1703 -0.0475
29233W        W47437   3.923  13.071   3.292 -0.3302 -0.0707 -0.3565
29234W        W47438  12.150   9.078  12.138  0.0403  0.0981 -0.0930
29235W        W47439  11.156  16.634  14.309 -0.0688 -0.1984 -0.0331
29236W        W47440   0.484   1.117   0.165  0.1661 -0.1298 -0.3085
29237W        W47441   7.365   9.697   4.303  0.1015  0.0158  0.1566
29238W        W47442  13.457  16.177  11.502  0.2006  0.2214 -0.1243
29239W        W47443   7.607   1.642   5.235  0.2492 -0.1976  0.3959
29240W        W47444   4.159  16.889  13.163  0.1735  0.1037 -0.0182
29241W        W47445  16.074  15.429   3.279 -0.1215 -0.1324 -0.0741
29242W        W47446  14.319  12.634   3.146 -0.2854 -0.1427  0.2055
29243W        W47447  11.236  10.274  11.114 -0.3425  0.1363 -0.0863
29244W        W47448   3.644  15.041  12.192  0.0269 -0.2050 -0.2594
29245W        W47449  16.786   1.341  11.943 -0.0584  0.0745  0.0459
29246W        W47450   5.408  16.705  14.488 -0.2898 -0.2393  0.2261
29247W        W47451   6.165   9.177  15.609 -0.5094  0.1402  0.0346
29248W        W47452  12.793   7.637   4.787  0.3301 -0.1838  0.0787
29249W        W47453   7.953  16.465   0.277  0.0557 -0.1912  0.0868
29250W        W47454   0.679   0.830  12.396 -0.1278  0.0294 -0.0165
29251W        W47455  15.254   2.504  14.679 -0.1515 -0.3923  0.0429
29252W        W47456  12.454  12.757  11.295  0.0260 -0.1749 -0.1936
29253W        W47457  16.533   1.831  11.654 -0.1239 -0.1138  0.2969
29254W        W47458   0.438   6.574  14.090  0.0629  0.2455 -0.0221
29255W        W47459  15.720  16.927  14.881  0.0797 -0.0589  0.1001
29256W        W47460   9.430  14.025   3.203  0.0092  0.0655  0.2201
29257W        W47461  15.192  12.488   2.579 -0.1671 -0.0729 -0.2180
29258W        W47462   2.260   7.143   3.886  0.0973  0.3453 -0.1055
29259W        W47463   0.563   9.046   2.029 -0.2287 -0.1691  0.1823
29260W        W47464   8.402   8.712  11.933  0.4125 -0.1035  0.2575
29261W        W47465   6.359   3.180   4.201 -0.3062 -0.3402 -0.1882
29262W        W47466  17.763   1.337  13.550 -0.3726  0.1839 -0.1381
29263W        W47467  12.124  14.224  11.705 -0.0482 -0.2119 -0.4797
29264W        W47468   1.991   1.413   2.149 -0.0716  0.0727 -0.0932
29265W        W47469  12.981   1.212   3.327 -0.3124 -0.3163  0.2412
29266W        W47470   6.593  16.519  11.333 -0.2338 -0.0600  0.1255
29267W        W47471   2.916   1.787  11.364 -0.1739 -0.2104 -0.0603
29268W        W47472  15.865  14.587   2.860 -0.2678 -0.1448  0.1192
29269W        W47473   9.141   9.091   3.098 -0.0410 -0.0762 -0.3666
29270W        W47474  11.707  11.609  11.241  0.0591 -0.2131  0.1652
29271W        W47475  13.693  15.646  14.843  0.0615  0.2776  0.0134
29272W        W47476  15.340  13.749  13.953 -0.1010 -0.2055  0.0718
29273W        W47477  14.631  16.501   1.773 -0.0539  0.1239 -0.0523
29274W        W47478   0.627  18.153   0.837 -0.0357 -0.1419  0.3340
29275W        W47479  13.429   7.226   4.425  0.1034 -0.0418  0.2728
29276W        W47480  18.046  10.894  13.526  0.0863 -0.1180 -0.1424
29277W        W47481   5.544   4.896  13.057 -0.2260  0.0332  0.1307
29278W        W47482   6.978   1.129   0.808  0.1415 -0.0120  0.0154
29279W        W47483   0.243   1.825   1.852 -0.1810  0.1493  0.1488
29280W        W47484   8.270  18.002  15.467 -0.0796 -0.2075 -0.2579
29281W        W47485   1.200   9.166  12.249 -0.1272  0.3123  0.0075
29282W        W47486  13.836   6.686  14.081  0.0360 -0.1481  0.2969
29283W        W47487   7.017   8.487   4.064  0.0018  0.4295  0.2022
29284W        W47488  11.047   9.316  15.012  0.1157  0.1009 -0.2709
29285W        W47489  14.874  12.681   4.738  0.2615 -0.0379  0.3301
29286W        W47490   7.478  15.212   3.420 -0.1366  0.1557  0.1243
29287W        W47491   3.539   9.471   2.757  0.1601  0.2148 -0.0324
29288W        W47492  16.734  12.378  11.937 -0.3417  0.2805  0.2504
29289W        W47493   1.034  11.153  14.355  0.2092  0.3416  0.0424
29290W        W47494  11.307  18.252   2.891  0.1225 -0.0918  0.0327
29291W        W47495   5.805   7.684  13.886 -0.0364 -0.0987 -0.3519
29292W        W47496  10.617   3.447  15.203  0.2352  0.2259 -0.0874
29293W        W47497  11.250  15.107  14.110 -0.1066  0.1124 -0.1513
29294W        W47498   0.303   9.713   3.354  0.0692 -0.1080  0.0238
29295W        W47499  17.230   1.271   3.983 -0.1138 -0.0534 -0.1934
29296W        W47500  17.520   8.522   2.299 -0.1232 -0.3482 -0.1081
29297W        W47501  10.505   2.746  13.548  0.0943  0.2863  0.0616
29298W        W47502   0.414   6.767   3.113 -0.1379  0.0953  0.0360
29299W        W47503  10.307   1.035   4.676  0.1006 -0.1057 -0.2601
29300W        W47504   9.768   6.103   4.205  0.1191  0.0146  0.0884
29301W        W47505   1.789  14.376   1.315 -0.0166 -0.2596  0.2429
29302W        W47506  12.650  15.533  15.696  0.0260 -0.2115 -0.1372
29303W        W47507   6.646  17.847  13.631 -0.0378 -0.2677 -0.2352
29304W        W47508  10.075   8.049   3.976  0.3163 -0.0126  0.2418
29305W        W47509  18.086  17.376  10.713 -0.2199  0.1176  0.1713
29306W        W47510   1.835   1.110  13.650 -0.0279 -0.0265  0.2498
29307W        W47511   4.895   5.863   3.444 -0.0244  0.0561  0.0180
29308W        W47512   3.033  18.069  14.293  0.4290  0.1547 -0.1345
29309W        W47513  10.696  15.320  13.586  0.1356 -0.2102  0.0212
29310W        W47514   0.522  11.010  14.519 -0.0950 -0.0397  0.1192
29311W        W47515   8.388  16.703   2.037 -0.1410  0.0940 -0.2886
29312W        W47516   4.477   9.899   0.400 -0.1512  0.0838 -0.3200
29313W        W47517  14.298  15.613   2.928  0.1632 -0.0156  0.0276
29314W        W47518   4.453  18.371  14.509  0.0567  0.2027  0.0903
29315W        W47519   0.599  11.372   3.337  0.0846 -0.0307 -0.3052
29316W        W47520   9.526  10.368  14.228  0.0669  0.0668 -0.0000
29317W        W47521  12.401   5.561   2.028 -0.3846 -0.2004 -0.0049
29318W        W47522  16.284   8.628   3.411 -0.0382 -0.0376 -0.1029
29319W        W47523  12.820  11.454   2.334 -0.2267  0.2358 -0.0975
29320W        W47524   1.714  13.500  10.954  0.0112  0.2348 -0.0283
29321W        W47525   6.171  10.781  14.487  0.1333 -0.0790 -0.0137
29322W        W47526  12.836  18.036   4.093 -0.1216  0.1618  0.0653
29323W        W47527  16.119   9.927   3.584  0.0222 -0.2814  0.3556
29324W        W47528  14.188   6.817   4.449  0.0364 -0.0033 -0.1840
29325W        W47529   1.059  17.083  14.685  0.0103  0.2532  0.0967
29326W        W47530  10.696   0.293  14.965  0.1640  0.1343 -0.1102
29327W        W47531   8.045  12.920   2.993  0.2482 -0.0422  0.6793
29328W        W47532  12.119   6.162   4.847 -0.1160  0.0890  0.1240
29329W        W47533   1.164   6.149   2.417 -0.1912 -0.0784 -0.0727
29330W        W47534  13.574  11.306   0.097 -0.0780  0.0041 -0.1290
29331W        W47535  13.910   6.550   4.886  0.4981  0.0369 -0.4418
29332W        W47536   8.783  14.239   2.189 -0.1029  0.1705 -0.0280
29333W        W47537  11.593   0.452  14.621 -0.0182  0.1083  0.2239
29334W        W47538   4.193  15.476   1.795 -0.1264  0.0369  0.0760
29335W        W47539   7.472   6.787   5.748 -0.1538  0.0754 -0.2155
29336W        W47540  16.280   3.674  10.262  0.0649  0.1534 -0.0749
29337W        W47541   4.836   0.545  12.604 -0.0956 -0.0006  0.4275
29338W        W47542   6.016   5.322   3.514  0.1156 -0.2099 -0.1753
29339W        W47543   4.779   7.111  15.478  0.0200  0.1004  0.1299
29340W        W47544   2.110  10.260   2.199  0.1365  0.2233  0.0814
29341W        W47545   5.516   9.599   1.061 -0.4118 -0.0965 -0.0403
29342W        W47546   8.679  17.597  13.265  0.0136 -0.0265  0.1439
29343W        W47547   8.433  12.665   5.053 -0.0876  0.2280 -0.2749
29344W        W47548  17.053   4.933   3.482 -0.0389 -0.0639  0.1278
29345W        W47549   8.311  18.023  14.198  0.1224  0.1482 -0.2839
29346W        W47550   0.072  18.346  11.665  0.0943 -0.0853 -0.1448
29347W        W47551  17.801  17.650   1.537  0.0098 -0.0700 -0.0421
29348W        W47552  17.954   4.211  14.805 -0.0297  0.1103  0.0588
29349W        W47553  13.043   9.211  11.451  0.1545 -0.1528 -0.1625
29350W        W47554  12.094  13.273  12.541  0.1109 -0.0882 -0.0476
29351W        W47555  14.818  17.879  12.702  0.4373 -0.1326 -0.0358
29352W        W47556  15.305  10.100  12.661  0.2125  0.0370 -0.0971
29353W        W47557  16.015  15.898   3.333 -0.0189 -0.1297 -0.3136
29354W        W47558  15.326   9.065   4.413  0.4532  0.0039 -0.2118
29355W        W47559   4.384  11.661   0.425 -0.1317 -0.3116 -0.0530
29356W        W47560  17.032  14.733   4.130 -0.0468 -0.3072  0.1053
29357W        W47561   2.698   9.214   0.055  0.0146  0.1175 -0.0270
29358W        W47562   7.750   5.161  12.583  0.1728 -0.0311 -0.1471
29359W        W47563  14.470  17.881   2.096  0.0945 -0.1083 -0.3456
29360W        W47564  16.512  12.989  14.080  0.3978  0.2985  0.4563
29361W        W47565   0.766  16.128   3.667  0.0234 -0.0385  0.2682
29362W        W47566  11.828  11.063   2.628 -0.1530 -0.0024  0.0564
29363W        W47567   0.392  15.133  11.043  0.1014  0.1135 -0.2973
29364W        W47568   4.778  14.502   2.110 -0.0517  0.0937  0.1291
29365W        W47569   6.720   0.669  14.898 -0.0958 -0.1638  0.1403
29366W        W47570  12.620  14.977   3.532 -0.0472 -0.3798  0.0428
29367W        W47571   4.769  12.027   3.095 -0.1969 -0.3807  0.2527
29368W        W47572   2.399   3.395  12.682  0.1043 -0.0991  0.0766
29369W        W47573   3.272   2.017  14.471  0.1728 -0.1327  0.0455
29370W        W47574   8.357   2.436   2.757  0.0303  0.0189 -0.0296
29371W        W47575  12.911  10.880   5.233 -0.3421  0.3849 -0.1626
29372W        W47576   9.387   1.524  10.950 -0.2426 -0.0147  0.0280
29373W        W47577   5.912  13.340  15.183 -0.1867 -0.0902 -0.1910
29374W        W47578   8.141  18.301   0.904  0.3923 -0.0438 -0.2818
29375W        W47579   1.673  17.044  11.152  0.1744 -0.0248  0.1103
29376W        W47580  12.928   3.957   3.337  0.0430  0.1095  0.0750
29377W        W47581   0.844   4.396   3.030  0.1136 -0.1512 -0.1064
29378W        W47582   8.361   2.204   3.831  0.2217 -0.1640  0.2343
29379W        W47583   9.771   4.436   0.464 -0.1635 -0.1884 -0.1940
29380W        W47584  13.366   3.771  13.039  0.2607 -0.0444 -0.1768
29381W        W47585  17.229   0.188   2.830  0.0568  0.0030  0.2954
29382W        W47586   0.079   8.045  11.703 -0.1087 -0.0348 -0.1498
29383W        W47587   5.201   2.244  15.316 -0.0240 -0.0356 -0.1857
29384W        W47588  10.964  16.071   1.720 -0.1231 -0.0923  0.2973
29385W        W47589   2.598  18.147   2.482  0.0673  0.1353  0.1824
29386W        W47590   0.671  11.999  12.612  0.0875  0.1849  0.0197
29387W        W47591   4.060   9.965  13.481  0.1560 -0.0402  0.0321
29388W        W47592  12.632   4.193   0.614  0.0028  0.2619  0.1703
29389W        W47593  11.695   9.766   4.557 -0.1350  0.0461  0.1825
29390W        W47594  15.547  13.272   2.005 -0.0212  0.0706  0.1424
29391W        W47595   4.009  16.716   0.377  0.1899  0.0441  0.1248
29392W        W47596  14.174  10.502   3.279  0.1492  0.1186 -0.1834
29393W        W47597  13.183   0.746  13.109  0.0474  0.1702 -0.0788
29394W        W47598   7.114   8.003  14.450  0.0585 -0.0006  0.1249
29395W        W47599   3.108   0.656   2.630 -0.0148 -0.0340  0.3511
29396W        W47600  12.211   6.681   4.150  0.1785 -0.1111 -0.0514
29397W        W47601  12.637   3.603  11.847  0.5956  0.0842  0.0867
29398W        W47602  10.923   3.457   4.451  0.2485  0.1007 -0.0280
29399W        W47603  13.754   3.671  15.567  0.0432 -0.1215 -0.2764
29400W        W47604  15.138  18.266   3.749 -0.1198 -0.1292  0.1801
29401W        W47605  14.022   1.491   3.146 -0.0249  0.4923 -0.0338
29402W        W47606   2.007  11.362   0.312  0.2970  0.2100  0.1159
29403W        W47607  10.434   2.872   0.117  0.0110  0.1283 -0.3303
29404W        W47608   1.752   7.180  13.106  0.2209  0.1029 -0.0522
29405W        W47609   3.005  13.036  14.652  0.0918 -0.0405 -0.0768
29406W        W47610   7.679  14.033   0.895 -0.0655 -0.2817  0.2047
29407W        W47611   7.020  12.087   2.403  0.0520  0.0105  0.3012
29408W        W47612   2.921   8.848   1.789 -0.0366 -0.2565  0.3733
29409W        W47613   6.442  13.075  13.042  0.2116 -0.0737  0.1518
29410W        W47614  16.858  17.712  14.840  0.0543  0.1625 -0.2722
29411W        W47615   5.860  11.264   3.801  0.1020  0.1959 -0.1457
29412W        W47616   9.359   8.120  14.970  0.0628  0.2822  0.2521
29413W        W47617   7.383   0.552   2.300  0.1126  0.0984 -0.5091
29414W        W47618   7.797  10.688   4.536  0.0919 -0.2390 -0.0487
29415W        W47619   5.813  11.593   1.294  0.0762 -0.3010 -0.0240
29416W        W47620   7.442   2.007  13.198  0.2620  0.0973  0.1131
29417W        W47621  12.999  14.722  11.474 -0.0815 -0.1174  0.1194
29418W        W47622   3.620   0.302  14.339  0.4174 -0.0477  0.1712
29419W        W47623   6.646  16.047   5.168 -0.4883 -0.0839  0.1373
29420W        W47624   8.711   2.774   2.399 -0.2547  0.2323 -0.3532
29421W        W47625   6.921   8.186   1.817 -0.0826 -0.2233 -0.0193
29422W        W47626  10.894   3.130  13.084  0.0999  0.0441  0.1380
29423W        W47627  16.848  16.563   2.421  0.0564 -0.2101 -0.0673
29424W        W47628   8.760  13.758  15.337  0.1609 -0.2228  0.2594
29425W        W47629  12.905   5.746   2.777 -0.0663 -0.0812 -0.4735
29426W        W47630   1.189   5.071   2.264  0.1159 -0.0960 -0.1406
29427W        W47631  15.325  11.930   3.296 -0.1236 -0.0277 -0.0164
29428W        W47632   3.230  18.346  12.464  0.2656 -0.1692  0.0634
29429W        W47633  15.857   3.366  14.577 -0.2432 -0.1818 -0.2389
29430W        W47634   5.353   2.964  12.963 -0.1652  0.1967 -0.1817
29431W        W47635   6.999  13.819  13.499  0.1482 -0.2875  0.0556
29432W        W47636  18.340  10.588   3.598 -0.0746 -0.0263  0.2453
29433W        W47637  10.552   0.447  12.967  0.0312  0.4352 -0.1006
29434W        W47638  15.215  11.522  13.468 -0.0550  0.0544  0.0110
29435W        W47639   6.658  12.463  15.390  0.0414 -0.2670 -0.2810
29436W        W47640  14.358   8.704  12.406 -0.1017  0.1237 -0.0308
29437W        W47641   4.737  12.298  14.241  0.3614 -0.1738  0.3600
29438W        W47642  15.053   8.625  13.980 -0.2899 -0.1450 -0.2503
29439W        W47643  13.665  14.455   1.484 -0.2735  0.0285 -0.1485
29440W        W47644  10.315   0.815  11.937 -0.0353  0.2104 -0.0418
29441W        W47645  10.044   7.889  12.306 -0.2144  0.2730  0.0278
29442W        W47646   8.842   3.751  12.477 -0.4268 -0.1939 -0.0849
29443W        W47647  16.064  15.711   2.834  0.3876 -0.0880 -0.0152
29444W        W47648   2.703   4.903  11.560 -0.2531  0.2930  0.0588
29445W        W47649  12.308   5.301   4.720 -0.0013 -0.0518  0.1528
29446W        W47650   0.171  15.575  12.328 -0.0000 -0.0252 -0.0815
29447W        W47651   1.913  17.930   4.610 -0.1452  0.1311  0.0986
29448W        W47652  12.950  16.299   3.148  0.2440 -0.0369 -0.1573
29449W        W47653   0.293  16.926  15.611 -0.1746  0.0491  0.2710
29450W        W47654  13.247  15.072  14.998  0.3815  0.0201 -0.1388
29451W        W47655  13.804   4.888   0.075  0.1788  0.0222  0.0829
29452W        W47656  17.640   0.324  14.435  0.3799  0.1020  0.2524
29453W        W47657  17.818   5.476  12.457  0.0900 -0.1155  0.3346
29454W        W47658   5.272   9.308  15.463 -0.2574 -0.2375 -0.1215
29455W        W47659  14.225   1.549  11.559  0.1332  0.1691 -0.0358
29456W        W47660  16.635   9.622   2.461  0.3145 -0.1874 -0.3153
29457W        W47661  18.295  17.952   1.330 -0.0611  0.1893  0.1102
29458W        W47662   0.077  17.218  11.062  0.0037 -0.2121  0.0512
29459W        W47663   1.238  16.763   2.296  0.0324 -0.5682  0.1348
29460W        W47664  10.983   5.287   0.824 -0.0696  0.2140 -0.2297
29461W        W47665   3.710   8.161   0.918  0.1799 -0.2640 -0.0213
29462W        W47666  15.196  13.250   0.394 -0.2098 -0.0966 -0.0015
29463W        W47667   1.202   6.354   1.947 -0.0163  0.0638 -0.0377
29464W        W47668   5.961   6.061  13.288 -0.0403  0.0307 -0.3978
29465W        W47669   3.866  15.249  11.771  0.3496  0.3341 -0.2488
29466W        W47670  10.222  12.605   0.699  0.0736  0.1001 -0.1620
29467W        W47671  11.407  14.614  14.158 -0.0235  0.2201  0.3530
29468W        W47672  14.278  17.823  10.757 -0.1029  0.2669 -0.0710
29469W        W47673   4.561   6.870   2.479  0.0702  0.0576  0.0052
29470W        W47674  17.914  17.722  11.552  0.1269 -0.3044  0.1217
29471W        W47675   1.506   2.441   1.447  0.0635  0.1064  0.1047
29472W        W47676  10.427   2.735  12.231  0.1048  0.1256 -0.1611
29473W        W47677   3.847  12.161  12.211  0.4282 -0.1003 -0.1966
29474W        W47678  13.385  18.038   1.682 -0.2562  0.1038 -0.0731
29475W        W47679  12.452  16.100   0.619  0.0187  0.0366  0.1046
29476W        W47680  15.717  14.788  10.592 -0.2618  0.1375 -0.1554
29477W        W47681   8.064  17.635  11.851 -0.1624 -0.0252  0.1476
29478W        W47682   4.389  12.338  12.143 -0.1734  0.0251 -0.1008
29479W        W47683  14.349  11.021   4.154 -0.2942 -0.2057  0.0895
29480W        W47684  10.914  13.745  12.388 -0.1097 -0.0416 -0.2101
29481W        W47685   9.511   2.908   4.737  0.1534  0.2037 -0.3104
29482W        W47686  13.011   2.930   1.871  0.3919 -0.1829  0.2852
29483W        W47687   6.779  11.503  15.036 -0.1336  0.1861 -0.1695
29484W        W47688   7.032   8.088  11.207 -0.4002 -0.0837 -0.2167
29485W        W47689   9.711  12.432   3.195  0.1605  0.0276  0.1304
29486W        W47690   1.759  18.141  11.843 -0.0305 -0.1225 -0.1328
29487W        W47691  10.884   9.203  14.463  0.0701 -0.0621  0.1516
29488W        W47692  15.336   0.381  15.013  0.0876 -0.0651  0.1861
29489W        W47693   1.790   8.065  11.128 -0.1628  0.0605 -0.1085
29490W        W47694   0.989   4.387  11.991 -0.0037  0.0547  0.1098
29491W        W47695  13.022  10.558  12.965  0.2143  0.1244  0.0246
29492W        W47696   5.555  11.089   0.943  0.0405  0.0296  0.1643
29493W        W47697  10.916   0.862   4.061  0.2858 -0.0120 -0.1601
29494W        W47698   9.229   5.554  10.074 -0.1057  0.2113 -0.1594
29495W        W47699  11.725   3.479  14.848 -0.1013 -0.1528  0.0310
29496W        W47700  11.470   7.841  10.940  0.2432 -0.1196  0.2073
29497W        W47701  16.535  13.593   1.203 -0.1973 -0.0375 -0.0141
29498W        W47702   2.673  11.697   0.408  0.0597 -0.0972  0.0392
29499W        W47703   8.263   6.025  14.056  0.0478 -0.1122 -0.0798
29500W        W47704  15.676   9.929   3.020  0.2106  0.1109 -0.0680
29501W        W47705  16.208   8.913   5.673  0.2237 -0.1326  0.2192
29502W        W47706   7.773   3.152   0.243 -0.1914  0.3728 -0.0836
29503W        W47707   7.959   1.465  11.004  0.1407 -0.1062 -0.0061
29504W        W47708  16.932   7.566  14.569  0.3176  0.1377 -0.0424
29505ION     NA47709  14.459  16.911   3.116  0.0820  0.1465  0.0193
29506ION     NA47710   2.992   2.908  13.531  0.0343  0.0539 -0.1695
29507ION     NA47711  10.727   9.295  10.771 -0.1550  0.0784 -0.2047
29508ION     NA47712  17.765   1.544  10.125  0.2057 -0.0938  0.1115
29509ION     NA47713   6.540   8.264   0.850  0.2638 -0.2697 -0.3104
29510ION     NA47714  14.584   8.799   5.419  0.3200 -0.2621  0.0321
29511ION     NA47715  16.204   7.933  10.316  0.0536  0.3910 -0.1054
29512ION     NA47716   0.093   5.461  11.855  0.0251  0.1491  0.1024
29513ION     NA47717  11.203   2.680  10.286 -0.1139  0.0941 -0.0313
29514ION     NA47718  10.795  14.751  10.319  0.0483  0.0237 -0.1391
29515ION     NA47719  10.206   3.455   5.177  0.0982 -0.0697  0.0284
29516ION     NA47720   6.648   5.387  10.364  0.0855  0.0877  0.1192
29517ION     NA47721   6.214   9.320  10.411 -0.2212 -0.0184  0.1259
29518ION     NA47722  10.307   4.641   5.205  0.0400  0.0045 -0.2578
29519ION     NA47723   4.894  17.227  12.831  0.1403  0.0481 -0.1342
29520ION     NA47724   2.822  10.248   5.350 -0.1819 -0.0601  0.1979
29521ION     NA47725   5.687   1.284   3.331  0.0544 -0.0954  0.1780
29522ION     NA47726   1.326   3.294  10.262 -0.0473  0.1388 -0.0216
29523ION     NA47727  10.674  16.997  10.185  0.1783  0.3757  0.0714
29524ION     NA47728  17.894   2.182  13.626 -0.1440 -0.2718  0.2088
29525ION     NA47729  12.711  10.587   5.590  0.0855  0.2671  0.1658
29526ION     NA47730  14.847   5.724  14.522 -0.0036  0.2486 -0.1201
29527ION     NA47731   0.318   6.703   3.622 -0.2823 -0.1861 -0.0949
29528ION     NA47732  10.450  17.533   5.607  0.1513  0.3132 -0.0985
29529ION     NA47733   4.449   4.855   5.277 -0.2416  0.1714  0.0918
29530ION     NA47734   7.905  14.820  11.828 -0.1837 -0.0763 -0.0163
29531ION     NA47735  16.402   2.113   4.182  0.0905  0.2860 -0.2368
29532ION     NA47736  11.435   1.962  13.251  0.0541  0.1903  0.0023
29533ION     NA47737  10.377  14.265   2.844  0.0153  0.0574 -0.0562
29534ION     NA47738   2.467   8.482  15.523 -0.0035 -0.0545 -0.0547
29535ION     NA47739   6.049   8.252  14.147 -0.0735  0.1968 -0.1089
29536ION     NA47740  15.342  17.598  10.375  0.1802  0.0089  0.6503
29537ION     NA47741  13.053   0.926   3.764  0.0369 -0.0363  0.1572
29538ION     NA47742  12.832   6.721  15.015  0.2487 -0.0244  0.1219
29539ION     NA47743  16.840   6.687   5.704  0.1617  0.3779  0.1321
29540ION     NA47744  14.541   7.835   5.678 -0.0545  0.2891  0.2170
29541ION     NA47745   9.159   2.784  10.018 -0.1198  0.1051  0.1277
29542ION     NA47746  10.796   1.370  13.067  0.0454 -0.0295 -0.0116
29543ION     NA47747   1.936   4.705   3.798 -0.2296 -0.2396 -0.3217
29544ION     NA47748   7.509  11.839  10.405 -0.0886  0.0555 -0.1163
29545ION     NA47749  17.514   6.424   5.672  0.0364  0.0323  0.0846
29546ION     NA47750  13.811   7.529  10.495  0.2379 -0.1159  0.2837
29547ION     NA47751  15.322  15.617  10.350  0.0058  0.2491 -0.0171
29548ION     NA47752  13.019  17.962  10.277 -0.0331  0.0237  0.3276
29549ION     NA47753  10.656   5.843   5.822 -0.0839 -0.1379  0.2353
29550ION     NA47754   1.494   9.035  10.412 -0.0085 -0.0707  0.3185
29551ION     NA47755   9.016   9.387   5.629 -0.3172  0.0980  0.2698
29552ION     NA47756  17.911   3.217  13.545 -0.5269  0.0363 -0.3175
29553ION     NA47757   2.595  13.459  10.307 -0.2516  0.0681  0.1640
29554ION     NA47758  11.089  17.914   1.595 -0.0232 -0.0966 -0.4551
29555ION     NA47759   0.274   8.395   1.457  0.3357  0.0888 -0.1362
29556ION     NA47760   9.556  12.873   5.761  0.2131  0.0447 -0.0374
29557ION     NA47761  17.332   2.223  14.690 -0.2608 -0.0560  0.1933
29558ION     NA47762  13.183   4.349  11.649 -0.0107  0.1636  0.1106
29559ION     NA47763  15.589  13.339   5.652 -0.1557 -0.2133  0.1706
29560ION     NA47764  10.483  12.164  12.636  0.3140  0.0242 -0.0378
29561ION     NA47765   4.003   9.758   0.570  0.0702 -0.0077  0.0557
29562ION     NA47766   1.697   1.111  11.421 -0.1144 -0.0804 -0.1844
29563ION     NA47767   0.708  12.993  10.624  0.0532 -0.1593  0.0937
29564ION     NA47768  13.076   3.923   5.204 -0.2778  0.1782 -0.0446
29565ION     NA47769   1.594  14.908  13.068 -0.1773  0.0924 -0.2242
29566ION     NA47770  12.481   3.080   0.926  0.1266  0.1224 -0.0289
29567ION     NA47771  17.569  10.003  12.761  0.0605  0.1898  0.0552
29568ION     NA47772   2.492   0.200   1.203 -0.1284  0.0806 -0.0974
29569ION     NA47773   2.122   1.472   5.298  0.0934  0.1435 -0.1055
29570ION     NA47774  16.948  17.409  13.337  0.2429 -0.0572 -0.0088
29571ION     NA47775  10.645   7.952   1.453 -0.0575  0.0683  0.1078
29572ION     NA47776  13.964   8.189   3.310  0.0294  0.2343 -0.0587
29573ION     NA47777  15.252  17.844   0.279  0.1287 -0.0931  0.0305
29574ION     NA47778   8.615   5.171   2.456 -0.2811 -0.0643  0.1492
29575ION     NA47779   9.438  11.019   5.683  0.0069  0.1113  0.1753
29576ION     NA47780   3.788   2.871   5.446 -0.0135  0.1309 -0.0373
29577ION     NA47781  17.305   6.082  10.889 -0.3136 -0.3648 -0.0162
29578ION     NA47782   3.033  12.525  15.143 -0.3450  0.0641  0.1716
29579ION     NA47783   4.091  13.141  10.219  0.0379  0.0343  0.2004
29580ION     NA47784  11.268   6.489   0.426 -0.1767  0.2282  0.1816
29581ION     NA47785  13.810   8.403  10.555 -0.2751  0.1618 -0.0389
29582ION     NA47786  15.942  17.062   5.575  0.1463  0.0393 -0.1597
29583ION     NA47787   1.388   1.650   4.991  0.1561  0.1817  0.2649
29584ION     NA47788   7.200  16.167  14.790  0.1339  0.0884  0.0663
29585ION     NA47789   2.528   2.669  15.487 -0.0891  0.0172  0.2574
29586ION     NA47790   5.577  17.818   5.351 -0.1538  0.1887  0.1903
29587ION     NA47791  12.658   8.440  11.261  0.0087 -0.2872  0.2771
29588ION     NA47792   0.616  13.350   5.535 -0.0471  0.1624 -0.2149
29589ION     NA47793  11.279  10.683   5.421  0.0869  0.2008  0.0308
29590ION     NA47794  13.774   4.840   2.508 -0.0804 -0.0334  0.2200
29591ION     NA47795   9.413  14.402   2.819  0.0013 -0.1108 -0.0697
29592ION     NA47796   8.252   4.356  10.302  0.1256 -0.1129  0.2358
29593ION     NA47797  17.525   7.320   2.958 -0.1476  0.3137  0.0230
29594ION     NA47798  10.581  12.761   5.801  0.1363 -0.0027 -0.0541
29595ION     NA47799  14.502   1.313  10.178  0.1635  0.0935  0.3013
29596ION     NA47800   3.581  16.163   3.506 -0.1896  0.0751 -0.1479
29597ION     NA47801   8.936   6.559  11.708 -0.2197  0.0784  0.3690
29598ION     NA47802   7.983  16.083  14.996  0.5277 -0.0284 -0.0175
29599ION     NA47803   1.937   6.883   2.279  0.0243  0.2034 -0.1343
29600ION     NA47804   6.100   3.185  14.232 -0.0135 -0.0605  0.1129
29601ION     NA47805   8.799  15.530  14.463  0.1016  0.4059 -0.3978
29602ION     NA47806  17.488  13.439  10.550  0.5339  0.5201 -0.0314
29603ION     NA47807   5.830  12.818   5.430  0.0917 -0.1172 -0.0471
29604ION     NA47808  13.317  16.154  10.478 -0.0804  0.0490 -0.0668
29605ION     NA47809  14.138  18.064   0.985 -0.0154 -0.0450 -0.0385
29606ION     NA47810  16.154   0.855   3.813  0.2028  0.3067 -0.0409
29607ION     NA47811   6.489   7.143   5.714  0.0319  0.0295  0.0503
29608ION     NA47812   3.037   9.516  15.585  0.4088 -0.2011  0.0744
29609ION     NA47813   0.849  14.000  10.383 -0.1789 -0.0835 -0.1250
29610ION     NA47814   3.143  15.069   1.762  0.0919  0.2419  0.1570
29611ION     NA47815   0.010   1.769   1.158 -0.2343 -0.0572  0.5189
29612ION     NA47816  10.262   9.557  13.724 -0.0271 -0.0080 -0.0538
29613ION     NA47817  14.521  12.811   5.830  0.0034 -0.0384 -0.0969
29614ION     NA47818   2.104  13.968  14.414 -0.0288 -0.0136  0.0915
29615ION     NA47819   8.941   9.718   1.296  0.1355 -0.1133 -0.1646
29616ION     NA47820  12.493   2.737  13.887  0.0879  0.2455 -0.0079
29617ION     NA47821  12.911  14.571   5.672  0.1213  0.1009 -0.1139
29618ION     NA47822   5.889  12.846  10.482  0.0553 -0.1722  0.1077
29619ION     NA47823   3.446   2.063   2.426  0.2597 -0.0151 -0.0428
29620ION     NA47824   1.421  14.786   0.818  0.0353  0.2721  0.0146
29621ION     NA47825  16.489  10.818   5.154 -0.1202  0.2390 -0.2672
29622ION     NA47826   1.807  17.636   5.382 -0.4250 -0.1904  0.0923
29623ION     NA47827  11.476   0.762   3.420 -0.2982 -0.2170  0.0839
29624ION     NA47828  14.238  15.514   0.145  0.0922  0.0232 -0.3818
29625ION     NA47829  12.224   6.964  10.729 -0.1310  0.1566  0.2953
29626ION     NA47830   3.503  18.072   5.528  0.0281  0.2059 -0.1007
29627ION     NA47831  12.957   8.675  10.766 -0.2367 -0.0384  0.0628
29628ION     NA47832   9.529  10.031  11.132 -0.1465  0.3976 -0.2065
29629ION     NA47833   4.988  16.501  10.347 -0.1963 -0.0878  0.2433
29630ION     NA47834   6.816  13.046   5.418 -0.0766  0.1011 -0.1693
29631ION     NA47835   1.373  14.725  10.406  0.0142  0.1047 -0.1622
29632ION     NA47836   1.505   9.223   1.984 -0.2930  0.0481  0.0065
29633ION     NA47837  17.533   9.431   5.206 -0.3452  0.0787  0.0597
29634ION     NA47838  14.014  17.035   5.412 -0.0781 -0.0272  0.1093
29635ION     NA47839   9.985  10.941   2.054  0.3989  0.0876 -0.0910
29636ION     NA47840   5.049  12.139   5.292  0.2578  0.3731 -0.3892
29637ION     NA47841  17.878   8.587   5.122 -0.2215 -0.2175 -0.0662
29638ION     NA47842  15.825  16.012   0.620  0.0406 -0.1139 -0.0442
29639ION     NA47843  13.496   4.731  10.440  0.0759 -0.2040 -0.0401
29640ION     NA47844  13.180  14.801   3.915  0.2042  0.1286  0.1272
29641ION     NA47845  10.956   1.072  10.154  0.1228  0.4686 -0.0702
29642ION     NA47846  12.705   6.028  10.516  0.0432  0.1849 -0.1030
29643ION     NA47847  13.137   1.363  14.957  0.1704  0.0422  0.1970
29644ION     NA47848  13.656   6.674   5.817  0.1435  0.1803 -0.2610
29645ION     NA47849   5.870   2.520   4.265  0.1578  0.1080  0.2639
29646ION     NA47850   9.018  17.655   5.360  0.0542  0.2165 -0.1531
29647ION     NA47851  14.582  13.832   3.986  0.1914 -0.1083  0.0533
29648ION     NA47852   7.518  10.552   5.738  0.2808  0.0858 -0.1347
29649ION     NA47853   4.038  10.572  15.092  0.0308 -0.0158  0.0862
29650ION     NA47854   7.301   0.427   5.194  0.0271  0.1075  0.0242
29651ION     NA47855   2.352  15.541   3.553  0.1700  0.2547  0.3184
29652ION     NA47856   8.611   7.500   0.852  0.1510  0.2625  0.1095
29653ION     NA47857   0.060  10.672  10.442  0.2687  0.0782 -0.0500
29654ION     NA47858   5.251   5.756  12.189  0.2180  0.1841  0.0103
29655ION     NA47859   3.936   6.538  14.266 -0.0018  0.3969  0.2177
29656ION     NA47860  14.680   4.262   5.244 -0.0211 -0.1258 -0.2132
29657ION     NA47861   5.379   9.571   9.995 -0.0655  0.1338 -0.0273
29658ION     NA47862  13.830   4.306   1.144  0.0533 -0.1819 -0.2129
29659ION     NA47863  12.605  13.105  12.311 -0.0837 -0.3089  0.0869
29660ION     NA47864  10.094   2.862   3.616 -0.2270 -0.0093  0.0732
29661ION     NA47865   8.828   6.275   4.282 -0.1928 -0.4225 -0.0354
29662ION     NA47866  11.331  12.770  10.289 -0.1007  0.3375  0.0721
29663ION     NA47867  13.027  13.518   5.690  0.0776 -0.2911 -0.0174
29664ION     NA47868   5.573   8.377  11.087  0.2056  0.2200  0.0105
29665ION     NA47869  11.386   4.122   5.194  0.0081  0.0127 -0.2455
29666ION     NA47870  15.628   0.658  10.174  0.0238  0.2939 -0.0621
29667ION     NA47871  12.232   0.214  10.390 -0.0857 -0.0672 -0.0670
29668ION     NA47872  13.570   4.891  15.201 -0.2753 -0.0766 -0.1440
29669ION     NA47873  15.523  10.270   5.499 -0.0879 -0.3045 -0.3298
29670ION     NA47874   5.908   1.884   5.457  0.2634  0.2043  0.4066
29671ION     NA47875  12.641   0.805  14.271  0.1569  0.0951 -0.1825
29672ION     NA47876   0.128  10.174  14.619 -0.0639  0.2594 -0.0730
29673ION     NA47877   6.249  10.328   2.413 -0.3203 -0.0323 -0.1420
29674ION     NA47878  12.963  15.512  10.165  0.1254  0.2641  0.0139
29675ION     NA47879   3.942   4.227  10.334 -0.2234 -0.0749 -0.1413
29676ION     NA47880   0.858   4.342   5.498 -0.1980 -0.1298  0.0526
29677ION     NA47881  17.167  15.667  11.759 -0.2235 -0.0048  0.0806
29678ION     NA47882   8.167  12.547  10.245 -0.0784  0.0789  0.1883
29679ION     NA47883   3.602  14.844  10.070  0.3261 -0.0628  0.2219
29680ION     NA47884   1.430  14.426  14.384  0.0374  0.1821  0.2099
29681ION     NA47885   4.513   4.543   2.341  0.3018  0.0753  0.1848
29682ION     NA47886  13.094  14.384  13.454 -0.0431 -0.0557 -0.2315
29683ION     NA47887  17.693   8.412  13.232  0.0311  0.3224 -0.1110
29684ION     NA47888  12.003   6.009   5.742  0.0316 -0.0639 -0.1319
29685ION     NA47889  15.735   8.168   5.653  0.1673  0.0171 -0.1108
29686ION     NA47890   5.672   9.570  15.225 -0.1019 -0.3812 -0.0551
29687ION     NA47891  15.800   6.772  15.420  0.0947 -0.1907 -0.0216
29688ION     NA47892   9.320  14.320  12.704 -0.1136  0.0146 -0.3293
29689ION     NA47893  18.367  14.489   5.718 -0.0365  0.0805  0.0698
29690ION     NA47894  14.647  10.701   5.329 -0.3211 -0.2779 -0.2945
29691ION     NA47895  11.523  11.674   2.901  0.1186  0.0627  0.0125
29692ION     NA47896  17.252  17.444  10.298 -0.1867 -0.2528 -0.3836
29693ION     NA47897   0.431   0.584  10.734  0.1570 -0.1251  0.2587
29694ION     NA47898  14.633   0.442  10.017  0.0218  0.1019  0.0150
29695ION     NA47899  17.761  15.916  15.525  0.0108  0.1953 -0.1537
29696ION     NA47900   6.915  11.846  12.206  0.4370  0.2063  0.1923
29697ION     NA47901   8.294   8.307  10.982  0.1593  0.2451  0.0514
29698ION     NA47902  17.652   4.003   5.384 -0.1094 -0.0110  0.0069
29699ION     NA47903  16.239   0.334   5.473 -0.4353  0.1760 -0.0684
29700ION     NA47904  13.587   8.083   0.704  0.3126 -0.2463  0.0092
29701ION     NA47905   7.452   3.609  10.233 -0.0575 -0.1400  0.1816
29702ION     NA47906   3.787   4.397   1.719 -0.0514 -0.1566 -0.2142
29703ION     NA47907  14.824   5.309  11.460  0.2278 -0.5322  0.2391
29704ION     NA47908   5.858  15.335   4.314 -0.2976 -0.0649  0.0134
29705ION     NA47909  10.948   8.508  10.627  0.1456  0.0881  0.1788
29706ION     NA47910   3.595  18.119  15.680 -0.1308 -0.1227  0.2336
29707ION     NA47911  18.322   2.622   5.074 -0.1379 -0.0132  0.3512
29708ION     NA47912   2.832   4.737   2.899 -0.1166  0.0622  0.0888
29709ION     NA47913   5.934   3.830  12.572  0.0665 -0.0894  0.2098
29710ION     NA47914  14.708  15.088  10.499  0.2312 -0.2478 -0.0465
29711ION     NA47915   3.195   3.816  13.868  0.2036 -0.2757 -0.1548
29712ION     NA47916   6.487   7.705  12.690 -0.0048  0.2609 -0.1808
29713ION     NA47917   5.108  16.032  11.695 -0.3261 -0.0168  0.2524
29714ION     NA47918  17.278   8.849   2.650  0.0271  0.0149  0.0153
29715ION     NA47919   3.917   6.156   1.999  0.1791 -0.4125  0.0972
29716ION     NA47920   4.356   6.993   5.190  0.0840 -0.1182 -0.0348
29717ION     NA47921   4.049  16.944   5.464  0.2747  0.1495 -0.0335
29718ION     NA47922  15.477  12.390  10.155  0.2307  0.0008  0.0055
29719ION     NA47923   9.801   1.017   1.119  0.0850 -0.0165  0.0505
29720ION     NA47924   2.317   6.241  13.567 -0.1882 -0.1891  0.1372
29721ION     NA47925  11.087   9.938   4.693 -0.1496 -0.0295  0.0600
29722ION     NA47926  12.054   4.957   5.359  0.0926  0.0856  0.0644
29723ION     NA47927   1.361  12.306   2.389 -0.0061  0.1045  0.0972
29724ION     NA47928   4.115  12.323   5.454  0.1924  0.0270 -0.4415
29725ION     NA47929  17.002  13.556   1.376  0.0644  0.2686  0.1235
29726ION     NA47930   5.726   0.109  10.616  0.2404  0.4861  0.1884
29727ION     NA47931  17.997   6.201  12.543 -0.0894  0.0763  0.0017
29728ION     NA47932  11.158   4.189  11.364 -0.0328 -0.2103  0.0850
29729ION     NA47933   6.158   2.468  11.445  0.0191 -0.1368  0.6394
29730ION     NA47934   5.176   3.689  10.087 -0.3715  0.0054  0.0610
29731ION     NA47935   3.721  12.987  13.502  0.3618  0.0369 -0.0056
29732ION     NA47936   6.960   4.478  10.497 -0.0109 -0.1162 -0.1241
29733ION     NA47937  14.965  11.654  14.840  0.1933  0.0926 -0.1890
29734ION     NA47938  14.328  12.167  13.279  0.0838  0.1854  0.1067
29735ION     NA47939  11.916   5.555  12.459  0.0918  0.0237  0.2649
29736ION     NA47940  17.488  16.196   1.901 -0.3903 -0.1808 -0.0127
29737ION     NA47941   3.603  12.408  10.388 -0.0041  0.0082 -0.1103
29738ION     NA47942  11.502  16.189  14.992 -0.1620  0.1208 -0.0833
29739ION     NA47943  16.684  13.725  12.899  0.0741  0.1804 -0.0629
29740ION     NA47944   9.068  17.429  10.119  0.1873 -0.2143 -0.0636
29741ION     NA47945   9.250   8.940  12.531  0.3252  0.1593 -0.2083
29742ION     NA47946   6.093   3.596  10.139 -0.0162 -0.2607  0.1013
29743ION     NA47947   3.060  11.583  11.397 -0.0853 -0.1730 -0.1599
29744ION     NA47948   7.643   5.519   0.403 -0.3826 -0.2453  0.0566
29745ION     NA47949  15.681  14.255  12.260  0.0693 -0.0388 -0.1014
29746ION     NA47950  16.019  18.141   4.452 -0.0730  0.0402  0.0131
29747ION     NA47951   4.466   4.806  10.832  0.1848 -0.0477 -0.0371
29748ION     NA47952   8.859  11.588  10.311  0.1543 -0.1229 -0.1150
29749ION     NA47953   4.672  17.548   1.881 -0.1942  0.0443  0.0749
29750ION     NA47954  17.658  15.190   3.955 -0.2691  0.1453 -0.0833
29751ION     NA47955  15.949  14.330   5.243  0.0014  0.0807 -0.2651
29752ION     NA47956   3.024   4.269  10.463 -0.0298  0.1791 -0.0608
29753ION     NA47957  16.574  15.219  10.557 -0.3042  0.1242  0.2065
29754ION     NA47958   8.843  18.012  13.480  0.2426  0.1558  0.0036
29755ION     NA47959  12.275  12.280   5.611 -0.1462 -0.3308  0.2602
29756ION     NA47960  13.375   2.066  10.201 -0.1984  0.1728 -0.1162
29757ION     NA47961  13.781   4.495   5.243  0.1545  0.2087  0.1669
29758ION     NA47962   9.165  15.855  15.542  0.0097  0.1585  0.1275
29759ION     NA47963   3.335   7.110   5.211  0.2704 -0.0041 -0.2987
29760ION     NA47964  14.594   6.402   5.628  0.3049  0.3598  0.1103
29761ION     NA47965  14.952  14.514   0.550  0.1125 -0.2428 -0.1228
29762ION     NA47966  15.560   0.707  15.496  0.1747 -0.2165 -0.2180
29763ION     NA47967  14.945   2.936  14.752  0.0212  0.1217 -0.0708
29764ION     NA47968  13.755  16.073  12.568  0.1905  0.1255  0.0077
29765ION     NA47969  14.967   0.228   2.469  0.0039 -0.0126  0.0693
29766ION     NA47970  11.237   2.304   1.117  0.2607 -0.1953  0.0531
29767ION     NA47971   8.542   6.675   5.883 -0.2000  0.1744 -0.1968
29768ION     NA47972  11.559  12.701   5.877 -0.2660 -0.2895  0.0780
29769ION     NA47973  13.735  15.202  10.516  0.2769  0.0794 -0.0346
29770ION     NA47974   7.389   2.577  14.013 -0.1019 -0.0465 -0.2236
29771ION     NA47975   8.177  12.785   0.366 -0.0562  0.0010  0.0703
29772ION     NA47976   4.546  17.134   3.606 -0.3605  0.2314  0.1402
29773ION     NA47977   1.452  13.139   5.537 -0.1194  0.0145 -0.0717
29774ION     NA47978   2.312   2.323   3.687  0.1129 -0.1180  0.0173
29775ION     NA47979   5.222  13.538   4.404 -0.1017 -0.1243 -0.0543
29776ION     NA47980  14.096   7.523   2.275  0.3372  0.1807  0.1480
29777ION     NA47981   4.931  17.057   5.490  0.3809  0.3680 -0.1365
29778ION     NA47982   5.171   3.217   0.435  0.0061  0.1372 -0.0337
29779ION     NA47983   4.962   4.694  13.685  0.1431 -0.1885  0.0176
29780ION     NA47984  16.951  16.674  14.909 -0.0791  0.2789 -0.2291
29781ION     NA47985   8.015   0.715  12.056 -0.2827 -0.1626 -0.3954
29782ION     NA47986   2.566  13.081  12.474 -0.0891  0.2139 -0.1782
29783ION     NA47987   9.274  16.671   5.326  0.2300  0.0269 -0.2869
29784ION     NA47988  15.718   1.095  13.717 -0.0919  0.0161 -0.2720
29785ION     NA47989  15.620   2.790   5.548  0.4132  0.0792 -0.1268
29786ION     NA47990   4.352   7.501  15.703 -0.3658  0.2578  0.1978
29787ION     NA47991   4.928  11.707   3.609  0.0391 -0.2536 -0.1123
29788ION     NA47992  14.227   3.638   5.574  0.2318 -0.0486  0.0021
29789ION     NA47993  14.586   1.935  12.845 -0.0512  0.4435  0.1045
29790ION     NA47994  13.912   6.768  10.526  0.3300 -0.2354 -0.1594
29791ION     NA47995  10.431  14.605  15.449  0.0713  0.1462  0.1883
29792ION     NA47996   8.272  17.735   5.440 -0.1334  0.1582  0.3359
29793ION     NA47997  11.237  11.894  10.322 -0.1483 -0.2289 -0.2936
29794ION     NA47998   2.617  17.631   5.615  0.0826  0.2141 -0.2444
29795ION     NA47999  10.554   4.757  14.943  0.0119 -0.0576 -0.2457
29796ION     NA48000  18.136   7.298   0.746 -0.0897  0.0916  0.1789
29797ION     NA48001  13.556  13.625   1.114 -0.1835  0.0528 -0.3330
29798ION     NA48002   4.480  10.526  10.422  0.1172 -0.3054  0.3749
29799ION     NA48003   1.219  12.181  10.724 -0.0021 -0.1050 -0.2941
29800ION     NA48004   2.008  10.854   5.278 -0.0133  0.1398 -0.2153
29801ION     NA48005   9.161  11.433   5.541  0.1233 -0.4093 -0.0599
29802ION     NA48006  16.963  14.143  10.470  0.2366  0.1193 -0.1685
29803ION     NA48007   9.960   7.313   6.100  0.2690 -0.0744 -0.1631
29804ION     NA48008   7.750  10.345  10.804 -0.1602 -0.0417  0.0376
29805ION     NA48009  17.272  15.210   4.391  0.1511 -0.1147 -0.2409
29806ION     NA48010  12.553  16.132   2.946 -0.0139 -0.4130 -0.0022
29807ION     NA48011   0.893   0.197  15.355  0.1408 -0.1630 -0.0608
29808ION     NA48012  15.755  15.095   5.393  0.2284 -0.0828  0.0664
29809ION     NA48013  16.881  10.081   2.239  0.0990  0.1072 -0.0890
29810ION     NA48014  17.336   4.779   5.429  0.0463 -0.0851  0.4335
29811ION     NA48015   1.938   8.024  10.427 -0.1184  0.2718 -0.1296
29812ION     NA48016   8.537   2.651   5.465 -0.2501  0.3744 -0.1733
29813ION     NA48017   3.950   3.630   5.436  0.2179  0.1157  0.1237
29814ION     NA48018  17.487   3.945  13.086 -0.2539  0.0009 -0.1992
29815ION     NA48019  12.394   9.297  10.885 -0.1149 -0.3601 -0.1932
29816ION     NA48020  15.446   1.471  12.477  0.3571 -0.1383  0.0934
29817ION     NA48021   4.901   2.398  10.679 -0.1234 -0.0146 -0.0093
29818ION     NA48022  13.801   5.842   5.461  0.0619 -0.0862 -0.5437
29819ION     NA48023   9.777  18.145   5.377  0.2757  0.2936 -0.0236
29820ION     NA48024  10.735   4.557   4.980  0.0972  0.0875 -0.0731
29821ION     NA48025  14.701  16.144  12.861 -0.0598  0.0195 -0.2345
29822ION     NA48026  18.051  13.472   5.584 -0.0328  0.0484  0.2560
29823ION     NA48027  12.455   5.618  15.691  0.2552 -0.5419  0.1459
29824ION     NA48028   3.409  12.797   5.318 -0.4193  0.1979  0.0193
29825ION     NA48029   2.256   4.859  10.359  0.2196 -0.1429 -0.1658
29826ION     NA48030   3.511   7.561   4.087  0.2852  0.0069  0.0273
29827ION     NA48031   8.593  14.988   5.408 -0.1995  0.2969  0.0920
29828ION     NA48032   8.238   4.253  12.921 -0.4023 -0.0141  0.1048
29829ION     NA48033   3.347   2.129  10.640 -0.1287 -0.0230 -0.1728
29830ION     NA48034   9.899   2.585   5.336 -0.0596 -0.2416  0.0388
29831ION     NA48035   5.631  11.360  15.438 -0.2867  0.0150 -0.1664
29832ION     NA48036   6.185  14.071   0.163 -0.2095 -0.1129  0.1187
29833ION     NA48037  12.384  13.503   4.084 -0.0487 -0.0826  0.0599
29834ION     NA48038   1.325   9.109  15.160 -0.2206  0.4154 -0.3626
29835ION     NA48039  11.768  12.904   0.564  0.1493 -0.1684 -0.2265
29836ION     NA48040   9.669   3.471  10.310 -0.1528  0.1033  0.2782
29837ION     NA48041  15.161  11.280   2.392 -0.4466  0.3880 -0.0222
29838ION     NA48042   0.268  16.887   5.145 -0.3628  0.1617 -0.4354
29839ION     NA48043  12.329   9.842   5.872 -0.1893  0.0422 -0.4285
29840ION     NA48044   4.495  15.135  10.499 -0.0586  0.0775 -0.1479
29841ION     NA48045   5.545   5.735  10.037  0.1370  0.1092 -0.1122
29842ION     NA48046   6.226   5.809   3.557 -0.3523  0.2361  0.1416
29843ION     NA48047   1.527   0.804   5.334  0.2048  0.2777  0.0858
29844ION     NA48048  18.371  10.586   5.519  0.0755  0.1314  0.0706
29845ION     NA48049   5.615  13.452   0.562  0.1899  0.0972 -0.0983
29846ION     NA48050  14.263  11.423   2.210 -0.1016  0.1423  0.1761
29847ION     NA48051  12.258   8.831  12.574 -0.1271 -0.0178  0.0176
29848ION     NA48052   6.118   1.855   0.996 -0.2022  0.2027 -0.0609
29849ION     NA48053  16.849   3.917  14.539  0.3201 -0.2189  0.1045
29850ION     NA48054  17.969  14.388  12.480  0.1204  0.1755 -0.0444
29851ION     NA48055  14.484  17.336  14.418 -0.1784 -0.3903 -0.0227
29852ION     NA48056  14.286   0.604  14.938 -0.0877  0.0807  0.1253
29853ION     NA48057  17.249   4.672  10.930 -0.5369 -0.2325 -0.0682
29854ION     NA48058   1.229   9.453  10.327  0.0425  0.1749 -0.0353
29855ION     NA48059   5.505  13.399  12.578 -0.0238 -0.2469  0.0241
29856ION     NA48060   5.737  12.067  10.442  0.1912  0.2669 -0.2398
29857ION     NA48061  10.578  12.002   2.958 -0.0827 -0.1867  0.2643
29858ION     NA48062   0.001   7.624  10.542  0.2521  0.0589 -0.2850
29859ION     NA48063  13.542   3.174  10.058  0.1434  0.0076  0.1088
29860ION     NA48064  13.671   9.460   4.128 -0.1675 -0.1505  0.2915
29861ION     NA48065  12.827  14.471   2.851 -0.0563 -0.2042 -0.0872
29862ION     NA48066   0.705  14.723   3.858  0.3578 -0.2032 -0.1281
29863ION     NA48067   9.443   2.393   0.423 -0.0136 -0.1398  0.0392
29864ION     NA48068  10.408  10.753   5.725 -0.1718 -0.0397 -0.0088
29865ION     NA48069   9.980   4.629   1.857 -0.3649 -0.0769  0.0114
29866ION     NA48070  10.857   5.035  12.874  0.1594  0.0067 -0.0805
29867ION     NA48071  13.348   9.238  15.441  0.1558 -0.2379 -0.2136
29868ION     NA48072   4.311   5.622   5.697  0.0727  0.1623 -0.1265
29869ION     NA48073   9.761   4.897   5.489  0.1279  0.2984  0.1751
29870ION     NA48074   9.083   5.296   4.905 -0.0915 -0.0669 -0.0454
29871ION     NA48075   9.521   5.846  12.618 -0.0291  0.2154  0.3259
29872ION     NA48076   0.658  11.530  10.457  0.1832  0.1994 -0.1760
29873ION     NA48077  13.066   9.624  10.721 -0.0820 -0.2061  0.2274
29874ION     NA48078  13.118   3.983  10.128 -0.1750  0.1597 -0.1788
29875ION     NA48079  15.788   3.601   1.243  0.0236  0.0058  0.1794
29876ION     NA48080  17.766  12.856  14.849  0.1377 -0.1422 -0.0855
29877ION     NA48081   4.274  14.332  14.449  0.0142  0.0448 -0.1738
29878ION     NA48082  12.174   0.112  13.745 -0.0336 -0.0847 -0.1577
29879ION     NA48083   6.460   1.366   5.536 -0.1458  0.1972  0.2109
29880ION     NA48084  18.347   0.930   1.633  0.1944  0.3921  0.2901
29881ION     NA48085   7.229   0.603   4.739  0.0830 -0.1666 -0.1532
29882ION     NA48086   6.391   7.932  14.910  0.1294 -0.3722 -0.1392
29883ION     NA48087  17.837  11.179  10.142 -0.0034  0.1835 -0.4090
29884ION     NA48088   9.983   5.456  14.355 -0.2757 -0.0759 -0.2322
29885ION     NA48089  15.396  16.446  10.441  0.0766 -0.0419  0.3254
29886ION     NA48090   1.530  12.109   1.487 -0.2489 -0.2189  0.2031
29887ION     NA48091   6.648   4.431   3.713  0.3321 -0.2412  0.0220
29888ION     NA48092   0.390  11.633   5.584  0.2321  0.0251 -0.0771
29889ION     NA48093  14.770  12.884  10.350  0.1529  0.1249  0.2813
29890ION     NA48094  15.396   3.653  10.326  0.0826  0.2257 -0.1619
29891ION     NA48095  15.820  17.295  10.484 -0.3646 -0.0956 -0.2019
29892ION     NA48096  16.356   0.608  10.197  0.2197  0.3447  0.1157
29893ION     NA48097  17.336   0.704  10.111 -0.2993  0.0607  0.1268
29894ION     NA48098  16.444  15.391   2.783 -0.4318  0.0148  0.0037
29895ION     NA48099  15.595   7.026  10.103 -0.1001 -0.2417 -0.1659
29896ION     NA48100  12.731  17.155  10.328  0.2600 -0.0026 -0.1634
29897ION     NA48101   8.631  10.060  10.634 -0.1290  0.0538  0.0807
29898ION     NA48102   4.674  17.656   2.887 -0.0798  0.0123 -0.0001
29899ION     NA48103   6.733  13.496  13.808  0.1702  0.4479 -0.0548
29900ION     NA48104   2.693  12.328   5.107  0.1133 -0.1308 -0.0115
29901ION     NA48105  10.488  15.910   0.895 -0.0708 -0.0804  0.0853
29902ION     NA48106   5.093  17.166   0.232  0.0553 -0.2227 -0.1369
29903ION     NA48107  12.199   2.395  10.105  0.1500  0.0893  0.0023
29904ION     NA48108   5.691   5.829   1.292  0.0034  0.4528  0.1295
29905ION     NA48109  12.492   0.726  12.964  0.2905 -0.5234 -0.1965
29906ION     NA48110   6.787  17.578  14.467 -0.0061 -0.0713  0.0165
29907ION     NA48111   9.338  10.809  10.562 -0.2656  0.0706 -0.1078
29908ION     NA48112  11.235   6.648   5.867  0.0108 -0.1266 -0.3240
29909ION     NA48113  15.133  13.870   5.558 -0.0537 -0.0825  0.1995
29910ION     NA48114   9.438  14.984  10.239  0.0464 -0.3291  0.2726
29911ION     NA48115  17.294  13.823   5.624  0.2348 -0.1007 -0.0591
29912ION     NA48116  13.956  10.823  13.149 -0.1356  0.1076  0.2723
29913ION     NA48117  15.841   5.129   0.186 -0.2708 -0.2271  0.0399
29914ION     NA48118  13.569  13.289  10.629  0.0534 -0.2673  0.0863
29915ION     NA48119  17.955  14.589  10.838 -0.1464 -0.0300 -0.1047
29916ION     NA48120   5.394  14.279   0.950 -0.0617 -0.1496  0.0321
29917ION     NA48121  14.917   9.642   5.080 -0.0574  0.2439  0.0557
29918ION     NA48122   5.843  17.873  15.134  0.1134 -0.0077  0.1625
29919ION     NA48123   9.010   3.829  10.086  0.2309  0.1533  0.0404
29920ION     NA48124   8.833  16.509  13.330  0.0105 -0.2134  0.0759
29921ION     NA48125  15.362   6.051  10.240 -0.0358  0.1585  0.0606
29922ION     NA48126   8.241  17.216  14.397  0.2205 -0.0042 -0.1114
29923ION     NA48127  14.849   4.638  15.142 -0.1435 -0.3310  0.2050
29924ION     NA48128  17.457  17.484   5.517  0.0388 -0.0806  0.1884
29925ION     NA48129   5.036  13.562   5.389 -0.3288  0.2127 -0.2470
29926ION     NA48130   4.119   6.129   0.177 -0.0696  0.0393  0.1960
29927ION     NA48131   3.203   6.098   5.443 -0.1278  0.0015  0.1813
29928ION     NA48132  13.730   8.896   2.499 -0.0106 -0.0465 -0.3645
29929ION     NA48133   3.532  17.261   5.269 -0.0803  0.1337  0.1318
29930ION     NA48134   0.792   6.893   5.582  0.1425 -0.2249  0.0498
29931ION     NA48135  12.703   5.698   5.423  0.0863  0.2644 -0.1187
29932ION     NA48136   2.309  15.930   0.230 -0.1174  0.3105  0.2728
29933ION     NA48137  11.608  10.798   0.301 -0.0202 -0.0749  0.0455
29934ION     NA48138   2.125   6.041  10.124 -0.0580  0.4203 -0.0907
29935ION     NA48139   7.257  12.275   1.752 -0.0972 -0.1480  0.0522
29936ION     NA48140   6.282   2.662  10.376  0.0769  0.1881  0.1317
29937ION     NA48141   0.932   7.727  11.794 -0.1860 -0.2028  0.2148
29938ION     NA48142  17.099  17.950  15.290 -0.1714  0.0499 -0.2086
29939ION     NA48143   0.822   7.843  10.300 -0.0406 -0.3662  0.0670
29940ION     NA48144  14.709  11.577   1.749 -0.0351 -0.0850 -0.1245
29941ION     NA48145   7.797  11.626  15.097 -0.2821  0.2244 -0.1427
29942ION     NA48146   1.332   7.733   5.182  0.1665 -0.0024  0.1900
29943ION     NA48147   9.824  14.167   5.553  0.0910 -0.1914  0.1631
29944ION     NA48148  17.733   1.120  11.829 -0.2876  0.3551 -0.2942
29945ION     NA48149  14.366   2.225  10.170 -0.0979  0.0428 -0.3453
29946ION     NA48150  17.974   9.963  15.162  0.0082 -0.1799 -0.1014
29947ION     NA48151  13.170   7.461   5.826 -0.0779 -0.0502  0.0411
29948ION     NA48152  10.570  17.597  14.921  0.0874 -0.0163 -0.0731
29949ION     NA48153   0.008   0.150   3.803 -0.0146 -0.2813  0.0119
29950ION     NA48154  14.781   3.077  10.050  0.4128 -0.0595  0.1036
29951ION     NA48155   0.068   5.351  13.430  0.0671 -0.0411 -0.0416
29952ION     NA48156   8.027   6.413  10.540  0.2279 -0.0259 -0.4033
29953ION     NA48157   3.331  16.519  10.342 -0.0721 -0.2919 -0.0430
29954ION     NA48158   1.899  13.912   5.516  0.1028 -0.1890 -0.1822
29955ION     NA48159   6.343  15.954   1.703 -0.1643  0.1235  0.1200
29956ION     NA48160   5.001  15.320   1.307  0.0578 -0.1107 -0.1477
29957ION     NA48161   5.523   1.501   2.189  0.1198  0.0411  0.0366
29958ION     NA48162  13.623  14.832  11.233 -0.0771  0.1279  0.2288
29959ION     NA48163   6.269   6.412  10.345 -0.0264 -0.1428 -0.0669
29960ION     NA48164  17.759   3.876   2.721  0.2176  0.0232 -0.0039
29961ION     NA48165  11.299   4.811  14.044 -0.1993  0.0106 -0.1209
29962ION     NA48166  15.029  13.436  13.679 -0.0264 -0.2142  0.2956
29963ION     NA48167  14.431  16.050  10.515  0.1877 -0.2446 -0.0736
29964ION     NA48168   2.834   6.305  11.352  0.1859 -0.2344 -0.1516
29965ION     NA48169   4.723  12.883  10.422 -0.1489  0.5310  0.1749
29966ION     NA48170   0.926   7.074  13.510 -0.0259  0.4695 -0.0937
29967ION     NA48171  17.812   3.076   4.381 -0.0230 -0.2069  0.0921
29968ION     NA48172   9.287   8.747   4.920  0.1204 -0.0100 -0.3184
29969ION     NA48173   0.767   4.837  14.055 -0.2352  0.0692 -0.0873
29970ION     NA48174   7.943  15.441  10.142 -0.1627  0.3588 -0.0867
29971ION     NA48175   9.424   5.392   2.855  0.1664  0.0703 -0.0662
29972ION     NA48176  14.729   7.058  13.067  0.0943 -0.0421 -0.1410
29973ION     NA48177   3.025  16.988   5.398  0.1535 -0.1471 -0.0201
29974ION     NA48178   2.972  10.748   4.027 -0.1063 -0.1283  0.0349
29975ION     NA48179   9.091   1.200   1.310  0.1057 -0.0114  0.0031
29976ION     NA48180   5.205   2.775   5.412 -0.0973 -0.1906  0.0169
29977ION     NA48181  16.781   2.814  12.994  0.1366  0.0672 -0.2480
29978ION     NA48182   2.240   4.277   5.340 -0.2807 -0.2353 -0.2294
29979ION     NA48183   7.061  11.240   5.192  0.3959 -0.1462 -0.0206
29980ION     NA48184  15.669   8.539   5.207 -0.0636 -0.1858 -0.4372
29981ION     NA48185  14.730   9.042  14.113 -0.3773 -0.1221 -0.0998
29982ION     NA48186  11.966   2.417  12.724  0.0082  0.0083 -0.1991
29983ION     NA48187   5.667   3.128  11.968  0.1334  0.0387 -0.0024
29984ION     NA48188  16.922  14.627  13.839  0.1423 -0.0071  0.0465
29985ION     NA48189   1.493   4.807  12.487  0.1039  0.0710  0.1878
29986ION     NA48190   2.442   8.887  10.433 -0.2244 -0.1969  0.0005
29987ION     NA48191   4.580  15.306  12.880  0.4155 -0.0647 -0.4160
29988ION     NA48192   6.230  11.817  14.135  0.2274 -0.1735 -0.1047
29989ION     NA48193   5.726  17.359   1.804  0.0795  0.0338  0.0489
29990ION     NA48194   8.534  10.992   1.478  0.1055 -0.1687 -0.1211
29991ION     NA48195   4.034   1.342   5.563 -0.0273  0.1023 -0.0721
29992ION     NA48196   8.083   7.482  12.621  0.0876 -0.1813  0.0442
29993ION     NA48197   0.957   8.707  10.414  0.0196 -0.0882  0.3426
29994ION     NA48198  11.604   2.946  14.612 -0.1833 -0.0657  0.0283
29995ION     NA48199  18.147  17.854  10.500  0.0116 -0.1611  0.1848
29996ION     NA48200  14.346   7.124   1.936  0.1819 -0.0247 -0.0897
29997ION     NA48201  10.281  10.367  11.544 -0.1614 -0.2603  0.0987
29998ION     NA48202  15.294   8.149  10.011  0.0604 -0.1456 -0.4433
29999ION     NA48203  14.999  11.069   0.944 -0.3767 -0.0541  0.0758
30000ION     NA48204  15.361   3.652  13.823 -0.1332  0.0176  0.0702
30001ION     NA48205   1.187   0.828   3.060  0.1620 -0.0355  0.0984
30002ION     NA48206  10.766   7.276   6.076  0.2993 -0.0346  0.2727
30003ION     NA48207   0.380   8.763  14.750  0.0156 -0.1462 -0.1124
30004ION     NA48208  14.504   4.704  10.340  0.1327  0.0912 -0.2406
30005ION     NA48209   6.227  15.150  11.992 -0.0732  0.0466  0.0241
30006ION     NA48210   5.949  16.437  10.229 -0.1837 -0.3507 -0.0236
30007ION     NA48211  16.182   8.546  13.065  0.0008  0.0935  0.0405
30008ION     NA48212   1.686   6.683   5.585 -0.1983  0.1228  0.0915
30009ION     NA48213  10.174   8.190   5.964  0.2915 -0.2540  0.2062
30010ION     NA48214   6.034   4.919  10.415  0.1125  0.4880 -0.2298
30011ION     NA48215  15.128  15.578  14.689  0.0436  0.1394  0.1541
30012ION     NA48216   9.710  16.010  10.340  0.0846  0.2439 -0.2407
30013ION     NA48217   5.465  13.720  10.080  0.0337  0.0461 -0.1183
30014ION     NA48218  14.027  13.812   3.979 -0.0198  0.1281 -0.0044
30015ION     NA48219  17.956  12.036  15.544 -0.0686  0.2058  0.3528
30016ION     NA48220   1.331  15.414  10.394 -0.0726 -0.1281 -0.1401
30017ION     NA48221  17.794   4.987   5.652  0.1561  0.4830  0.3961
30018ION     NA48222   0.622   6.038   5.546  0.0310  0.2020  0.1073
30019ION     NA48223  15.197   3.297   2.058 -0.1609 -0.0866 -0.3849
30020ION     NA48224  11.778   5.362  10.354  0.0624  0.0870  0.0273
30021ION     NA48225  18.064  11.924  10.231  0.1497 -0.1729  0.0142
30022ION     NA48226  11.447  17.051   4.172  0.0850 -0.2044  0.2117
30023ION     NA48227   4.709   6.400  14.139  0.3835 -0.0728  0.0640
30024ION     NA48228   8.707   8.175  10.726 -0.3488  0.2817 -0.3019
30025ION     NA48229   5.169  10.966  14.254 -0.1101 -0.1131  0.2152
30026ION     NA48230  13.805  13.929  13.142  0.2006  0.0741 -0.0994
30027ION     NA48231  14.936   3.949  10.294 -0.0027 -0.0245 -0.1014
30028ION     NA48232   9.609  15.412   1.035  0.0063 -0.1312  0.1612
30029ION     NA48233  15.710   5.421   3.699 -0.1193  0.0238 -0.0980
30030ION     NA48234  11.974   1.606   5.537 -0.0514  0.0026 -0.0631
30031ION     NA48235  12.789  14.138   0.153  0.1251 -0.1010 -0.1858
30032ION     NA48236  14.371  15.426   5.590  0.0799 -0.2413 -0.1037
30033ION     NA48237   6.574  14.396  11.433 -0.2177 -0.0784 -0.0986
30034ION     NA48238   7.723   9.894   3.332  0.1404 -0.0457  0.1155
30035ION     NA48239  14.342   2.154   1.907 -0.0652  0.2250  0.1134
30036ION     NA48240   3.508   4.173  11.727  0.2909  0.1334 -0.0479
30037ION     NA48241   6.390   7.395  15.676 -0.1256 -0.0998 -0.0898
30038ION     NA48242  13.701  17.378  10.344  0.0030 -0.0009 -0.2572
30039ION     NA48243  13.584   2.630   5.234  0.2841  0.0085 -0.0772
30040ION     NA48244   6.772   2.149   5.509  0.0149 -0.1820 -0.0042
30041ION     NA48245  11.327  14.843   0.955  0.1699  0.1105  0.0888
30042ION     NA48246  12.794   8.274   5.580 -0.0508 -0.0360 -0.3980
30043ION     NA48247  17.095  16.101  10.801 -0.1185  0.1961  0.0419
30044ION     NA48248   5.892  14.912   1.002 -0.1332  0.1272 -0.0419
30045ION     NA48249   2.626   7.466  13.644  0.0921  0.2118 -0.3471
30046ION     NA48250   1.023   6.888   0.167  0.1354  0.0292 -0.0997
30047ION     NA48251   0.134   4.928   0.720 -0.0253 -0.0236  0.0751
30048ION     NA48252   2.226  10.013  13.451  0.2700  0.4363  0.0830
30049ION     NA48253   2.967  10.664  10.610  0.0935  0.1729  0.4005
30050ION     NA48254  11.843   3.506  13.586  0.1033  0.2273  0.0696
30051ION     NA48255  12.733  13.092   2.207  0.0737 -0.3145  0.0079
30052ION     NA48256   1.600   2.138   3.047  0.2558 -0.0044 -0.1834
30053ION     NA48257  17.586   8.473  10.391 -0.2853  0.0666 -0.3452
30054ION     NA48258  10.125  15.484  12.286  0.1438  0.0266 -0.1663
30055ION     NA48259   6.348  18.178   5.312 -0.1138 -0.3102 -0.1358
30056ION     NA48260   8.756   5.297   6.087  0.0686  0.2766  0.0200
30057ION     NA48261  15.000  11.824   2.589 -0.4489  0.1902 -0.0918
30058ION     NA48262  16.869   4.667   5.203 -0.3096  0.0116 -0.0616
30059ION     NA48263   4.485  17.753  10.263 -0.3539  0.2741 -0.2504
30060ION     NA48264  12.753   0.966   2.359  0.3152 -0.2876  0.0908
30061ION     NA48265  11.374  12.935   4.068  0.0113  0.0839 -0.0338
30062ION     NA48266   6.539  12.015  10.428  0.0018 -0.1557  0.1721
30063ION     NA48267   8.223  10.784   0.757  0.0246  0.2313 -0.1117
30064ION     NA48268   6.263  16.496   4.825 -0.1078 -0.1435 -0.2413
30065ION     NA48269   7.068   7.415  11.461 -0.1566 -0.1023  0.2422
30066ION     NA48270   0.933  11.197   3.016 -0.1983 -0.1510  0.2250
30067ION     NA48271   4.589   9.020   5.404  0.0611 -0.1305  0.0187
30068ION     NA48272  12.806  14.296   0.938  0.2903  0.0582  0.0216
30069ION     NA48273   9.155   0.377  10.475 -0.2982 -0.4021 -0.1340
30070ION     NA48274   0.047   5.635   2.554  0.1715 -0.1892 -0.0776
30071ION     NA48275  17.011  16.460   5.785  0.1380 -0.0242 -0.0892
30072ION     NA48276  11.773   6.023   5.308 -0.3051  0.0218  0.0815
30073ION     NA48277   0.240   1.582  13.620  0.0009 -0.1598 -0.0347
30074ION     NA48278  14.504  13.938  15.265  0.0871  0.0392 -0.1499
30075ION     NA48279   8.700   9.557   4.312 -0.2166 -0.2161  0.1082
30076ION     NA48280  12.118  16.204  10.167 -0.0619  0.1580 -0.0555
30077ION     NA48281   4.359  11.327   5.359  0.1293 -0.1551  0.0961
30078ION     NA48282  17.970   0.996  14.880  0.2348 -0.1888  0.0544
30079ION     NA48283  17.807   3.675  14.819 -0.3366 -0.1178  0.0395
30080ION     NA48284   9.153  14.961  13.987 -0.0145 -0.1228 -0.4649
30081ION     NA48285  12.213   4.234  10.793 -0.0386  0.2575  0.3327
30082ION     NA48286   4.345   2.087   5.395  0.1344  0.0429  0.1442
30083ION     NA48287  11.712   7.593   6.021 -0.1196  0.1282 -0.0369
30084ION     NA48288  17.115   3.935  10.364  0.1767  0.0665  0.0042
30085ION     NA48289  13.093   1.631   3.096  0.0651 -0.0038 -0.1170
30086ION     NA48290  10.317  11.909  10.513  0.0521  0.2517 -0.0240
30087ION     NA48291   0.546   1.287   5.503  0.0920 -0.3042 -0.1855
30088ION     NA48292   2.559  11.971   0.830  0.4530 -0.0721 -0.1594
30089ION     NA48293   3.419   3.399  10.312  0.0320  0.2528 -0.2646
30090ION     NA48294  10.134  13.099  12.259  0.0366 -0.2364  0.0857
30091ION     NA48295   4.644  14.597  13.404 -0.1565  0.0036 -0.0158
30092ION     NA48296   2.210   9.871  10.430  0.0614  0.1995 -0.1097
30093ION     NA48297  15.041   1.102   4.876 -0.0531 -0.1010  0.0625
30094ION     NA48298   0.982  11.263  13.344  0.4343  0.2131 -0.0368
30095ION     NA48299  10.885  13.150   4.176  0.0272 -0.0667  0.1060
30096ION     NA48300   8.353   2.455   9.883  0.0642  0.1267 -0.0660
30097ION     NA48301  11.626  15.235   2.036  0.3884 -0.0796 -0.3631
30098ION     NA48302  13.172  17.154  11.248 -0.3136  0.1047 -0.3343
30099ION     NA48303   0.948   5.957  14.749  0.2211 -0.1640 -0.2803
30100ION     NA48304  16.882  11.850  10.792 -0.3512  0.0713  0.1933
30101ION     NA48305   2.908   7.901   3.423  0.1301 -0.1903 -0.2430
30102ION     NA48306   9.770   0.200  14.717 -0.3024  0.0392  0.5537
30103ION     NA48307   1.890  11.280   2.120  0.2824 -0.3210 -0.2334
30104ION     NA48308  14.712   8.440  12.112 -0.0175 -0.0388  0.1329
30105ION     NA48309   3.744   3.368  12.413  0.0929  0.0249  0.1487
30106ION     NA48310  16.346   9.663  11.948 -0.1517 -0.0330  0.1152
30107ION     NA48311   6.341  10.383  10.382 -0.0191  0.2399 -0.1016
30108ION     NA48312   7.006  15.963  10.062  0.0263  0.1041  0.1751
30109ION     NA48313  12.767  14.004  10.566  0.2658  0.1351  0.0154
30110ION     NA48314  15.268   3.243  12.801 -0.1430 -0.2569 -0.1000
30111ION     NA48315   4.477  15.949   5.164 -0.0532  0.0585 -0.0270
30112ION     NA48316  11.963   1.352   4.448  0.0881  0.2359 -0.0072
30113ION     NA48317   0.670  11.178   5.626  0.2812  0.2293  0.1459
30114ION     NA48318  17.577   0.203  14.928  0.3690  0.2658 -0.0343
30115ION     NA48319  11.534  13.812   3.961  0.0505 -0.3053  0.0570
30116ION     NA48320  10.127  11.942  15.701  0.2450  0.2954  0.0696
30117ION     NA48321  16.217   1.317   5.414 -0.0531 -0.0279 -0.1622
30118ION     NA48322  15.211  17.662   5.641  0.0012 -0.3210  0.0557
30119ION     NA48323  16.762   3.527   5.374 -0.0250 -0.0143  0.2322
30120ION     NA48324  13.097  10.853  15.348 -0.1176 -0.1708 -0.2006
30121ION     NA48325  18.181  12.114   3.973  0.0578 -0.0279  0.1872
30122ION     NA48326  11.867  11.200   5.683  0.0348 -0.0582  0.1699
30123ION     NA48327   5.964  11.183   2.682 -0.1634 -0.3436  0.1880
30124ION     NA48328   5.673   0.455  14.205 -0.0522  0.0387  0.1694
30125ION     NA48329  10.090  11.219   4.856  0.2401  0.1473 -0.1193
30126ION     NA48330  14.738   3.969  14.418 -0.3514 -0.0821 -0.0465
30127ION     NA48331   5.822   3.638   3.098  0.0555 -0.3471 -0.1144
30128ION     NA48332   3.474  12.042   2.636 -0.3832 -0.0862 -0.2759
30129ION     NA48333  16.541   0.830  13.724  0.0343  0.2302 -0.0522
30130ION     NA48334   9.215  13.475  10.660 -0.2286 -0.0702  0.2695
30131ION     NA48335   3.240  11.277  15.431  0.0276 -0.0031  0.3521
30132ION     NA48336   2.000  12.484  10.366 -0.0603  0.1405  0.2766
30133ION     NA48337   0.039  11.028   4.998 -0.0098 -0.0717 -0.0746
30134ION     NA48338  11.441   0.097  10.918 -0.0005  0.0554  0.3362
30135ION     NA48339   1.103   3.271  13.987 -0.0176 -0.2842  0.0362
30136ION     NA48340  17.886  17.514  13.769  0.2792  0.0864  0.2309
30137ION     NA48341   6.100  13.756   5.386  0.2201  0.0725  0.0905
30138ION     NA48342   1.485   5.383  10.589  0.0347 -0.3479  0.1194
30139ION     NA48343   3.543  11.028   5.293  0.1066 -0.0217 -0.0578
30140ION     NA48344   4.330   9.814   5.188  0.0760  0.3241  0.0112
30141ION     NA48345  10.604   5.411   5.555  0.1631  0.0028  0.1050
30142ION     NA48346   6.869  10.129  10.808  0.3729 -0.3437  0.0965
30143ION     NA48347  11.796  16.116   4.273  0.0888 -0.4814 -0.1064
30144ION     NA48348  16.032  12.755   3.280  0.1090  0.1438 -0.2832
30145ION     NA48349  12.130  18.033  11.991  0.1702 -0.1212  0.0184
30146ION     NA48350   9.905   2.584  14.900 -0.1334  0.0805  0.1447
30147ION     NA48351  10.834   7.102   2.460  0.2215 -0.0003  0.0301
30148ION     NA48352   0.634   5.617  10.514  0.3188 -0.1317 -0.1475
30149ION     NA48353   8.683  14.755  10.302 -0.0337 -0.0051  0.2582
30150ION     NA48354  10.024  10.353  15.254 -0.0979  0.0024  0.3161
30151ION     NA48355  17.481   4.291  10.641  0.0654 -0.1573  0.1469
30152ION     NA48356   9.914   1.080   1.626 -0.4140 -0.2098 -0.1254
30153ION     NA48357   7.612   9.030   5.235 -0.2942  0.2664 -0.1376
30154ION     NA48358  15.492   6.734   0.491  0.1058  0.0003  0.1910
30155ION     NA48359   4.344   0.141  10.259 -0.0624 -0.0188  0.4833
30156ION     NA48360  10.738   0.158   4.138 -0.0087  0.1451  0.0671
30157ION     NA48361   7.229  16.858   9.870 -0.0025 -0.0299  0.1116
30158ION     NA48362  15.241   7.346   5.436  0.1226  0.0012  0.2638
30159ION     NA48363   8.859  13.764  14.323 -0.0505  0.0421 -0.0678
30160ION     NA48364   9.684  13.546   2.429 -0.0389  0.0005 -0.0868
30161ION     NA48365   2.135   2.836  14.543  0.0349 -0.0851  0.2236
30162ION     NA48366   2.755  14.528  10.391  0.1900 -0.0333  0.1244
30163ION     NA48367  13.821   7.851  13.586 -0.0297 -0.0634 -0.1999
30164ION     NA48368  15.196   1.111   5.347  0.0330  0.2735 -0.2736
30165ION     NA48369  16.034   9.913   5.330 -0.0293 -0.3244 -0.0636
30166ION     NA48370  10.831  16.058  10.491 -0.0172  0.0153  0.3100
30167ION     NA48371  11.917   3.657   1.724  0.2939  0.1687  0.0852
30168ION     NA48372  10.811  12.812  14.363 -0.4078 -0.0432  0.0467
30169ION     NA48373   5.831   0.784   4.575  0.3831  0.3430 -0.0252
30170ION     NA48374   8.051  10.950  10.461 -0.1871  0.1320 -0.1868
30171ION     NA48375  14.497   6.891   0.780  0.4477 -0.0176  0.1924
30172ION     NA48376   0.957  10.456  10.484 -0.0831  0.1277  0.0608
30173ION     NA48377  13.768  11.325  10.320 -0.2675  0.1376 -0.1330
30174ION     NA48378   4.799   6.903   5.670  0.1441  0.1384 -0.0718
30175ION     NA48379   1.199  16.878   5.480  0.0423  0.2155 -0.0416
30176ION     NA48380  15.258   1.782  10.420  0.0359  0.1689  0.1633
30177ION     NA48381  13.721  16.616  13.527  0.1684 -0.0479  0.2445
30178ION     NA48382   3.410   8.306  10.215  0.2631 -0.1544 -0.0259
30179ION     NA48383   8.034   5.188  14.441  0.2803  0.0037 -0.1193
30180ION     NA48384  14.105  16.568   5.207 -0.4040  0.0206 -0.0243
30181ION     NA48385   9.836  15.116   5.452  0.2369  0.1058  0.2827
30182ION     NA48386   8.415  10.949   5.779 -0.0464 -0.1838 -0.0397
30183ION     NA48387  16.860   7.236   1.108 -0.0967 -0.2433 -0.0914
30184ION     NA48388   8.963  17.981  12.124  0.2531 -0.1327 -0.0031
30185ION     NA48389   7.040  15.123  14.190 -0.1074  0.1765 -0.2599
30186ION     NA48390   5.004   3.654   4.984 -0.0711 -0.2768 -0.0414
30187ION     NA48391  11.834  10.335   0.196 -0.2254 -0.0325 -0.1349
30188ION     NA48392   8.346   5.199  10.461 -0.2767  0.0007 -0.1639
30189ION     NA48393   9.371   2.952  12.463 -0.0290  0.1229 -0.1714
30190ION     NA48394   9.512  11.644  10.341  0.0658  0.1363 -0.0258
30191ION     NA48395  17.170  11.335   5.390 -0.1839  0.1038  0.2920
30192ION     NA48396   8.278   1.473   3.306  0.0245  0.1069 -0.0548
30193ION     NA48397   1.514   1.726   0.806 -0.1195  0.1181 -0.0792
30194ION     NA48398   6.770  13.415   3.966 -0.1897 -0.0843  0.0320
30195ION     NA48399  17.265   4.280   0.450 -0.1383 -0.0408 -0.5140
30196ION     NA48400  10.714  14.961  14.004 -0.0996  0.0866 -0.0853
30197ION     NA48401  13.444   4.356  14.264 -0.1717  0.0828  0.4337
30198ION     NA48402   6.047   2.799   5.650 -0.1404  0.1230 -0.4459
30199ION     NA48403   3.924   0.574   5.330 -0.0963  0.0250  0.0555
30200ION     NA48404  14.169  16.332   5.722 -0.2913 -0.0517  0.0584
30201ION     NA48405   4.518   3.319   3.151 -0.3288 -0.3453  0.1066
30202ION     NA48406   4.331   0.018   2.678 -0.0897  0.2972  0.2465
30203ION     NA48407  14.092   2.956   2.570  0.1436  0.1045  0.0739
30204ION     NA48408   9.167   4.285  10.069  0.0823  0.3349  0.1761
30205ION     NA48409  15.527   2.221   3.555  0.0915 -0.0751 -0.1427
30206ION     NA48410  16.886   9.449   1.281 -0.0725  0.3156 -0.0960
30207ION     NA48411  14.284   5.402   3.636  0.4425  0.0310  0.1222
30208ION     NA48412  11.397   8.054  13.479 -0.3354  0.1996  0.1417
30209ION     NA48413  18.140   3.083  10.457 -0.2266  0.0282  0.3696
30210ION     NA48414   5.790  12.604   3.359 -0.0978 -0.1172  0.1117
30211ION     NA48415   5.268   3.474  14.663  0.0696 -0.0431 -0.2034
30212ION     NA48416  17.259   9.202  10.299  0.0355  0.0839 -0.2076
30213ION     NA48417  14.753  12.382   0.540  0.4901 -0.0245 -0.2663
30214ION     NA48418  12.425   1.057   9.950  0.1190  0.0453  0.1458
30215ION     NA48419   9.822   5.742   6.168 -0.1870  0.0529 -0.3801
30216ION     NA48420   7.663   5.539  15.107  0.0528  0.0636  0.1950
30217ION     NA48421  18.120   5.152  15.600 -0.0045  0.0465 -0.0094
30218ION     NA48422   1.517  16.633   2.729 -0.2405 -0.0515  0.0872
30219ION     NA48423   1.293  10.218   2.023 -0.2759  0.3433 -0.0312
30220ION     NA48424   0.462   6.768   5.099  0.0588  0.0593  0.0122
30221ION     NA48425   8.027   1.862   1.951 -0.1246  0.2097  0.3532
30222ION     NA48426   9.126   2.164   5.716  0.1187 -0.1176 -0.2326
30223ION     NA48427   2.931   1.163  14.444 -0.0318 -0.0816 -0.1637
30224ION     NA48428   9.180  16.183   2.087 -0.1619 -0.0827 -0.1094
30225ION     NA48429  17.124   5.657   5.685  0.1062  0.4229  0.1585
30226ION     NA48430  14.324   9.460  10.371  0.1597  0.3255  0.1979
30227ION     NA48431   3.132   5.272  15.425  0.0116  0.0344  0.1475
30228ION     NA48432  17.689  10.211   1.902 -0.1792 -0.1979 -0.0539
30229ION     NA48433   7.147   0.711  15.323 -0.3389 -0.0585 -0.0573
30230ION     NA48434  16.747  17.441  11.706  0.0848 -0.3961  0.1878
30231ION     NA48435  15.731  11.305   1.298  0.1229 -0.1540 -0.0326
30232ION     NA48436   4.742  17.879  14.487  0.1047 -0.0797  0.2431
30233ION     NA48437  11.518  15.393  10.495  0.1774  0.1246  0.2150
30234ION     NA48438   2.607  12.568  10.321  0.1974  0.1770  0.0803
30235ION     NA48439   4.388   8.434  14.718 -0.1471  0.1812  0.0292
30236ION     NA48440   4.804   5.411   2.744 -0.1414 -0.0244 -0.0164
30237ION     NA48441   8.532   3.060  14.031  0.4036 -0.0125  0.1716
30238ION     NA48442   6.532  10.597   3.238  0.1102  0.0203  0.0863
30239ION     NA48443   1.261  14.248  10.540 -0.2525 -0.1037  0.1915
30240ION     NA48444  16.324   8.234  11.838 -0.1234  0.0396  0.3577
30241ION     NA48445  13.983  13.171  11.825 -0.0555 -0.2315  0.0016
30242ION     NA48446  13.437  12.941   5.875 -0.0221 -0.0623 -0.1029
30243ION     NA48447  16.337   2.272   5.264 -0.0710  0.0854  0.2550
30244ION     NA48448   8.015   5.322   1.730  0.2258  0.0044 -0.2697
30245ION     NA48449  12.302  14.738  10.327  0.2063  0.3644 -0.1224
30246ION     NA48450   1.967  12.269  12.699  0.1208 -0.4607 -0.0790
30247ION     NA48451  16.891   8.884  11.609 -0.3772  0.0149  0.2301
30248ION     NA48452  13.626   5.803   0.557 -0.1673 -0.0412  0.0061
30249ION     NA48453  13.091  11.396  11.540  0.1163 -0.0760  0.1429
30250ION     NA48454   7.656  11.385   5.805  0.0822 -0.0190  0.1924
30251ION     NA48455  12.077   8.069  14.150 -0.1615  0.0310 -0.2235
30252ION     NA48456  14.611  10.724  10.551 -0.0337 -0.0849  0.1913
30253ION     NA48457  11.212  18.032  11.512 -0.0346 -0.4395  0.0309
30254ION     NA48458  15.750  16.650   2.335  0.0954  0.2782  0.0783
30255ION     NA48459  14.677  16.471  14.855  0.0954 -0.3199 -0.0883
30256ION     NA48460  10.774   2.237   5.103 -0.2059 -0.0204 -0.1014
30257ION     NA48461   6.248   1.034  10.599  0.0532 -0.1306  0.0377
30258ION     NA48462   4.414   7.108  10.017 -0.1151 -0.3125  0.1562
30259ION     NA48463  13.423   1.665   5.286 -0.1374  0.0263  0.0769
30260ION     NA48464   8.002  11.980   0.530  0.0364  0.1234 -0.1492
30261ION     NA48465   9.737  10.269   3.645 -0.1303  0.0921  0.0570
30262ION     NA48466  12.046  13.680  13.176  0.0154 -0.0228  0.2093
30263ION     NA48467  17.073   2.714  14.615  0.0080 -0.0449 -0.0693
30264ION     NA48468   2.194   7.700   0.462 -0.2728 -0.0514  0.2180
30265ION     NA48469   4.263  14.241  10.194  0.2591  0.2036  0.2439
30266ION     NA48470   3.263  11.469  10.509 -0.0391 -0.0394 -0.2635
30267ION     NA48471  16.499   6.525  13.441 -0.1967  0.0948 -0.0170
30268ION     NA48472   2.425   6.697   5.340  0.0063 -0.1998  0.2041
30269ION     NA48473   2.306   6.452   0.210  0.1471 -0.1207 -0.1727
30270ION     NA48474  14.858  12.485   5.551  0.0101 -0.1013 -0.2084
30271ION     NA48475   7.195   8.270   5.924  0.0741 -0.1703  0.1426
30272ION     NA48476   7.863   2.971   4.191  0.0881 -0.1778 -0.0118
30273ION     NA48477   6.972  17.420   1.059  0.0649 -0.1244 -0.2557
30274ION     NA48478   4.938   6.458  10.050  0.0575 -0.0272  0.3236
30275ION     NA48479   4.786   0.306  13.681  0.0285 -0.2255  0.0451
30276ION     NA48480  12.748  11.611   5.697  0.0792  0.1821 -0.1625
30277ION     NA48481   9.476  18.198  10.128 -0.0257  0.0088 -0.0296
30278ION     NA48482   8.219   1.100   0.935  0.0240 -0.0711  0.0278
30279ION     NA48483   7.504   0.257  14.071  0.4742 -0.2450  0.0952
30280ION     NA48484   2.542  17.054   2.628  0.3096 -0.0819  0.1620
30281ION     NA48485   0.611   2.638  10.271 -0.0168  0.1058  0.1458
30282ION     NA48486   8.787   5.944   2.900 -0.0700 -0.0403 -0.0205
30283ION     NA48487  11.141  18.269   5.351  0.0401 -0.1081 -0.1193
30284ION     NA48488  10.190  12.343   5.139 -0.0243  0.1828  0.1434
30285ION     NA48489   4.493   5.210  15.054 -0.0495 -0.2833  0.1083
30286ION     NA48490   7.689  18.139  12.644  0.0301  0.1909  0.0400
30287ION     NA48491   3.798  10.138   5.413 -0.1957  0.0930  0.1244
30288ION     NA48492  10.409   0.639   5.396 -0.1235 -0.1364 -0.2127
30289ION     NA48493   4.344   7.602   3.672 -0.1356 -0.0983 -0.1741
30290ION     NA48494  17.896  17.128  10.338  0.0281  0.0871  0.0969
30291ION     NA48495  18.009   7.394  15.101  0.3078 -0.0330  0.0337
30292ION     NA48496   7.626   2.484  12.372  0.0553  0.0057  0.1242
30293ION     NA48497   7.714  13.141   5.339  0.0690 -0.1451  0.0592
30294ION     NA48498   0.172   7.105  14.175 -0.1147  0.1735  0.1520
30295ION     NA48499   6.076  11.218  10.610 -0.0070  0.2771 -0.1339
30296ION     NA48500   8.902  13.284   0.807  0.0520  0.1464 -0.2992
30297ION     NA48501   3.755   6.737  10.789 -0.0916  0.1292 -0.2374
30298ION     NA48502   0.011   0.180  14.529  0.3528  0.2228 -0.0111
30299ION     NA48503   2.956   6.928   2.067  0.1251 -0.1013 -0.2528
30300ION     NA48504   1.910   8.885   0.619  0.0063  0.1096  0.1498
30301ION     NA48505   3.106   7.455  12.256 -0.1229  0.0281 -0.2593
30302ION     NA48506  10.057   0.645   0.337 -0.2604  0.1727  0.0936
30303ION     NA48507  15.748  15.957   5.312 -0.0716  0.5461 -0.3495
30304ION     NA48508   5.072   6.743  14.886 -0.2185 -0.1559 -0.2350
30305ION     NA48509   6.746   8.390   5.811  0.0529 -0.1089  0.2254
30306ION     NA48510   2.292  15.843  10.103 -0.0962 -0.0453  0.2304
30307ION     NA48511   2.207   7.459   5.457  0.1090  0.1815  0.0709
30308ION     NA48512  16.100  14.035  10.315 -0.2095  0.0876 -0.0822
30309ION     NA48513  13.266  11.712   1.990  0.2067  0.2370 -0.1387
30310ION     NA48514   0.936  12.242  15.333 -0.1712 -0.2645 -0.0303
30311ION     NA48515   7.472   8.421   4.269  0.3946  0.0298  0.0124
30312ION     NA48516  13.387  18.216   4.779  0.0434  0.0258 -0.1489
30313ION     NA48517   6.291  14.956  10.122 -0.0945  0.4083  0.2932
30314ION     NA48518  10.706  13.669  14.879  0.2771 -0.2211 -0.1817
30315ION     NA48519   8.050  14.460   1.344 -0.2339  0.0762 -0.1141
30316ION     NA48520   7.708   9.805   0.967  0.0876  0.0016 -0.1560
30317ION     NA48521   3.419   1.630  11.457  0.1469 -0.0376  0.1492
30318ION     NA48522   6.525   9.249   4.594 -0.0495  0.1502  0.2143
30319ION     NA48523  18.320   3.672  12.070  0.0454  0.0733 -0.1556
30320ION     NA48524   5.166  13.819   3.096 -0.0214  0.1312  0.0787
30321ION     NA48525  13.116  10.635  10.715  0.0181  0.2032  0.0218
30322ION     NA48526  17.425  16.761   0.498  0.1832 -0.1897  0.1806
30323ION     NA48527  14.074  11.148   5.682  0.0556 -0.0712  0.3339
30324ION     NA48528  15.798  10.894   0.125  0.1465  0.1257 -0.0822
30325ION     NA48529   3.551  10.574  10.368 -0.1175  0.0505  0.0492
30326ION     NA48530  16.603   4.354  13.075 -0.0617 -0.1839 -0.0300
30327ION     NA48531  15.086  10.335   1.844 -0.1486 -0.0656  0.0615
30328ION     NA48532  16.873  14.293   0.695 -0.0462  0.0404  0.0153
30329ION     NA48533   4.442  11.848  10.527  0.2075  0.2817  0.1317
30330ION     NA48534   5.263   4.990   5.415 -0.0427 -0.3195  0.1364
30331ION     NA48535   0.866  15.301  13.707  0.0345  0.0950 -0.1391
30332ION     NA48536   2.704  14.132   5.340  0.0523  0.1380 -0.0495
30333ION     NA48537   1.770  10.258   5.376  0.0616  0.2005  0.1742
30334ION     NA48538   6.344  17.933  10.254 -0.1468 -0.1735  0.2833
30335ION     NA48539  17.163  15.615   5.757 -0.0868  0.1341  0.1308
30336ION     NA48540   0.393   4.021  12.819 -0.1404 -0.1547 -0.0141
30337ION     NA48541   2.085   1.991  10.336 -0.0031 -0.1193 -0.0726
30338ION     NA48542   5.799  16.569   3.836 -0.0848  0.1415 -0.2109
30339ION     NA48543   1.221   8.616   5.148 -0.1447  0.1191 -0.0695
30340ION     NA48544  13.542  17.803   5.172  0.2722 -0.2707  0.3569
30341ION     NA48545  13.285   5.409   1.280 -0.0130  0.0562  0.0653
30342ION     NA48546  16.234  16.789  13.241  0.0713 -0.0272  0.0691
30343ION     NA48547   9.983   8.617  10.778  0.2037 -0.1478 -0.1361
30344ION     NA48548  10.004   2.851  13.664 -0.2457 -0.0894  0.0602
30345ION     NA48549   0.600   0.056   5.501  0.1963  0.0201  0.3648
30346ION     NA48550   8.737   1.075  10.126  0.1478 -0.1811 -0.1691
30347ION     NA48551   7.156  10.857  10.489 -0.0922  0.0815 -0.2029
30348ION     NA48552   2.348   9.070  13.706 -0.2451 -0.0117 -0.2335
30349ION     NA48553   1.431  11.629   5.510 -0.2098 -0.2488  0.4588
30350ION     NA48554   8.380  17.361   0.706 -0.0654  0.0386 -0.3547
30351ION     NA48555   3.085   9.573  10.237 -0.0985  0.1130 -0.1968
30352ION     NA48556   4.757  11.968   0.687  0.2331  0.0996  0.0100
30353ION     NA48557   6.491   8.664   2.023  0.1921  0.2062 -0.1156
30354ION     NA48558  16.848   1.685   5.472  0.4025  0.0275  0.1417
30355ION     NA48559  15.835  12.832   4.975  0.0494  0.3078  0.1870
30356ION     NA48560   7.142  17.410  10.125  0.1435  0.1299 -0.1407
30357ION     NA48561   6.397   1.484  14.446 -0.2026 -0.0288 -0.0516
30358ION     NA48562   4.880  14.453   5.267  0.0329 -0.2298  0.0683
30359ION     NA48563  16.341   7.895   1.859 -0.3756 -0.0952  0.1374
30360ION     NA48564  15.110   9.228  14.751  0.2084  0.1167 -0.0964
30361ION     NA48565   4.643   7.845  10.226 -0.1768  0.0013 -0.2536
30362ION     NA48566   2.103   0.060   5.417  0.2755  0.1062 -0.0036
30363ION     NA48567   6.934   7.190  10.455 -0.0698 -0.0496  0.0194
30364ION     NA48568   9.197  14.065  10.562 -0.1878  0.0460 -0.2236
30365ION     NA48569   1.263  14.994   5.096 -0.2557 -0.0532  0.1259
30366ION     NA48570  13.093   5.119   4.077  0.0677 -0.0207  0.0799
30367ION     NA48571  15.160   8.300   3.303  0.3177  0.0797 -0.1474
30368ION     NA48572  14.956   0.121  14.188  0.2536 -0.0099  0.0408
30369ION     NA48573  17.361   3.338  10.310 -0.1029 -0.1121 -0.1784
30370ION     NA48574   5.966  15.349   5.291 -0.1781  0.0152  0.3377
30371ION     NA48575  11.312  17.925  14.286  0.0434 -0.0443 -0.1039
30372ION     NA48576   5.022   9.753   3.287 -0.5117 -0.3237 -0.0044
30373ION     NA48577   4.042   1.800  12.805  0.1549  0.0870 -0.0021
30374ION     NA48578  14.277   9.979   3.237 -0.1334 -0.0287 -0.0871
30375ION     NA48579   2.386  11.660  10.570 -0.0296 -0.0045 -0.1794
30376ION     NA48580  14.896   3.125   5.543 -0.0698  0.0628  0.0290
30377ION     NA48581  15.259  15.987  11.350  0.1228 -0.2274 -0.3546
30378ION     NA48582  14.324   7.654   5.280  0.0405  0.1239 -0.0191
30379ION     NA48583  11.522   4.011   9.977 -0.0243  0.1587 -0.4035
30380ION     NA48584  11.098   7.584  14.830  0.3393 -0.2839 -0.0507
30381ION     NA48585   3.553  11.761   5.164 -0.2761  0.0224 -0.1474
30382ION     NA48586  16.955   0.785   5.230 -0.0171 -0.1840  0.4115
30383ION     NA48587   4.141  16.149  10.372  0.2718  0.0769  0.2557
30384ION     NA48588  11.488  10.438   2.713 -0.0814 -0.1038 -0.1778
30385ION     NA48589   3.702   7.499  10.118 -0.0054  0.3252  0.1230
30386ION     NA48590   4.184   3.073  14.793 -0.1980 -0.2094 -0.0646
30387ION     NA48591  12.235  17.672   5.192 -0.0168  0.1289  0.0307
30388ION     NA48592  17.823  16.334   4.747  0.0812  0.4965  0.1944
30389ION     NA48593  10.345  17.822   2.491 -0.1860  0.0383 -0.0340
30390ION     NA48594   6.036   7.406  10.304  0.0638 -0.1654 -0.1648
30391ION     NA48595   2.872  15.237   9.981 -0.0895  0.0630 -0.0533
30392ION     NA48596  16.193  18.190  10.323  0.1640 -0.1040  0.0255
30393ION     NA48597  10.464  13.464  10.458  0.1705 -0.1038 -0.1810
30394ION     NA48598   7.352  12.321   4.672 -0.0046 -0.1349 -0.0324
30395ION     NA48599  11.214   8.451   5.920  0.1566  0.0082  0.1532
30396ION     NA48600  11.573  13.590   3.007 -0.0413 -0.0606 -0.0031
30397ION     NA48601  14.571  17.000  10.354  0.0726  0.0369  0.5357
30398ION     NA48602  10.019   6.738   2.257  0.0372  0.0148 -0.1890
30399ION     NA48603  15.027   0.069  10.481  0.2397 -0.1242  0.1412
30400ION     NA48604  12.362   1.588   1.334  0.2402 -0.0820 -0.0796
30401ION     NA48605   6.973   4.979   5.549 -0.0043  0.0255 -0.1178
30402ION     NA48606  15.118   6.934  12.630 -0.0440  0.1078  0.0844
30403ION     NA48607  16.789  13.155  13.104 -0.3786  0.1870  0.0746
30404ION     NA48608   3.634  16.869  13.068  0.0125  0.3823  0.2747
30405ION     NA48609  15.866  16.636  14.187  0.1654 -0.1733  0.1952
30406ION     NA48610   3.139   8.815  13.832  0.0082 -0.0543 -0.0037
30407ION     NA48611   7.607  14.185   5.442 -0.1017  0.0303 -0.2515
30408ION     NA48612  17.781   2.902  12.640 -0.2171  0.2857  0.0595
30409ION     NA48613   6.808  13.722   5.280 -0.0323  0.0383 -0.1620
30410ION     NA48614  15.407  10.245  10.269  0.1010  0.0240 -0.0291
30411ION     NA48615   7.961   7.335   1.954  0.1806  0.1451 -0.1214
30412ION     NA48616   9.361   5.515   5.907 -0.2921 -0.1838  0.0098
30413ION     NA48617   5.743   6.460   5.563  0.2069  0.4513 -0.4537
30414ION     NA48618   0.280  16.727   0.345  0.2492 -0.2657 -0.1999
30415ION     NA48619   7.709   6.354  12.199 -0.1393  0.0493  0.6017
30416ION     NA48620   9.737  13.514  14.566  0.1217 -0.0468  0.1309
30417ION     NA48621   0.471   5.112   5.720 -0.0544  0.0158 -0.0835
30418ION     NA48622   8.115  10.441  15.407  0.0570 -0.0790  0.2495
30419ION     NA48623  10.648  11.500  14.438  0.2551  0.0753 -0.1150
30420ION     NA48624  16.422  17.683   5.295  0.1324  0.1458  0.0816
30421ION     NA48625   0.441  14.138  12.969 -0.2695 -0.1340 -0.0335
30422ION     NA48626   2.833   9.208   5.404  0.0037  0.3779 -0.1971
30423ION     NA48627  12.277   4.595   1.890 -0.1335 -0.1312 -0.3045
30424ION     NA48628   6.730  10.914  12.786  0.2769 -0.0113  0.0579
30425ION     NA48629  17.091   8.837  14.851  0.1186 -0.0339 -0.2370
30426ION     NA48630   8.462   0.392  13.637 -0.0936  0.1788 -0.0518
30427ION     NA48631   4.580   5.629   9.843 -0.2045 -0.0727 -0.0735
30428ION     NA48632   3.118   8.962  13.000 -0.0060  0.1676  0.1382
30429ION     NA48633  15.709   4.620  14.757 -0.0256 -0.1455 -0.1990
30430ION     NA48634  11.659   0.536   5.588  0.0626  0.1082 -0.0339
30431ION     NA48635  14.029   6.691  13.162 -0.0426 -0.1053 -0.2706
30432ION     NA48636   3.997  15.336  13.123 -0.2243 -0.3187 -0.0359
30433ION     NA48637  15.802   1.401   9.852  0.1775  0.1015  0.2066
30434ION     NA48638  13.207  15.392   5.695 -0.1398 -0.0154 -0.0884
30435ION     NA48639   5.477   6.888   1.838  0.2792  0.1028  0.1087
30436ION     NA48640  10.348   2.542  11.352 -0.0386 -0.0525  0.0318
30437ION     NA48641  15.573   4.362   5.600  0.0309  0.1634 -0.0190
30438ION     NA48642   1.108  11.461   4.008  0.0386  0.2155  0.4127
30439ION     NA48643   1.620  15.601  11.309  0.0089 -0.1122 -0.3321
30440ION     NA48644   3.493   2.258   0.679  0.1296  0.2524  0.0528
30441ION     NA48645  15.766   8.425   0.163  0.1278  0.2104  0.0665
30442ION     NA48646  15.217  16.670   3.790 -0.1616  0.0082 -0.1537
30443ION     NA48647   1.647   8.120   1.754 -0.0436  0.3193  0.1974
30444ION     NA48648  10.545  12.861  10.641  0.0354  0.0616 -0.1754
30445ION     NA48649   1.141  12.541   3.804  0.2586  0.0502 -0.0606
30446ION     NA48650  15.674  11.473  10.184 -0.0851  0.2819  0.0525
30447ION     NA48651  16.758   8.196   5.386 -0.1404  0.0137  0.0659
30448ION     NA48652   9.031  12.579  10.409  0.1574 -0.0273 -0.1973
30449ION     NA48653   5.674   4.116  13.506  0.1018 -0.2066 -0.1225
30450ION     NA48654  18.025  14.548  14.343 -0.0223 -0.1183 -0.3388
30451ION     NA48655   7.906   7.688   5.707  0.0244  0.3167 -0.3207
30452ION     NA48656  13.694  17.986   2.930  0.1328 -0.0629 -0.1407
30453ION     NA48657  17.248  10.753  11.714 -0.3275  0.0455  0.1813
30454ION     NA48658  16.665   9.003   5.109  0.0368  0.1276  0.2436
30455ION     NA48659   8.388   0.663   2.673  0.2956  0.5351  0.0104
30456ION     NA48660  14.336   1.489   5.200 -0.0710 -0.0626  0.3391
30457ION     NA48661   1.510  16.053  11.121  0.0714 -0.2999  0.3938
30458ION     NA48662  10.762  15.110   5.537 -0.1009 -0.1873 -0.2627
30459ION     NA48663  18.356  17.898   5.225 -0.2631  0.0094 -0.0646
30460ION     NA48664   4.821   7.062   4.119  0.0456  0.1662 -0.0830
30461ION     NA48665   3.223   1.345   2.026  0.0280  0.0447  0.4446
30462ION     NA48666   5.154   8.816  10.007  0.0226  0.2229 -0.2555
30463ION     NA48667   5.317   1.429  10.353 -0.0850 -0.1501 -0.2809
30464ION     NA48668   3.109   3.799   3.626  0.0710 -0.2288  0.0666
30465ION     NA48669   0.619  10.372   5.351 -0.2231 -0.0307  0.0482
30466ION     NA48670   3.295   9.456   5.260  0.0785  0.1454 -0.1083
30467ION     NA48671   7.532  13.590  10.382  0.2000  0.7102  0.3021
30468ION     NA48672  15.000  16.096   5.448 -0.0259  0.1213 -0.1130
30469ION     NA48673  17.359  11.342  10.180 -0.0645  0.0347  0.2430
30470ION     NA48674  11.850  13.218   5.057 -0.0363 -0.2932 -0.2415
30471ION     NA48675  17.746   6.377  14.743 -0.1962 -0.0521  0.0299
30472ION     NA48676   2.536   6.281   1.986 -0.1267 -0.1256  0.2824
30473ION     NA48677  12.521   9.146   5.580  0.0740  0.0312  0.2442
30474ION     NA48678   1.440   8.302  13.274  0.3958  0.3353 -0.0625
30475ION     NA48679   8.838  12.444  13.332  0.0076  0.1039  0.1236
30476ION     NA48680   4.059  13.382  12.429 -0.0030  0.3018  0.0171
30477ION     NA48681   3.979   8.728  10.230 -0.2822 -0.0857 -0.0482
30478ION     NA48682   2.707   2.781  10.368  0.0310  0.1120 -0.2236
30479ION     NA48683   6.892   1.370   2.215  0.3410  0.3093 -0.1619
30480ION     NA48684  13.718  16.694  14.667  0.2813 -0.0918  0.1670
30481ION     NA48685   5.486   8.842  11.977  0.1363 -0.2614 -0.3237
30482ION     NA48686   2.060  13.907  13.378 -0.0257 -0.2709 -0.2758
30483ION     NA48687  14.451   3.431   1.681  0.4522  0.0084 -0.0930
30484ION     NA48688   8.776  13.274   5.618 -0.1746 -0.0006  0.1273
30485ION     NA48689  11.482   7.564   4.763  0.0293 -0.1408 -0.0025
30486ION     NA48690  18.048   6.791  10.586  0.1543  0.3882 -0.1055
30487ION     NA48691  15.465  13.389  15.697  0.0369  0.0227  0.0057
30488ION     NA48692   6.907  16.993   5.320  0.0277  0.1515 -0.0326
30489ION     NA48693   5.844   3.718   4.907  0.2714 -0.0500 -0.1565
30490ION     NA48694  11.331  14.886   5.589 -0.1733  0.1016  0.0741
30491ION     NA48695  14.182   0.085  13.600  0.1743  0.0679 -0.0909
30492ION     NA48696  11.996   8.551   6.038  0.0421  0.2455  0.1425
30493ION     NA48697   8.094   9.590   5.663 -0.0104 -0.4715  0.1277
30494ION     NA48698  14.565  17.786   3.553  0.0720 -0.4689  0.2320
30495ION     NA48699  15.042   9.889   0.846  0.0868 -0.1061  0.3175
30496ION     NA48700  10.205   3.880  11.411 -0.1641  0.2016 -0.1954
30497ION     NA48701   1.365   0.612  10.619 -0.2045  0.0161  0.1193
30498ION     NA48702  16.290  11.428   2.164 -0.0543 -0.1709 -0.0340
30499ION     NA48703   3.649  16.304   0.113  0.1760 -0.1525 -0.3234
30500ION     NA48704   0.339  15.334   5.349 -0.1764 -0.1284 -0.1444
30501ION     NA48705  15.834   3.370   5.590  0.1321 -0.2722 -0.2089
30502ION     NA48706   2.476  13.282   0.444  0.0762 -0.2226  0.0406
30503ION     NA48707  15.776  13.212  10.374  0.1922 -0.1086 -0.0083
30504ION     NA48708  13.374  15.179   2.965 -0.1109 -0.1909 -0.1660
30505ION     NA48709  11.344  10.091  10.648  0.0790 -0.0619 -0.0281
30506ION     NA48710   5.404  10.795  10.561  0.2336  0.0867  0.0699
30507ION     NA48711   6.881   8.448  14.288 -0.0137  0.0842  0.2755
30508ION     NA48712   8.518  16.254   5.486  0.0702 -0.1200 -0.1120
30509ION     NA48713   1.576   4.846  14.765 -0.2055 -0.2724  0.0663
30510ION     NA48714   8.805   6.389  15.280 -0.1203  0.2036 -0.1486
30511ION     NA48715   2.627   1.490  10.632  0.0920  0.3264  0.3013
30512ION     NA48716   5.421   7.813  10.270 -0.1061 -0.0885 -0.0130
30513ION     NA48717   4.080   7.326   5.491 -0.1671 -0.2658  0.3356
30514ION     NA48718   9.309   9.802   2.976  0.0660 -0.0284 -0.1533
30515ION     NA48719   0.435  18.038   3.407  0.0489 -0.3286  0.2057
30516ION     NA48720  16.558  11.986   0.531 -0.0015 -0.1117 -0.1006
30517ION     NA48721  13.556   3.753   3.931 -0.0452 -0.1890 -0.0641
30518ION     NA48722  10.873  16.745   5.408  0.1071 -0.0479  0.2692
30519ION     NA48723   5.997  10.486  15.408  0.1357 -0.0072 -0.2114
30520ION     NA48724   3.607  14.173   1.721 -0.0320  0.2635  0.1598
30521ION     NA48725   4.348   3.834  10.344 -0.1585 -0.4630 -0.3462
30522ION     NA48726  12.256  16.464  10.691  0.2875  0.0525 -0.0850
30523ION     NA48727   2.733  15.365   4.831 -0.0377  0.1306  0.0803
30524ION     NA48728  15.518   3.882  15.135  0.0318  0.1741 -0.1870
30525ION     NA48729   3.071   5.221  10.250  0.2635  0.2468 -0.2632
30526ION     NA48730  14.258   8.083  10.581  0.2387 -0.2159 -0.0518
30527ION     NA48731  14.533  18.347  11.914 -0.1449  0.0418 -0.3134
30528ION     NA48732  11.371   3.790  10.476 -0.0243 -0.2707  0.5470
30529ION     NA48733   6.453  16.907  13.768  0.1262  0.0722 -0.1279
30530ION     NA48734  17.262   7.411   5.431  0.2613  0.1670  0.0464
30531ION     NA48735  12.814   2.132   5.187  0.0005  0.2201 -0.1067
30532ION     NA48736   0.468   6.921   0.261  0.1159  0.0701  0.2235
30533ION     NA48737   0.659   6.956  10.377 -0.2775 -0.2570  0.1012
30534ION     NA48738  11.583  16.063   5.479 -0.0209  0.3231  0.2614
30535ION     NA48739   0.956   4.455   0.145  0.0643  0.0148 -0.2684
30536ION     NA48740   1.419   5.959   4.917  0.0050 -0.4139 -0.1057
30537ION     NA48741   1.616   3.886   2.630  0.2226 -0.0783  0.0514
30538ION     NA48742   5.194  17.887  14.214 -0.2261  0.2112 -0.1007
30539ION     NA48743   2.537  11.694  13.234  0.1570  0.0524  0.2175
30540ION     NA48744  17.085  16.511  10.433 -0.2538 -0.0120 -0.2440
30541ION     NA48745   3.800   5.713   9.959  0.1031 -0.0359 -0.0475
30542ION     NA48746   0.453  10.003   1.794  0.1321  0.1093 -0.5082
30543ION     NA48747   2.143   8.346   5.351 -0.0951  0.0824  0.1294
30544ION     NA48748  13.563   8.659   1.622 -0.1272 -0.0931  0.1400
30545ION     NA48749   7.233  17.819   5.371 -0.3381 -0.2549  0.1589
30546ION     NA48750  13.173  12.541  10.652 -0.0583 -0.0964 -0.0020
30547ION     NA48751  12.076  17.789  10.246 -0.0390  0.2788 -0.1316
30548ION     NA48752  12.880  16.936   3.467 -0.1241 -0.1775  0.1832
30549ION     NA48753   3.934   3.722   0.743  0.1707  0.4028  0.0568
30550ION     NA48754  16.202   5.322  10.434 -0.0113  0.2636 -0.0000
30551ION     NA48755   5.853   7.658  11.662  0.2166 -0.2667 -0.0076
30552ION     NA48756  14.963   2.265   5.060  0.0576  0.1010  0.0652
30553ION     NA48757  10.675  15.459   2.957 -0.0949 -0.1526  0.1819
30554ION     NA48758  12.124   6.727   1.336 -0.0143 -0.1513 -0.0921
30555ION     NA48759  16.512   9.709  10.046 -0.0217 -0.1993  0.2642
30556ION     NA48760   1.892  17.766  10.324 -0.3010  0.2135 -0.1630
30557ION     NA48761  12.525   5.988  14.264  0.6262  0.4115  0.1001
30558ION     NA48762  11.486  13.475   5.609  0.5208  0.0024 -0.0387
30559ION     NA48763  15.602   1.829   5.325 -0.1151 -0.0296  0.1109
30560ION     NA48764  12.286  15.253   0.944  0.4760  0.0285 -0.1910
30561ION     NA48765   6.863   3.086   5.521  0.0147  0.1137 -0.1328
30562ION     NA48766  10.149  11.023  10.679 -0.3022  0.0602  0.1187
30563ION     NA48767  12.129  10.014  14.881  0.0702 -0.1481 -0.0739
30564ION     NA48768   1.506   3.215   5.222 -0.1186  0.2178 -0.1853
30565ION     NA48769   5.748   7.486   2.328 -0.2651 -0.2024 -0.1050
30566ION     NA48770   9.305   6.214   0.930  0.0871 -0.1311  0.1109
30567ION     NA48771  10.740   6.950  14.104 -0.0417 -0.0292  0.2780
30568ION     NA48772  16.798  11.941  12.236  0.3033  0.1553 -0.1379
30569ION     NA48773  17.650  12.981  13.606  0.1469 -0.1251  0.1222
30570ION     NA48774  11.780   9.315   6.080 -0.1127  0.1053 -0.4565
30571ION     NA48775  18.367   8.203  12.764  0.2358 -0.1194 -0.0674
30572ION     NA48776  16.257  12.113  10.049 -0.1917  0.3562 -0.2862
30573ION     NA48777   0.899  12.473   5.632  0.1153 -0.0726  0.0342
30574ION     NA48778  10.279   9.484  15.581 -0.1270 -0.0957  0.0516
30575ION     NA48779   8.183  10.823  11.882 -0.0944  0.1245  0.4123
30576ION     NA48780   2.503   3.963   0.238  0.1015  0.0023 -0.1459
30577ION     NA48781   6.203   6.665  11.751 -0.1735  0.2138 -0.0983
30578ION     NA48782   9.770   6.600   4.041 -0.0290 -0.0369 -0.1474
30579ION     NA48783   5.790  16.255  11.067  0.2719 -0.1306  0.2559
30580ION     NA48784   5.860   5.620  10.474 -0.0046  0.1874 -0.1997
30581ION     NA48785   9.659   7.888   4.948  0.1523  0.1499  0.1656
30582ION     NA48786   5.742  16.364   5.487 -0.0153 -0.1124 -0.0417
30583ION     NA48787  17.535  13.075  12.079  0.3110 -0.1662  0.1810
30584ION     NA48788   8.855   3.902  13.489  0.0070  0.1847 -0.1965
30585ION     NA48789  12.258  16.767   5.247 -0.2420  0.0917  0.0514
30586ION     NA48790  15.638  10.873  14.840 -0.0691 -0.5181  0.2308
30587ION     NA48791   5.098   1.299   5.467 -0.1875  0.0286  0.2020
30588ION     NA48792  14.491  17.831  10.299  0.1905  0.1192  0.0596
30589ION     NA48793   2.371   4.355   2.337  0.0795 -0.0464  0.0795
30590ION     NA48794  11.253  11.488   1.396  0.1358  0.0620 -0.0276
30591ION     NA48795  11.989  16.018   1.895  0.0637 -0.1587  0.0962
30592ION     NA48796  12.696   3.606  12.919 -0.1948  0.4519  0.1507
30593ION     NA48797  15.004   5.052  10.231  0.1071 -0.0231 -0.0186
30594ION     NA48798   1.861   2.427   5.398 -0.1212 -0.1451  0.2612
30595ION     NA48799  17.233  13.482   4.461 -0.0813 -0.1841 -0.0861
30596ION     NA48800   7.616  14.439  15.154  0.3880 -0.1379  0.3167
30597ION     NA48801  11.598   1.810  10.439 -0.1859  0.0678 -0.4379
30598ION     NA48802   9.761   4.286   3.578 -0.2922 -0.2304 -0.0609
30599ION     NA48803  12.539   3.166   2.337 -0.1152  0.1188  0.1286
30600ION     NA48804  17.125   2.559   5.136 -0.2599  0.3078  0.0251
30601ION     NA48805  16.996  16.230  12.861 -0.0823  0.2331 -0.2284
30602ION     NA48806   1.146   6.415  12.166  0.1376  0.0950 -0.2538
30603ION     NA48807   4.946  12.354   1.772 -0.2206  0.0309  0.0437
30604ION     NA48808  11.641   8.277  12.364  0.0199  0.0636 -0.3100
30605ION     NA48809  15.746  15.731  14.174  0.0994  0.0850 -0.0285
30606ION     NA48810   2.557   2.993   5.279  0.1114  0.1820  0.2478
30607ION     NA48811   2.609   9.540   2.914  0.2917 -0.0279  0.2824
30608ION     NA48812   8.910   0.189   5.489  0.0744  0.0489  0.0398
30609ION     NA48813   6.659   5.487   1.500 -0.1423  0.0295 -0.2616
30610ION     NA48814  11.683  10.303   5.899 -0.0077 -0.0107 -0.0147
30611ION     NA48815  12.518  18.049  14.444 -0.1857  0.0852  0.0469
30612ION     NA48816   3.021   6.171  10.041  0.0558  0.0048  0.0520
30613ION     NA48817  12.168  11.583  12.125 -0.2048  0.1936  0.1433
30614ION     NA48818   8.490  12.450   5.521  0.0969  0.0491  0.3349
30615ION     NA48819   7.926   1.295  10.533  0.1742 -0.3174  0.0882
30616ION     NA48820   9.307  17.599   0.471  0.0831  0.1024 -0.1419
30617ION     NA48821  10.408  18.115  10.419 -0.0641 -0.2009  0.3456
30618ION     NA48822   1.799   9.808  12.761 -0.2078  0.0419  0.0529
30619ION     NA48823   6.695  13.708  15.464  0.2553 -0.0071 -0.0031
30620ION     NA48824  13.414   6.622   4.051  0.0720 -0.0278  0.0039
30621ION     NA48825   8.617   4.767   1.751  0.0572 -0.0591 -0.0531
30622ION     NA48826  12.619   6.063   0.960 -0.2370 -0.1111  0.1470
30623ION     NA48827   3.420   7.540  15.267 -0.1244 -0.1154  0.2418
30624ION     NA48828   2.586  15.107   1.638  0.0662  0.0865  0.0246
30625ION     NA48829   8.316   4.003   3.777  0.1534  0.4969 -0.1966
30626ION     NA48830   3.431  14.265  13.818 -0.3080  0.1421  0.0338
30627ION     NA48831   9.887   4.797  10.273 -0.1069 -0.0326  0.0956
30628ION     NA48832   6.807   5.442  15.409  0.1299 -0.0266  0.0276
30629ION     NA48833   1.324  16.364  10.267 -0.0397 -0.0793  0.2463
30630ION     NA48834  16.002   3.311   3.330 -0.0941 -0.0811 -0.5111
30631ION     NA48835   5.119   0.672  10.284  0.2535 -0.2382  0.3193
30632ION     NA48836   6.504   9.974   5.541  0.2146  0.0880 -0.2583
30633ION     NA48837  10.664  10.076   5.999  0.1867 -0.2902 -0.1733
30634ION     NA48838  17.204  11.981   3.211 -0.0159 -0.1649  0.0744
30635ION     NA48839   7.219   0.150  10.386 -0.0438 -0.1005 -0.0225
30636ION     NA48840  14.999   0.168   5.170  0.1768  0.2956 -0.1492
30637ION     NA48841  17.730  12.531   1.614 -0.0790 -0.0737  0.0812
30638ION     NA48842   8.374   7.125   2.637  0.1167  0.3037  0.1089
30639ION     NA48843  18.183   5.086   3.555 -0.0261  0.0666  0.0179
30640ION     NA48844   6.830   3.328  12.487 -0.1942 -0.0120 -0.2043
30641ION     NA48845   3.591   8.615   5.495  0.0863 -0.1672 -0.0493
30642ION     NA48846   1.432   0.840  13.975  0.1776 -0.4248 -0.1798
30643ION     NA48847   7.360   0.577  13.070  0.1829  0.0802 -0.2586
30644ION     NA48848   8.637  15.702  10.244 -0.0185  0.2063  0.0028
30645ION     NA48849   1.186  18.187  10.251 -0.2361 -0.1497 -0.1604
30646ION     NA48850   6.785   2.885  10.160  0.3281 -0.0975  0.0236
30647ION     NA48851  15.674  11.857   5.050 -0.2309 -0.0706  0.1680
30648ION     NA48852  12.326  16.192   5.262 -0.0515  0.2710 -0.4788
30649ION     NA48853   3.429  18.363  13.980 -0.1103 -0.0862  0.1356
30650ION     NA48854  12.499  14.838   5.466 -0.0360 -0.0409  0.2187
  18.37979  18.37979  15.72820
